                               Psi4 1.3.2 release

  ==> Input File <==

--------------------------------------------------------------------------
import numpy as np
set {scf_type pk
basis cc-pvdz
d_convergence 10
gdma_switch   0
gdma_limit    0
gdma_origin   [ 0.0,  0.0,  0.0 ]
}
molecule test {
    units Angstrom
    0 1
    --
    0 1
    C               -3.515164962296023    -1.707516751490202     1.674088857319384
    C               -4.478164962296023    -0.779516751490202     2.322088857319384
    H               -2.527164962296023    -1.367516751490202     1.956088857319384
    H               -3.636164962296023    -2.728516751490202     2.038088857319384
    H               -3.606164962296023    -1.686516751490202     0.588088857319384
    H               -4.249164962296022     0.232483248509798     2.000088857319384
    H               -5.510514962296023    -1.034224751490202     2.040344857319384
    H               -4.338264962296023    -0.781679751490202     3.413153857319384
    C               -0.421164962296023    -0.474516751490202     0.488088857319384
    C                0.019835037703976    -1.876516751490202     0.927088857319384
    C                0.626835037703977     0.266483248509798    -0.309911142680616
    C                1.643835037703976     0.974483248509798     0.340088857319384
    C                0.619835037703977     0.220483248509798    -1.695911142680616
    C                2.628835037703976     1.634483248509798    -0.384911142680616
    C                1.595835037703976     0.880483248509798    -2.420911142680616
    C                2.601835037703976     1.593483248509798    -1.768911142680616
    H               -1.331164962296024    -0.550516751490202    -0.108911142680616
    H               -0.669164962296024     0.112483248509798     1.374088857319384
    H               -0.828164962296023    -2.377516751490202     1.386088857319384
    H                1.655835037703976     1.021483248509798     1.416088857319384
    H               -0.143164962296023    -0.340516751490202    -2.216911142680616
    H                3.399835037703976     2.198483248509798     0.112088857319384
    H                1.599835037703977     0.801483248509798    -3.495911142680616
    H                3.368835037703976     2.099483248509797    -2.339911142680616
    H                0.836195037703977    -1.810243751490202     1.661363857319384
    H                0.233565037703977    -2.502454751490203     0.048158857319384

}
e, wfn = energy('scf', return_wfn=True)
gdma(wfn)
dmavals = variable('DMA DISTRIBUTED MULTIPOLES')
charges = np.array(dmavals)
print(charges)
np.save('SSI-028VAL-128PHE-1-dimer.npy', np.array(charges))--------------------------------------------------------------------------

*** tstart() called on ds3
*** at Tue Apr 28 13:21:51 2020

   => Loading Basis Set <=

    Name: CC-PVDZ
    Role: ORBITAL
    Keyword: BASIS
    atoms 1-2, 9-16  entry C          line   138 file /theoryfs2/ds/metcalf/miniconda2/envs/tf2gpu/share/psi4/basis/cc-pvdz.gbs
    atoms 3-8, 17-26 entry H          line    22 file /theoryfs2/ds/metcalf/miniconda2/envs/tf2gpu/share/psi4/basis/cc-pvdz.gbs

         ---------------------------------------------------------
                                   SCF
               by Justin Turney, Rob Parrish, Andy Simmonett
                          and Daniel G. A. Smith
                              RHF Reference
                        1 Threads,    500 MiB Core
         ---------------------------------------------------------

  ==> Geometry <==

    Molecular point group: c1
    Full point group: C1

    Geometry (in Angstrom), charge = 0, multiplicity = 1:

       Center              X                  Y                   Z               Mass
    ------------   -----------------  -----------------  -----------------  -----------------
         C           -3.515164962296    -1.707516751490     1.674088857319    12.000000000000
         C           -4.478164962296    -0.779516751490     2.322088857319    12.000000000000
         H           -2.527164962296    -1.367516751490     1.956088857319     1.007825032230
         H           -3.636164962296    -2.728516751490     2.038088857319     1.007825032230
         H           -3.606164962296    -1.686516751490     0.588088857319     1.007825032230
         H           -4.249164962296     0.232483248510     2.000088857319     1.007825032230
         H           -5.510514962296    -1.034224751490     2.040344857319     1.007825032230
         H           -4.338264962296    -0.781679751490     3.413153857319     1.007825032230
         C           -0.421164962296    -0.474516751490     0.488088857319    12.000000000000
         C            0.019835037704    -1.876516751490     0.927088857319    12.000000000000
         C            0.626835037704     0.266483248510    -0.309911142681    12.000000000000
         C            1.643835037704     0.974483248510     0.340088857319    12.000000000000
         C            0.619835037704     0.220483248510    -1.695911142681    12.000000000000
         C            2.628835037704     1.634483248510    -0.384911142681    12.000000000000
         C            1.595835037704     0.880483248510    -2.420911142681    12.000000000000
         C            2.601835037704     1.593483248510    -1.768911142681    12.000000000000
         H           -1.331164962296    -0.550516751490    -0.108911142681     1.007825032230
         H           -0.669164962296     0.112483248510     1.374088857319     1.007825032230
         H           -0.828164962296    -2.377516751490     1.386088857319     1.007825032230
         H            1.655835037704     1.021483248510     1.416088857319     1.007825032230
         H           -0.143164962296    -0.340516751490    -2.216911142681     1.007825032230
         H            3.399835037704     2.198483248510     0.112088857319     1.007825032230
         H            1.599835037704     0.801483248510    -3.495911142681     1.007825032230
         H            3.368835037704     2.099483248510    -2.339911142681     1.007825032230
         H            0.836195037704    -1.810243751490     1.661363857319     1.007825032230
         H            0.233565037704    -2.502454751490     0.048158857319     1.007825032230

  Running in c1 symmetry.

  Rotational constants: A =      0.09525  B =      0.01415  C =      0.01389 [cm^-1]
  Rotational constants: A =   2855.65782  B =    424.14489  C =    416.46158 [MHz]
  Nuclear repulsion =  482.180223465917720

  Charge       = 0
  Multiplicity = 1
  Electrons    = 76
  Nalpha       = 38
  Nbeta        = 38

  ==> Algorithm <==

  SCF Algorithm Type is PK.
  DIIS enabled.
  MOM disabled.
  Fractional occupation disabled.
  Guess Type is SAD.
  Energy threshold   = 1.00e-06
  Density threshold  = 1.00e-10
  Integral threshold = 0.00e+00

  ==> Primary Basis <==

  Basis Set: CC-PVDZ
    Blend: CC-PVDZ
    Number of shells: 108
    Number of basis function: 220
    Number of Cartesian functions: 230
    Spherical Harmonics?: true
    Max angular momentum: 2

  ==> Pre-Iterations <==

   -------------------------------------------------------
    Irrep   Nso     Nmo     Nalpha   Nbeta   Ndocc  Nsocc
   -------------------------------------------------------
     A        220     220       0       0       0       0
   -------------------------------------------------------
    Total     220     220      38      38      38       0
   -------------------------------------------------------

  ==> Integral Setup <==

  Using integral reordering PK algorithm.
  Sizing the integral batches needed.
  Building batch lookup table.
   Calculation information:
      Number of atoms:                  26
      Number of AO shells:             108
      Number of primitives:            300
      Number of atomic orbitals:       230
      Number of basis functions:       220

      Integral cutoff                 1.00e-12
      Number of threads:                 1

	Batch   1 pq = [       0,    9405] index = [             0,44231715] size =     44231715
	Batch   2 pq = [    9405,   13301] index = [      44231715,88464951] size =     44233236
	Batch   3 pq = [   13301,   16290] index = [      88464951,132690195] size =     44225244
	Batch   4 pq = [   16290,   18810] index = [     132690195,176917455] size =     44227260
	Batch   5 pq = [   18810,   21030] index = [     176917455,221140965] size =     44223510
	Batch   6 pq = [   21030,   23037] index = [     221140965,265363203] size =     44222238
	Batch   7 pq = [   23037,   24310] index = [     265363203,295500205] size =     30137002
  Task number: 27
  Buffer size: 11059200
  Buffer per thread: 2
  We computed 13983644 shell quartets total.
  Whereas there are 17325441 unique shell quartets.

  ==> DiskJK: Disk-Based J/K Matrices <==

    J tasked:                  Yes
    K tasked:                  Yes
    wK tasked:                  No
    Memory [MiB]:              375
    Schwarz Cutoff:          1E-12

    OpenMP threads:              1

  Minimum eigenvalue in the overlap matrix is 3.0567667527E-04.
  Using Symmetric Orthogonalization.

  SCF Guess: Superposition of Atomic Densities via on-the-fly atomic UHF.

  ==> Iterations <==

                        Total Energy        Delta E     RMS |[F,P]|

   @RHF iter SAD:  -387.01559355989144   -3.87016e+02   0.00000e+00
   @RHF iter   1:  -387.76680610801867   -7.51213e-01   2.75679e-03 DIIS
   @RHF iter   2:  -387.98545456032133   -2.18648e-01   1.14878e-03 DIIS
   @RHF iter   3:  -388.02027273415740   -3.48182e-02   2.48733e-04 DIIS
   @RHF iter   4:  -388.02316071239511   -2.88798e-03   5.37545e-05 DIIS
   @RHF iter   5:  -388.02325014741285   -8.94350e-05   2.07878e-05 DIIS
   @RHF iter   6:  -388.02326371471202   -1.35673e-05   4.02611e-06 DIIS
   @RHF iter   7:  -388.02326439514081   -6.80429e-07   1.19817e-06 DIIS
   @RHF iter   8:  -388.02326445819835   -6.30575e-08   3.67075e-07 DIIS
   @RHF iter   9:  -388.02326447095550   -1.27571e-08   1.71939e-07 DIIS
   @RHF iter  10:  -388.02326447497103   -4.01553e-09   8.61255e-08 DIIS
   @RHF iter  11:  -388.02326447601718   -1.04615e-09   2.45688e-08 DIIS
   @RHF iter  12:  -388.02326447608334   -6.61657e-11   9.07266e-09 DIIS
   @RHF iter  13:  -388.02326447609045   -7.10543e-12   3.46969e-09 DIIS
   @RHF iter  14:  -388.02326447608976    6.82121e-13   6.95066e-10 DIIS
   @RHF iter  15:  -388.02326447609187   -2.10321e-12   2.50509e-10 DIIS
   @RHF iter  16:  -388.02326447609181    5.68434e-14   8.33784e-11 DIIS
  Energy and wave function converged.

  ==> Post-Iterations <==

    Orbital Energies [Eh]
    ---------------------

    Doubly Occupied:

       1A    -11.236452     2A    -11.233167     3A    -11.232808
       4A    -11.229431     5A    -11.229314     6A    -11.229147
       7A    -11.227698     8A    -11.221769     9A    -11.216890
      10A    -11.213951    11A     -1.154145    12A     -1.061498
      13A     -1.032174    14A     -1.012621    15A     -0.981084
      16A     -0.861492    17A     -0.835637    18A     -0.824311
      19A     -0.785616    20A     -0.690741    21A     -0.640851
      22A     -0.633516    23A     -0.611216    24A     -0.603119
      25A     -0.588615    26A     -0.585830    27A     -0.578512
      28A     -0.541833    29A     -0.516550    30A     -0.508991
      31A     -0.501054    32A     -0.484062    33A     -0.482066
      34A     -0.479171    35A     -0.476062    36A     -0.465039
      37A     -0.332775    38A     -0.320004

    Virtual:

      39A      0.137854    40A      0.142001    41A      0.174960
      42A      0.187610    43A      0.204574    44A      0.207932
      45A      0.226292    46A      0.232849    47A      0.245872
      48A      0.248912    49A      0.254930    50A      0.268417
      51A      0.271688    52A      0.284030    53A      0.299139
      54A      0.308894    55A      0.314911    56A      0.344834
      57A      0.353156    58A      0.402296    59A      0.418309
      60A      0.426811    61A      0.454584    62A      0.475764
      63A      0.490316    64A      0.495837    65A      0.568243
      66A      0.575903    67A      0.589747    68A      0.607539
      69A      0.616250    70A      0.628340    71A      0.646782
      72A      0.660667    73A      0.682065    74A      0.695784
      75A      0.709339    76A      0.713517    77A      0.734259
      78A      0.735825    79A      0.741671    80A      0.749643
      81A      0.753951    82A      0.764869    83A      0.788306
      84A      0.815279    85A      0.830710    86A      0.853886
      87A      0.861800    88A      0.864294    89A      0.871579
      90A      0.877839    91A      0.885602    92A      0.895343
      93A      0.896553    94A      0.897959    95A      0.910566
      96A      0.911149    97A      0.917682    98A      0.926732
      99A      0.937881   100A      0.951470   101A      0.955058
     102A      0.963856   103A      0.979014   104A      0.987844
     105A      1.009356   106A      1.022366   107A      1.044279
     108A      1.085638   109A      1.122962   110A      1.136287
     111A      1.137277   112A      1.145258   113A      1.160735
     114A      1.181076   115A      1.185467   116A      1.224246
     117A      1.243511   118A      1.249322   119A      1.255923
     120A      1.261652   121A      1.293089   122A      1.302041
     123A      1.311524   124A      1.334136   125A      1.414950
     126A      1.421759   127A      1.433249   128A      1.482745
     129A      1.490557   130A      1.515955   131A      1.536294
     132A      1.587530   133A      1.613701   134A      1.641002
     135A      1.670846   136A      1.681714   137A      1.688801
     138A      1.718168   139A      1.739595   140A      1.752761
     141A      1.766336   142A      1.772251   143A      1.840247
     144A      1.849195   145A      1.855396   146A      1.865347
     147A      1.882916   148A      1.889120   149A      1.898181
     150A      1.903728   151A      1.910588   152A      1.922546
     153A      1.930773   154A      1.934778   155A      1.945967
     156A      1.946775   157A      1.954762   158A      1.960736
     159A      1.966151   160A      1.975034   161A      1.978200
     162A      1.980949   163A      1.990912   164A      2.001369
     165A      2.006565   166A      2.029224   167A      2.055533
     168A      2.062788   169A      2.086028   170A      2.094058
     171A      2.111737   172A      2.137181   173A      2.148308
     174A      2.165944   175A      2.171227   176A      2.172625
     177A      2.184725   178A      2.218853   179A      2.236705
     180A      2.253884   181A      2.280086   182A      2.305413
     183A      2.310116   184A      2.322267   185A      2.328376
     186A      2.339516   187A      2.390267   188A      2.452691
     189A      2.467785   190A      2.476019   191A      2.493047
     192A      2.502351   193A      2.520021   194A      2.552759
     195A      2.566437   196A      2.590212   197A      2.608286
     198A      2.656434   199A      2.749360   200A      2.760608
     201A      2.768842   202A      2.787455   203A      2.791641
     204A      2.809152   205A      2.810954   206A      2.845334
     207A      2.854034   208A      2.863882   209A      2.887561
     210A      2.936331   211A      2.975679   212A      2.985571
     213A      3.001887   214A      3.008638   215A      3.031004
     216A      3.056272   217A      3.188917   218A      3.212384
     219A      3.316091   220A      3.983962

    Final Occupation by Irrep:
              A
    DOCC [    38 ]

  @RHF Final Energy:  -388.02326447609181

   => Energetics <=

    Nuclear Repulsion Energy =            482.1802234659177202
    One-Electron Energy =               -1478.6885501259225748
    Two-Electron Energy =                 608.4850621839131009
    Total Energy =                       -388.0232644760917537

Computation Completed

Properties will be evaluated at   0.000000,   0.000000,   0.000000 [a0]

Properties computed using the SCF density matrix

  Nuclear Dipole Moment: [e a0]
     X:   -14.7605      Y:    -8.1689      Z:     9.2548

  Electronic Dipole Moment: [e a0]
     X:    14.6769      Y:     8.0812      Z:    -9.1795

  Dipole Moment: [e a0]
     X:    -0.0836      Y:    -0.0877      Z:     0.0753     Total:     0.1427

  Dipole Moment: [D]
     X:    -0.2124      Y:    -0.2230      Z:     0.1914     Total:     0.3626

*** tstop() called on ds3 at Tue Apr 28 13:24:57 2020
Module time:
	user time   =     102.00 seconds =       1.70 minutes
	system time =      43.03 seconds =       0.72 minutes
	total time  =        186 seconds =       3.10 minutes
Total time:
	user time   =     102.00 seconds =       1.70 minutes
	system time =      43.03 seconds =       0.72 minutes
	total time  =        186 seconds =       3.10 minutes
                                     G D M A

                                 by Anthony Stone

                           version 2.2.06, 22 June 2011

               Distributed Multipoles from Gaussian wavefunctions

Starting at 13:24:57 on 28 Apr 2020

Using SCF density matrix from file ./SSI/SSI-028VAL-128PHE-1-dimer.test.15948.fchk

                         Distributed Multipole Analysis

Standard DMA

Positions and radii in angstrom
Multipole moments in atomic units, ea_0^k for rank k

C          x = -3.515165  y = -1.707517  z =  1.674089 angstrom
           Maximum rank =  0   Radius =  0.650 angstrom
                   Q00  =  -0.226911

C          x = -4.478165  y = -0.779517  z =  2.322089 angstrom
           Maximum rank =  0   Radius =  0.650 angstrom
                   Q00  =  -0.221794

H          x = -2.527165  y = -1.367517  z =  1.956089 angstrom
           Maximum rank =  0   Radius =  0.325 angstrom
                   Q00  =   0.071406

H          x = -3.636165  y = -2.728517  z =  2.038089 angstrom
           Maximum rank =  0   Radius =  0.325 angstrom
                   Q00  =   0.074793

H          x = -3.606165  y = -1.686517  z =  0.588089 angstrom
           Maximum rank =  0   Radius =  0.325 angstrom
                   Q00  =   0.076868

H          x = -4.249165  y =  0.232483  z =  2.000089 angstrom
           Maximum rank =  0   Radius =  0.325 angstrom
                   Q00  =   0.074170

H          x = -5.510515  y = -1.034225  z =  2.040345 angstrom
           Maximum rank =  0   Radius =  0.325 angstrom
                   Q00  =   0.075816

H          x = -4.338265  y = -0.781680  z =  3.413154 angstrom
           Maximum rank =  0   Radius =  0.325 angstrom
                   Q00  =   0.074715

C          x = -0.421165  y = -0.474517  z =  0.488089 angstrom
           Maximum rank =  0   Radius =  0.650 angstrom
                   Q00  =  -0.030481

C          x =  0.019835  y = -1.876517  z =  0.927089 angstrom
           Maximum rank =  0   Radius =  0.650 angstrom
                   Q00  =  -0.227968

C          x =  0.626835  y =  0.266483  z = -0.309911 angstrom
           Maximum rank =  0   Radius =  0.650 angstrom
                   Q00  =  -0.091466

C          x =  1.643835  y =  0.974483  z =  0.340089 angstrom
           Maximum rank =  0   Radius =  0.650 angstrom
                   Q00  =  -0.005611

C          x =  0.619835  y =  0.220483  z = -1.695911 angstrom
           Maximum rank =  0   Radius =  0.650 angstrom
                   Q00  =  -0.074161

C          x =  2.628835  y =  1.634483  z = -0.384911 angstrom
           Maximum rank =  0   Radius =  0.650 angstrom
                   Q00  =  -0.074782

C          x =  1.595835  y =  0.880483  z = -2.420911 angstrom
           Maximum rank =  0   Radius =  0.650 angstrom
                   Q00  =  -0.069482

C          x =  2.601835  y =  1.593483  z = -1.768911 angstrom
           Maximum rank =  0   Radius =  0.650 angstrom
                   Q00  =  -0.082021

H          x = -1.331165  y = -0.550517  z = -0.108911 angstrom
           Maximum rank =  0   Radius =  0.325 angstrom
                   Q00  =   0.068555

H          x = -0.669165  y =  0.112483  z =  1.374089 angstrom
           Maximum rank =  0   Radius =  0.325 angstrom
                   Q00  =   0.063701

H          x = -0.828165  y = -2.377517  z =  1.386089 angstrom
           Maximum rank =  0   Radius =  0.325 angstrom
                   Q00  =   0.083833

H          x =  1.655835  y =  1.021483  z =  1.416089 angstrom
           Maximum rank =  0   Radius =  0.325 angstrom
                   Q00  =   0.053039

H          x = -0.143165  y = -0.340517  z = -2.216911 angstrom
           Maximum rank =  0   Radius =  0.325 angstrom
                   Q00  =   0.053248

H          x =  3.399835  y =  2.198483  z =  0.112089 angstrom
           Maximum rank =  0   Radius =  0.325 angstrom
                   Q00  =   0.063865

H          x =  1.599835  y =  0.801483  z = -3.495911 angstrom
           Maximum rank =  0   Radius =  0.325 angstrom
                   Q00  =   0.063309

H          x =  3.368835  y =  2.099483  z = -2.339911 angstrom
           Maximum rank =  0   Radius =  0.325 angstrom
                   Q00  =   0.060883

H          x =  0.836195  y = -1.810244  z =  1.661364 angstrom
           Maximum rank =  0   Radius =  0.325 angstrom
                   Q00  =   0.073924

H          x =  0.233565  y = -2.502455  z =  0.048159 angstrom
           Maximum rank =  0   Radius =  0.325 angstrom
                   Q00  =   0.072553

Total multipoles referred to origin at
           x =   0.000000,  y =    0.000000,  z =    0.000000 angstrom
                   Q00  =  -0.000000

Finished at 13:24:57 on 28 Apr 2020

  DMA results are available in the Python driver through the
	  variable('DMA DISTRIBUTED MULTIPOLES')
  and
	  variable('DMA TOTAL MULTIPOLES')
  commands.

    Psi4 stopped on: Tuesday, 28 April 2020 01:24PM
    Psi4 wall time for execution: 0:03:06.21

*** Psi4 exiting successfully. Buy a developer a beer!
