                               Psi4 1.3.2 release

  ==> Input File <==

--------------------------------------------------------------------------
import numpy as np
set {scf_type pk
basis cc-pvdz
d_convergence 10
gdma_switch   0
gdma_limit    0
gdma_origin   [ 0.0,  0.0,  0.0 ]
}
molecule test {
    units Angstrom
    -1 1
    --
    -1 1
    C               -2.438970174708977     0.863459666481976    -3.288793832670715
    C               -1.580970174708977    -0.002540333518024    -2.397793832670715
    O               -1.560970174708977     0.258459666481976    -1.180793832670715
    O               -0.924970174708977    -0.932540333518024    -2.912793832670715
    H               -2.908970174708977     1.658459666481976    -2.704793832670715
    H               -3.244970174708977     0.267459666481976    -3.712793832670715
    H               -1.838893174708977     1.330186666481976    -4.083823832670714
    C                1.840029825291023     0.849459666481976     3.666206167329285
    C                1.183029825291023    -1.155540333518024     0.715206167329285
    C                0.477029825291023     0.790459666481976     1.464206167329285
    C                1.370029825291023     0.295459666481976     2.359206167329285
    N                0.392029825291023    -0.129540333518024     0.449206167329285
    N                1.792029825291023    -0.927540333518024     1.874206167329285
    H               -0.207970174708977    -0.061540333518024    -0.363793832670715
    H                1.308029825291023    -2.032540333518024     0.089206167329285
    H               -0.066970174708977     1.719459666481976     1.540206167329285
    H                1.906029825291023     1.936459666481976     3.604206167329286
    H                2.850029825291023     0.473459666481976     3.830206167329286
    H                1.188336825291023     0.557969666481976     4.503066167329285

}
e, wfn = energy('scf', return_wfn=True)
gdma(wfn)
dmavals = variable('DMA DISTRIBUTED MULTIPOLES')
charges = np.array(dmavals)
print(charges)
np.save('SSI-028GLU-072HIE-1-dimer.npy', np.array(charges))--------------------------------------------------------------------------

*** tstart() called on ds3
*** at Sun Apr 26 22:58:53 2020

   => Loading Basis Set <=

    Name: CC-PVDZ
    Role: ORBITAL
    Keyword: BASIS
    atoms 1-2, 8-11  entry C          line   138 file /theoryfs2/ds/metcalf/miniconda2/envs/tf2gpu/share/psi4/basis/cc-pvdz.gbs
    atoms 3-4        entry O          line   198 file /theoryfs2/ds/metcalf/miniconda2/envs/tf2gpu/share/psi4/basis/cc-pvdz.gbs
    atoms 5-7, 14-19 entry H          line    22 file /theoryfs2/ds/metcalf/miniconda2/envs/tf2gpu/share/psi4/basis/cc-pvdz.gbs
    atoms 12-13      entry N          line   168 file /theoryfs2/ds/metcalf/miniconda2/envs/tf2gpu/share/psi4/basis/cc-pvdz.gbs

         ---------------------------------------------------------
                                   SCF
               by Justin Turney, Rob Parrish, Andy Simmonett
                          and Daniel G. A. Smith
                              RHF Reference
                        1 Threads,    500 MiB Core
         ---------------------------------------------------------

  ==> Geometry <==

    Molecular point group: c1
    Full point group: C1

    Geometry (in Angstrom), charge = -1, multiplicity = 1:

       Center              X                  Y                   Z               Mass
    ------------   -----------------  -----------------  -----------------  -----------------
         C           -2.438970174709     0.863459666482    -3.288793832671    12.000000000000
         C           -1.580970174709    -0.002540333518    -2.397793832671    12.000000000000
         O           -1.560970174709     0.258459666482    -1.180793832671    15.994914619570
         O           -0.924970174709    -0.932540333518    -2.912793832671    15.994914619570
         H           -2.908970174709     1.658459666482    -2.704793832671     1.007825032230
         H           -3.244970174709     0.267459666482    -3.712793832671     1.007825032230
         H           -1.838893174709     1.330186666482    -4.083823832671     1.007825032230
         C            1.840029825291     0.849459666482     3.666206167329    12.000000000000
         C            1.183029825291    -1.155540333518     0.715206167329    12.000000000000
         C            0.477029825291     0.790459666482     1.464206167329    12.000000000000
         C            1.370029825291     0.295459666482     2.359206167329    12.000000000000
         N            0.392029825291    -0.129540333518     0.449206167329    14.003074004430
         N            1.792029825291    -0.927540333518     1.874206167329    14.003074004430
         H           -0.207970174709    -0.061540333518    -0.363793832671     1.007825032230
         H            1.308029825291    -2.032540333518     0.089206167329     1.007825032230
         H           -0.066970174709     1.719459666482     1.540206167329     1.007825032230
         H            1.906029825291     1.936459666482     3.604206167329     1.007825032230
         H            2.850029825291     0.473459666482     3.830206167329     1.007825032230
         H            1.188336825291     0.557969666482     4.503066167329     1.007825032230

  Running in c1 symmetry.

  Rotational constants: A =      0.13806  B =      0.01605  C =      0.01458 [cm^-1]
  Rotational constants: A =   4138.98930  B =    481.02138  C =    436.98215 [MHz]
  Nuclear repulsion =  487.356933362943892

  Charge       = -1
  Multiplicity = 1
  Electrons    = 76
  Nalpha       = 38
  Nbeta        = 38

  ==> Algorithm <==

  SCF Algorithm Type is PK.
  DIIS enabled.
  MOM disabled.
  Fractional occupation disabled.
  Guess Type is SAD.
  Energy threshold   = 1.00e-06
  Density threshold  = 1.00e-10
  Integral threshold = 0.00e+00

  ==> Primary Basis <==

  Basis Set: CC-PVDZ
    Blend: CC-PVDZ
    Number of shells: 87
    Number of basis function: 185
    Number of Cartesian functions: 195
    Spherical Harmonics?: true
    Max angular momentum: 2

  ==> Pre-Iterations <==

   -------------------------------------------------------
    Irrep   Nso     Nmo     Nalpha   Nbeta   Ndocc  Nsocc
   -------------------------------------------------------
     A        185     185       0       0       0       0
   -------------------------------------------------------
    Total     185     185      38      38      38       0
   -------------------------------------------------------

  ==> Integral Setup <==

  Using integral reordering PK algorithm.
  Sizing the integral batches needed.
  Building batch lookup table.
   Calculation information:
      Number of atoms:                  19
      Number of AO shells:              87
      Number of primitives:            265
      Number of atomic orbitals:       195
      Number of basis functions:       185

      Integral cutoff                 1.00e-12
      Number of threads:                 1

	Batch   1 pq = [       0,    9405] index = [             0,44231715] size =     44231715
	Batch   2 pq = [    9405,   13301] index = [      44231715,88464951] size =     44233236
	Batch   3 pq = [   13301,   16290] index = [      88464951,132690195] size =     44225244
	Batch   4 pq = [   16290,   17205] index = [     132690195,148014615] size =     15324420
  Task number: 14
  Buffer size: 11059200
  Buffer per thread: 2
  We computed 5143288 shell quartets total.
  Whereas there are 7328706 unique shell quartets.

  ==> DiskJK: Disk-Based J/K Matrices <==

    J tasked:                  Yes
    K tasked:                  Yes
    wK tasked:                  No
    Memory [MiB]:              375
    Schwarz Cutoff:          1E-12

    OpenMP threads:              1

  Minimum eigenvalue in the overlap matrix is 1.1869863082E-03.
  Using Symmetric Orthogonalization.

  SCF Guess: Superposition of Atomic Densities via on-the-fly atomic UHF.

  ==> Iterations <==

                        Total Energy        Delta E     RMS |[F,P]|

   @RHF iter SAD:  -489.89663863944878   -4.89897e+02   0.00000e+00
   @RHF iter   1:  -490.85744999381535   -9.60811e-01   4.08634e-03 DIIS
   @RHF iter   2:  -491.08220259506840   -2.24753e-01   2.24915e-03 DIIS
   @RHF iter   3:  -491.14681188635291   -6.46093e-02   3.84015e-04 DIIS
   @RHF iter   4:  -491.15001559883365   -3.20371e-03   1.48994e-04 DIIS
   @RHF iter   5:  -491.15048574108266   -4.70142e-04   3.27352e-05 DIIS
   @RHF iter   6:  -491.15050962630187   -2.38852e-05   1.36182e-05 DIIS
   @RHF iter   7:  -491.15051420425152   -4.57795e-06   3.35532e-06 DIIS
   @RHF iter   8:  -491.15051488970852   -6.85457e-07   1.73899e-06 DIIS
   @RHF iter   9:  -491.15051507296920   -1.83261e-07   7.14706e-07 DIIS
   @RHF iter  10:  -491.15051510993845   -3.69693e-08   2.02290e-07 DIIS
   @RHF iter  11:  -491.15051511265904   -2.72058e-09   4.69241e-08 DIIS
   @RHF iter  12:  -491.15051511275072   -9.16884e-11   2.19531e-08 DIIS
   @RHF iter  13:  -491.15051511276840   -1.76783e-11   6.94272e-09 DIIS
   @RHF iter  14:  -491.15051511276971   -1.30740e-12   2.85344e-09 DIIS
   @RHF iter  15:  -491.15051511276681    2.89901e-12   9.60529e-10 DIIS
   @RHF iter  16:  -491.15051511276931   -2.50111e-12   4.40805e-10 DIIS
   @RHF iter  17:  -491.15051511276954   -2.27374e-13   1.50261e-10 DIIS
   @RHF iter  18:  -491.15051511277017   -6.25278e-13   5.63189e-11 DIIS
  Energy and wave function converged.

  ==> Post-Iterations <==

    Orbital Energies [Eh]
    ---------------------

    Doubly Occupied:

       1A    -20.306292     2A    -20.293725     3A    -15.441891
       4A    -15.387726     5A    -11.152984     6A    -11.142980
       7A    -11.117861     8A    -11.108441     9A    -11.105093
      10A    -11.074652    11A     -1.199026    12A     -1.188227
      13A     -1.081617    14A     -1.002153    15A     -0.902011
      16A     -0.826267    17A     -0.813829    18A     -0.666421
      19A     -0.619439    20A     -0.600279    21A     -0.536130
      22A     -0.476336    23A     -0.473553    24A     -0.455459
      25A     -0.445279    26A     -0.443339    27A     -0.438118
      28A     -0.425962    29A     -0.413479    30A     -0.399933
      31A     -0.371395    32A     -0.344345    33A     -0.275448
      34A     -0.232421    35A     -0.223152    36A     -0.211451
      37A     -0.205198    38A     -0.171849

    Virtual:

      39A      0.301567    40A      0.326603    41A      0.333472
      42A      0.345605    43A      0.352543    44A      0.358374
      45A      0.370648    46A      0.380236    47A      0.398961
      48A      0.410218    49A      0.452609    50A      0.480446
      51A      0.493113    52A      0.534164    53A      0.548810
      54A      0.596967    55A      0.611925    56A      0.630689
      57A      0.682102    58A      0.734487    59A      0.738342
      60A      0.751006    61A      0.770891    62A      0.800060
      63A      0.810325    64A      0.829160    65A      0.838387
      66A      0.850142    67A      0.864920    68A      0.894405
      69A      0.914143    70A      0.921221    71A      0.947843
      72A      0.955037    73A      0.975326    74A      0.978332
      75A      0.986261    76A      1.005223    77A      1.012532
      78A      1.020448    79A      1.027988    80A      1.045464
      81A      1.064600    82A      1.083431    83A      1.094614
      84A      1.108784    85A      1.123776    86A      1.183545
      87A      1.207764    88A      1.210485    89A      1.230461
      90A      1.250667    91A      1.269431    92A      1.289800
      93A      1.298467    94A      1.315349    95A      1.350824
      96A      1.369561    97A      1.404740    98A      1.429154
      99A      1.452621   100A      1.464330   101A      1.502231
     102A      1.521403   103A      1.545980   104A      1.565323
     105A      1.580527   106A      1.586444   107A      1.603536
     108A      1.620909   109A      1.637850   110A      1.667958
     111A      1.694481   112A      1.741821   113A      1.750971
     114A      1.793085   115A      1.810830   116A      1.813428
     117A      1.823793   118A      1.844018   119A      1.890163
     120A      1.930447   121A      1.952667   122A      1.981049
     123A      1.993722   124A      2.005945   125A      2.043147
     126A      2.055275   127A      2.061593   128A      2.068625
     129A      2.080469   130A      2.086396   131A      2.089792
     132A      2.105362   133A      2.142907   134A      2.180861
     135A      2.189459   136A      2.205077   137A      2.235491
     138A      2.266427   139A      2.286937   140A      2.331985
     141A      2.335275   142A      2.363715   143A      2.368525
     144A      2.399735   145A      2.422934   146A      2.453325
     147A      2.471924   148A      2.510257   149A      2.549037
     150A      2.592238   151A      2.617154   152A      2.627435
     153A      2.635332   154A      2.696910   155A      2.748065
     156A      2.750301   157A      2.767680   158A      2.824480
     159A      2.853491   160A      2.879473   161A      2.894768
     162A      2.909373   163A      2.934748   164A      2.960087
     165A      2.970618   166A      2.979007   167A      3.000924
     168A      3.028768   169A      3.051788   170A      3.091074
     171A      3.213056   172A      3.223799   173A      3.240163
     174A      3.308040   175A      3.339006   176A      3.378530
     177A      3.515442   178A      3.603021   179A      3.631725
     180A      3.771803   181A      3.809743   182A      4.024631
     183A      4.041210   184A      4.103409   185A      4.182977

    Final Occupation by Irrep:
              A
    DOCC [    38 ]

  @RHF Final Energy:  -491.15051511277017

   => Energetics <=

    Nuclear Repulsion Energy =            487.3569333629438916
    One-Electron Energy =               -1649.8673692284512526
    Two-Electron Energy =                 671.3599207527371391
    Total Energy =                       -491.1505151127702220

Computation Completed

Properties will be evaluated at   0.000000,   0.000000,   0.000000 [a0]

Properties computed using the SCF density matrix

  Nuclear Dipole Moment: [e a0]
     X:    -0.9701      Y:     5.4834      Z:     2.5063

  Electronic Dipole Moment: [e a0]
     X:     1.3888      Y:    -4.2717      Z:    -0.9906

  Dipole Moment: [e a0]
     X:     0.4187      Y:     1.2117      Z:     1.5157     Total:     1.9852

  Dipole Moment: [D]
     X:     1.0642      Y:     3.0799      Z:     3.8526     Total:     5.0459

*** tstop() called on ds3 at Sun Apr 26 23:01:22 2020
Module time:
	user time   =      45.65 seconds =       0.76 minutes
	system time =      21.06 seconds =       0.35 minutes
	total time  =        149 seconds =       2.48 minutes
Total time:
	user time   =      45.65 seconds =       0.76 minutes
	system time =      21.06 seconds =       0.35 minutes
	total time  =        149 seconds =       2.48 minutes
                                     G D M A

                                 by Anthony Stone

                           version 2.2.06, 22 June 2011

               Distributed Multipoles from Gaussian wavefunctions

Starting at 23:1:22 on 26 Apr 2020

Using SCF density matrix from file ./SSI/SSI-028GLU-072HIE-1-dimer.test.19614.fchk

                         Distributed Multipole Analysis

Standard DMA

Positions and radii in angstrom
Multipole moments in atomic units, ea_0^k for rank k

C          x = -2.438970  y =  0.863460  z = -3.288794 angstrom
           Maximum rank =  0   Radius =  0.650 angstrom
                   Q00  =  -0.269087

C          x = -1.580970  y = -0.002540  z = -2.397794 angstrom
           Maximum rank =  0   Radius =  0.650 angstrom
                   Q00  =   0.927656

O          x = -1.560970  y =  0.258460  z = -1.180794 angstrom
           Maximum rank =  0   Radius =  0.650 angstrom
                   Q00  =  -0.932557

O          x = -0.924970  y = -0.932540  z = -2.912794 angstrom
           Maximum rank =  0   Radius =  0.650 angstrom
                   Q00  =  -0.905847

H          x = -2.908970  y =  1.658460  z = -2.704794 angstrom
           Maximum rank =  0   Radius =  0.325 angstrom
                   Q00  =   0.057973

H          x = -3.244970  y =  0.267460  z = -3.712794 angstrom
           Maximum rank =  0   Radius =  0.325 angstrom
                   Q00  =   0.083474

H          x = -1.838893  y =  1.330187  z = -4.083824 angstrom
           Maximum rank =  0   Radius =  0.325 angstrom
                   Q00  =   0.075986

C          x =  1.840030  y =  0.849460  z =  3.666206 angstrom
           Maximum rank =  0   Radius =  0.650 angstrom
                   Q00  =  -0.191872

C          x =  1.183030  y = -1.155540  z =  0.715206 angstrom
           Maximum rank =  0   Radius =  0.650 angstrom
                   Q00  =   0.477218

C          x =  0.477030  y =  0.790460  z =  1.464206 angstrom
           Maximum rank =  0   Radius =  0.650 angstrom
                   Q00  =   0.065186

C          x =  1.370030  y =  0.295460  z =  2.359206 angstrom
           Maximum rank =  0   Radius =  0.650 angstrom
                   Q00  =   0.166881

N          x =  0.392030  y = -0.129540  z =  0.449206 angstrom
           Maximum rank =  0   Radius =  0.650 angstrom
                   Q00  =  -0.527779

N          x =  1.792030  y = -0.927540  z =  1.874206 angstrom
           Maximum rank =  0   Radius =  0.650 angstrom
                   Q00  =  -0.803199

H          x = -0.207970  y = -0.061540  z = -0.363794 angstrom
           Maximum rank =  0   Radius =  0.325 angstrom
                   Q00  =   0.346103

H          x =  1.308030  y = -2.032540  z =  0.089206 angstrom
           Maximum rank =  0   Radius =  0.325 angstrom
                   Q00  =   0.110712

H          x = -0.066970  y =  1.719460  z =  1.540206 angstrom
           Maximum rank =  0   Radius =  0.325 angstrom
                   Q00  =   0.066896

H          x =  1.906030  y =  1.936460  z =  3.604206 angstrom
           Maximum rank =  0   Radius =  0.325 angstrom
                   Q00  =   0.077448

H          x =  2.850030  y =  0.473460  z =  3.830206 angstrom
           Maximum rank =  0   Radius =  0.325 angstrom
                   Q00  =   0.094249

H          x =  1.188337  y =  0.557970  z =  4.503066 angstrom
           Maximum rank =  0   Radius =  0.325 angstrom
                   Q00  =   0.080560

Total multipoles referred to origin at
           x =   0.000000,  y =    0.000000,  z =    0.000000 angstrom
                   Q00  =  -1.000000

Finished at 23:1:22 on 26 Apr 2020

  DMA results are available in the Python driver through the
	  variable('DMA DISTRIBUTED MULTIPOLES')
  and
	  variable('DMA TOTAL MULTIPOLES')
  commands.

    Psi4 stopped on: Sunday, 26 April 2020 11:01PM
    Psi4 wall time for execution: 0:02:28.81

*** Psi4 exiting successfully. Buy a developer a beer!
