                               Psi4 1.3.2 release

  ==> Input File <==

--------------------------------------------------------------------------
import numpy as np
set {scf_type pk
basis cc-pvdz
d_convergence 10
gdma_switch   0
gdma_limit    0
gdma_origin   [ 0.0,  0.0,  0.0 ]
}
molecule test {
    units Angstrom
    1 1
    --
    1 1
    C                1.694865660369605    -0.467445535478864     0.859155415846210
    C                0.481865660369605    -0.658445535478864    -1.305844584153791
    N               -0.559134339630395     0.023554464521136    -0.847844584153790
    N                1.538865660369605    -0.914445535478864    -0.529844584153790
    N                0.485865660369605    -1.051445535478864    -2.567844584153790
    H               -0.562134339630395     0.396554464521136     0.091155415846210
    H               -1.427134339630395     0.108554464521136    -1.379844584153791
    H                2.288865660369606    -1.478445535478864    -0.937844584153790
    H                1.294865660369605    -1.574445535478864    -2.918844584153790
    H               -0.300134339630395    -0.867445535478864    -3.163844584153791
    H                0.728865660369605    -0.304445535478864     1.338155415846209
    H                2.243865660369605     0.475554464521136     0.870155415846210
    H                2.252455660369606    -1.206615535478864     1.453058415846209
    C               -2.113134339630395     1.273554464521136     2.599155415846210
    O               -1.243134339630395     1.487554464521136     1.489155415846209
    H               -0.919134339630395     2.399554464521136     1.541155415846210
    H               -1.791134339630395     1.899554464521136     3.431155415846209
    H               -3.139404339630395     1.550654464521136     2.316341415846210
    H               -2.061154339630395     0.221704464521136     2.916805415846210

}
e, wfn = energy('scf', return_wfn=True)
gdma(wfn)
dmavals = variable('DMA DISTRIBUTED MULTIPOLES')
charges = np.array(dmavals)
print(charges)
np.save('SSI-156ARG-172THR-1-dimer.npy', np.array(charges))--------------------------------------------------------------------------

*** tstart() called on ds3
*** at Tue Apr 28 02:02:30 2020

   => Loading Basis Set <=

    Name: CC-PVDZ
    Role: ORBITAL
    Keyword: BASIS
    atoms 1-2, 14     entry C          line   138 file /theoryfs2/ds/metcalf/miniconda2/envs/tf2gpu/share/psi4/basis/cc-pvdz.gbs
    atoms 3-5         entry N          line   168 file /theoryfs2/ds/metcalf/miniconda2/envs/tf2gpu/share/psi4/basis/cc-pvdz.gbs
    atoms 6-13, 16-19 entry H          line    22 file /theoryfs2/ds/metcalf/miniconda2/envs/tf2gpu/share/psi4/basis/cc-pvdz.gbs
    atoms 15          entry O          line   198 file /theoryfs2/ds/metcalf/miniconda2/envs/tf2gpu/share/psi4/basis/cc-pvdz.gbs

         ---------------------------------------------------------
                                   SCF
               by Justin Turney, Rob Parrish, Andy Simmonett
                          and Daniel G. A. Smith
                              RHF Reference
                        1 Threads,    500 MiB Core
         ---------------------------------------------------------

  ==> Geometry <==

    Molecular point group: c1
    Full point group: C1

    Geometry (in Angstrom), charge = 1, multiplicity = 1:

       Center              X                  Y                   Z               Mass
    ------------   -----------------  -----------------  -----------------  -----------------
         C            1.694865660370    -0.467445535479     0.859155415846    12.000000000000
         C            0.481865660370    -0.658445535479    -1.305844584154    12.000000000000
         N           -0.559134339630     0.023554464521    -0.847844584154    14.003074004430
         N            1.538865660370    -0.914445535479    -0.529844584154    14.003074004430
         N            0.485865660370    -1.051445535479    -2.567844584154    14.003074004430
         H           -0.562134339630     0.396554464521     0.091155415846     1.007825032230
         H           -1.427134339630     0.108554464521    -1.379844584154     1.007825032230
         H            2.288865660370    -1.478445535479    -0.937844584154     1.007825032230
         H            1.294865660370    -1.574445535479    -2.918844584154     1.007825032230
         H           -0.300134339630    -0.867445535479    -3.163844584154     1.007825032230
         H            0.728865660370    -0.304445535479     1.338155415846     1.007825032230
         H            2.243865660370     0.475554464521     0.870155415846     1.007825032230
         H            2.252455660370    -1.206615535479     1.453058415846     1.007825032230
         C           -2.113134339630     1.273554464521     2.599155415846    12.000000000000
         O           -1.243134339630     1.487554464521     1.489155415846    15.994914619570
         H           -0.919134339630     2.399554464521     1.541155415846     1.007825032230
         H           -1.791134339630     1.899554464521     3.431155415846     1.007825032230
         H           -3.139404339630     1.550654464521     2.316341415846     1.007825032230
         H           -2.061154339630     0.221704464521     2.916805415846     1.007825032230

  Running in c1 symmetry.

  Rotational constants: A =      0.13264  B =      0.03411  C =      0.02809 [cm^-1]
  Rotational constants: A =   3976.49804  B =   1022.67939  C =    842.15743 [MHz]
  Nuclear repulsion =  324.155957531887907

  Charge       = 1
  Multiplicity = 1
  Electrons    = 58
  Nalpha       = 29
  Nbeta        = 29

  ==> Algorithm <==

  SCF Algorithm Type is PK.
  DIIS enabled.
  MOM disabled.
  Fractional occupation disabled.
  Guess Type is SAD.
  Energy threshold   = 1.00e-06
  Density threshold  = 1.00e-10
  Integral threshold = 0.00e+00

  ==> Primary Basis <==

  Basis Set: CC-PVDZ
    Blend: CC-PVDZ
    Number of shells: 78
    Number of basis function: 158
    Number of Cartesian functions: 165
    Spherical Harmonics?: true
    Max angular momentum: 2

  ==> Pre-Iterations <==

   -------------------------------------------------------
    Irrep   Nso     Nmo     Nalpha   Nbeta   Ndocc  Nsocc
   -------------------------------------------------------
     A        158     158       0       0       0       0
   -------------------------------------------------------
    Total     158     158      29      29      29       0
   -------------------------------------------------------

  ==> Integral Setup <==

  Using integral reordering PK algorithm.
  Sizing the integral batches needed.
  Building batch lookup table.
   Calculation information:
      Number of atoms:                  19
      Number of AO shells:              78
      Number of primitives:            214
      Number of atomic orbitals:       165
      Number of basis functions:       158

      Integral cutoff                 1.00e-12
      Number of threads:                 1

	Batch   1 pq = [       0,    9405] index = [             0,44231715] size =     44231715
	Batch   2 pq = [    9405,   12561] index = [      44231715,78895641] size =     34663926
  Task number: 8
  Buffer size: 11059200
  Buffer per thread: 2
  We computed 4150135 shell quartets total.
  Whereas there are 4747821 unique shell quartets.

  ==> DiskJK: Disk-Based J/K Matrices <==

    J tasked:                  Yes
    K tasked:                  Yes
    wK tasked:                  No
    Memory [MiB]:              375
    Schwarz Cutoff:          1E-12

    OpenMP threads:              1

  Minimum eigenvalue in the overlap matrix is 3.9997537038E-03.
  Using Symmetric Orthogonalization.

  SCF Guess: Superposition of Atomic Densities via on-the-fly atomic UHF.

  ==> Iterations <==

                        Total Energy        Delta E     RMS |[F,P]|

   @RHF iter SAD:  -357.81111322490983   -3.57811e+02   0.00000e+00
   @RHF iter   1:  -358.47478470712804   -6.63671e-01   3.56402e-03 DIIS
   @RHF iter   2:  -358.62387275707351   -1.49088e-01   1.50776e-03 DIIS
   @RHF iter   3:  -358.64754428850279   -2.36715e-02   3.77450e-04 DIIS
   @RHF iter   4:  -358.64987206114682   -2.32777e-03   9.20251e-05 DIIS
   @RHF iter   5:  -358.64999324418255   -1.21183e-04   2.46218e-05 DIIS
   @RHF iter   6:  -358.65000610082916   -1.28566e-05   6.95884e-06 DIIS
   @RHF iter   7:  -358.65000719560027   -1.09477e-06   1.94491e-06 DIIS
   @RHF iter   8:  -358.65000729697618   -1.01376e-07   5.79837e-07 DIIS
   @RHF iter   9:  -358.65000730406200   -7.08582e-09   9.66946e-08 DIIS
   @RHF iter  10:  -358.65000730429483   -2.32831e-10   3.77280e-08 DIIS
   @RHF iter  11:  -358.65000730432030   -2.54659e-11   8.57068e-09 DIIS
   @RHF iter  12:  -358.65000730432212   -1.81899e-12   3.07786e-09 DIIS
   @RHF iter  13:  -358.65000730432445   -2.33058e-12   1.01073e-09 DIIS
   @RHF iter  14:  -358.65000730432274    1.70530e-12   2.84274e-10 DIIS
   @RHF iter  15:  -358.65000730432206    6.82121e-13   9.66369e-11 DIIS
  Energy and wave function converged.

  ==> Post-Iterations <==

    Orbital Energies [Eh]
    ---------------------

    Doubly Occupied:

       1A    -20.697814     2A    -15.773929     3A    -15.772828
       4A    -15.757935     5A    -11.573086     6A    -11.425783
       7A    -11.398100     8A     -1.521565     9A     -1.492710
      10A     -1.382348    11A     -1.364943    12A     -1.123927
      13A     -1.045321    14A     -1.016186    15A     -0.951612
      16A     -0.925028    17A     -0.841821    18A     -0.833925
      19A     -0.812977    20A     -0.804107    21A     -0.778323
      22A     -0.745255    23A     -0.725665    24A     -0.720142
      25A     -0.706640    26A     -0.629274    27A     -0.594334
      28A     -0.580424    29A     -0.567797

    Virtual:

      30A      0.003417    31A      0.038305    32A      0.041134
      33A      0.046115    34A      0.071090    35A      0.092636
      36A      0.097654    37A      0.112665    38A      0.131853
      39A      0.138024    40A      0.162863    41A      0.186108
      42A      0.192422    43A      0.237586    44A      0.263662
      45A      0.291622    46A      0.347361    47A      0.355892
      48A      0.447316    49A      0.469018    50A      0.504180
      51A      0.521062    52A      0.533540    53A      0.543874
      54A      0.550993    55A      0.567375    56A      0.569113
      57A      0.578970    58A      0.606131    59A      0.673842
      60A      0.691882    61A      0.718288    62A      0.722002
      63A      0.732717    64A      0.746607    65A      0.761735
      66A      0.767354    67A      0.785088    68A      0.788364
      69A      0.819322    70A      0.824708    71A      0.846365
      72A      0.880502    73A      0.906760    74A      0.924053
      75A      0.993323    76A      1.008692    77A      1.032202
      78A      1.040582    79A      1.063233    80A      1.076722
      81A      1.122574    82A      1.152894    83A      1.159096
      84A      1.181051    85A      1.191243    86A      1.225511
      87A      1.234104    88A      1.296306    89A      1.300797
      90A      1.364405    91A      1.448975    92A      1.469205
      93A      1.514197    94A      1.534778    95A      1.546210
      96A      1.552328    97A      1.554823    98A      1.575943
      99A      1.601395   100A      1.634375   101A      1.661387
     102A      1.718042   103A      1.730483   104A      1.737994
     105A      1.745457   106A      1.759318   107A      1.777491
     108A      1.782910   109A      1.785688   110A      1.805223
     111A      1.821952   112A      1.829319   113A      1.863985
     114A      1.896432   115A      1.923298   116A      1.963421
     117A      1.998186   118A      2.020142   119A      2.031860
     120A      2.069718   121A      2.144912   122A      2.157212
     123A      2.167097   124A      2.196845   125A      2.248598
     126A      2.261826   127A      2.269230   128A      2.272956
     129A      2.306764   130A      2.337891   131A      2.364074
     132A      2.372851   133A      2.391795   134A      2.461779
     135A      2.466900   136A      2.555290   137A      2.603777
     138A      2.615343   139A      2.617233   140A      2.641112
     141A      2.655694   142A      2.670774   143A      2.728193
     144A      2.763534   145A      2.793783   146A      2.820161
     147A      2.868571   148A      2.897644   149A      3.085119
     150A      3.094491   151A      3.132966   152A      3.158311
     153A      3.231598   154A      3.314027   155A      3.439051
     156A      3.556109   157A      3.659690   158A      3.945098

    Final Occupation by Irrep:
              A
    DOCC [    29 ]

  @RHF Final Energy:  -358.65000730432206

   => Energetics <=

    Nuclear Repulsion Energy =            324.1559575318879070
    One-Electron Energy =               -1120.4843303656746230
    Two-Electron Energy =                 437.6783655294646564
    Total Energy =                       -358.6500073043220596

Computation Completed

Properties will be evaluated at   0.000000,   0.000000,   0.000000 [a0]

Properties computed using the SCF density matrix

  Nuclear Dipole Moment: [e a0]
     X:    -1.3145      Y:     1.5322      Z:     5.2287

  Electronic Dipole Moment: [e a0]
     X:     1.8572      Y:    -2.0300      Z:    -6.3917

  Dipole Moment: [e a0]
     X:     0.5427      Y:    -0.4979      Z:    -1.1630     Total:     1.3766

  Dipole Moment: [D]
     X:     1.3794      Y:    -1.2655      Z:    -2.9561     Total:     3.4990

*** tstop() called on ds3 at Tue Apr 28 02:03:05 2020
Module time:
	user time   =      25.57 seconds =       0.43 minutes
	system time =      10.29 seconds =       0.17 minutes
	total time  =         35 seconds =       0.58 minutes
Total time:
	user time   =      25.57 seconds =       0.43 minutes
	system time =      10.29 seconds =       0.17 minutes
	total time  =         35 seconds =       0.58 minutes
                                     G D M A

                                 by Anthony Stone

                           version 2.2.06, 22 June 2011

               Distributed Multipoles from Gaussian wavefunctions

Starting at 2:3:5 on 28 Apr 2020

Using SCF density matrix from file ./SSI/SSI-156ARG-172THR-1-dimer.test.10363.fchk

                         Distributed Multipole Analysis

Standard DMA

Positions and radii in angstrom
Multipole moments in atomic units, ea_0^k for rank k

C          x =  1.694866  y = -0.467446  z =  0.859155 angstrom
           Maximum rank =  0   Radius =  0.650 angstrom
                   Q00  =  -0.113876

C          x =  0.481866  y = -0.658446  z = -1.305845 angstrom
           Maximum rank =  0   Radius =  0.650 angstrom
                   Q00  =   1.081586

N          x = -0.559134  y =  0.023554  z = -0.847845 angstrom
           Maximum rank =  0   Radius =  0.650 angstrom
                   Q00  =  -0.612004

N          x =  1.538866  y = -0.914446  z = -0.529845 angstrom
           Maximum rank =  0   Radius =  0.650 angstrom
                   Q00  =  -0.503302

N          x =  0.485866  y = -1.051446  z = -2.567845 angstrom
           Maximum rank =  0   Radius =  0.650 angstrom
                   Q00  =  -0.595971

H          x = -0.562134  y =  0.396554  z =  0.091155 angstrom
           Maximum rank =  0   Radius =  0.325 angstrom
                   Q00  =   0.295535

H          x = -1.427134  y =  0.108554  z = -1.379845 angstrom
           Maximum rank =  0   Radius =  0.325 angstrom
                   Q00  =   0.262986

H          x =  2.288866  y = -1.478446  z = -0.937845 angstrom
           Maximum rank =  0   Radius =  0.325 angstrom
                   Q00  =   0.231577

H          x =  1.294866  y = -1.574446  z = -2.918845 angstrom
           Maximum rank =  0   Radius =  0.325 angstrom
                   Q00  =   0.263470

H          x = -0.300134  y = -0.867446  z = -3.163845 angstrom
           Maximum rank =  0   Radius =  0.325 angstrom
                   Q00  =   0.266021

H          x =  0.728866  y = -0.304446  z =  1.338155 angstrom
           Maximum rank =  0   Radius =  0.325 angstrom
                   Q00  =   0.117576

H          x =  2.243866  y =  0.475554  z =  0.870155 angstrom
           Maximum rank =  0   Radius =  0.325 angstrom
                   Q00  =   0.123342

H          x =  2.252456  y = -1.206616  z =  1.453058 angstrom
           Maximum rank =  0   Radius =  0.325 angstrom
                   Q00  =   0.149241

C          x = -2.113134  y =  1.273554  z =  2.599155 angstrom
           Maximum rank =  0   Radius =  0.650 angstrom
                   Q00  =  -0.071756

O          x = -1.243134  y =  1.487554  z =  1.489155 angstrom
           Maximum rank =  0   Radius =  0.650 angstrom
                   Q00  =  -0.647766

H          x = -0.919134  y =  2.399554  z =  1.541155 angstrom
           Maximum rank =  0   Radius =  0.325 angstrom
                   Q00  =   0.423773

H          x = -1.791134  y =  1.899554  z =  3.431155 angstrom
           Maximum rank =  0   Radius =  0.325 angstrom
                   Q00  =   0.106237

H          x = -3.139404  y =  1.550654  z =  2.316341 angstrom
           Maximum rank =  0   Radius =  0.325 angstrom
                   Q00  =   0.107837

H          x = -2.061154  y =  0.221704  z =  2.916805 angstrom
           Maximum rank =  0   Radius =  0.325 angstrom
                   Q00  =   0.115494

Total multipoles referred to origin at
           x =   0.000000,  y =    0.000000,  z =    0.000000 angstrom
                   Q00  =   1.000000

Finished at 2:3:5 on 28 Apr 2020

  DMA results are available in the Python driver through the
	  variable('DMA DISTRIBUTED MULTIPOLES')
  and
	  variable('DMA TOTAL MULTIPOLES')
  commands.

    Psi4 stopped on: Tuesday, 28 April 2020 02:03AM
    Psi4 wall time for execution: 0:00:35.31

*** Psi4 exiting successfully. Buy a developer a beer!
