                               Psi4 1.3.2 release

  ==> Input File <==

--------------------------------------------------------------------------
import numpy as np
set {scf_type pk
basis cc-pvdz
d_convergence 10
gdma_switch   0
gdma_limit    0
gdma_origin   [ 0.0,  0.0,  0.0 ]
}
molecule test {
    units Angstrom
    0 1
    --
    0 1
    C               -0.035567418766355    -0.556801832912110     1.641772562522605
    C               -0.534567418766355    -1.653801832912110     2.566772562522605
    H                0.755432581233645     0.012198167087890     2.121772562522604
    H                0.374432581233644    -1.026801832912110     0.747772562522605
    H               -0.843567418766355     0.102198167087890     1.338772562522605
    H               -1.265567418766355    -2.263801832912110     2.034772562522605
    H               -0.995927418766355    -1.207512832912110     3.460067562522605
    H                0.301542581233645    -2.300179832912109     2.871926562522605
    C                0.048432581233645     1.004198167087890    -1.388227437477395
    C                0.521432581233645     1.208198167087890    -2.818227437477395
    H                0.886432581233645     0.685198167087890    -0.769227437477395
    H               -0.333567418766355     1.945198167087890    -1.002227437477395
    H               -0.745567418766355     0.257198167087890    -1.355227437477395
    H               -0.340567418766356     1.531198167087890    -3.400227437477395
    H                0.911852581233645     0.257989167087890    -3.211516437477395
    H                1.298282581233644     1.985773167087890    -2.861546437477395

}
e, wfn = energy('scf', return_wfn=True)
gdma(wfn)
dmavals = variable('DMA DISTRIBUTED MULTIPOLES')
charges = np.array(dmavals)
print(charges)
np.save('SSI-140LEU-168LEU-1-dimer.npy', np.array(charges))--------------------------------------------------------------------------

*** tstart() called on ds3
*** at Tue Apr 28 13:13:59 2020

   => Loading Basis Set <=

    Name: CC-PVDZ
    Role: ORBITAL
    Keyword: BASIS
    atoms 1-2, 9-10  entry C          line   138 file /theoryfs2/ds/metcalf/miniconda2/envs/tf2gpu/share/psi4/basis/cc-pvdz.gbs
    atoms 3-8, 11-16 entry H          line    22 file /theoryfs2/ds/metcalf/miniconda2/envs/tf2gpu/share/psi4/basis/cc-pvdz.gbs

         ---------------------------------------------------------
                                   SCF
               by Justin Turney, Rob Parrish, Andy Simmonett
                          and Daniel G. A. Smith
                              RHF Reference
                        1 Threads,    500 MiB Core
         ---------------------------------------------------------

  ==> Geometry <==

    Molecular point group: c1
    Full point group: C1

    Geometry (in Angstrom), charge = 0, multiplicity = 1:

       Center              X                  Y                   Z               Mass
    ------------   -----------------  -----------------  -----------------  -----------------
         C           -0.035567418766    -0.556801832912     1.641772562523    12.000000000000
         C           -0.534567418766    -1.653801832912     2.566772562523    12.000000000000
         H            0.755432581234     0.012198167088     2.121772562523     1.007825032230
         H            0.374432581234    -1.026801832912     0.747772562523     1.007825032230
         H           -0.843567418766     0.102198167088     1.338772562523     1.007825032230
         H           -1.265567418766    -2.263801832912     2.034772562523     1.007825032230
         H           -0.995927418766    -1.207512832912     3.460067562523     1.007825032230
         H            0.301542581234    -2.300179832912     2.871926562523     1.007825032230
         C            0.048432581234     1.004198167088    -1.388227437477    12.000000000000
         C            0.521432581234     1.208198167088    -2.818227437477    12.000000000000
         H            0.886432581234     0.685198167088    -0.769227437477     1.007825032230
         H           -0.333567418766     1.945198167088    -1.002227437477     1.007825032230
         H           -0.745567418766     0.257198167088    -1.355227437477     1.007825032230
         H           -0.340567418766     1.531198167088    -3.400227437477     1.007825032230
         H            0.911852581234     0.257989167088    -3.211516437477     1.007825032230
         H            1.298282581234     1.985773167088    -2.861546437477     1.007825032230

  Running in c1 symmetry.

  Rotational constants: A =      0.91148  B =      0.04329  C =      0.04299 [cm^-1]
  Rotational constants: A =  27325.40153  B =   1297.81693  C =   1288.87718 [MHz]
  Nuclear repulsion =  122.256355282291153

  Charge       = 0
  Multiplicity = 1
  Electrons    = 36
  Nalpha       = 18
  Nbeta        = 18

  ==> Algorithm <==

  SCF Algorithm Type is PK.
  DIIS enabled.
  MOM disabled.
  Fractional occupation disabled.
  Guess Type is SAD.
  Energy threshold   = 1.00e-06
  Density threshold  = 1.00e-10
  Integral threshold = 0.00e+00

  ==> Primary Basis <==

  Basis Set: CC-PVDZ
    Blend: CC-PVDZ
    Number of shells: 60
    Number of basis function: 116
    Number of Cartesian functions: 120
    Spherical Harmonics?: true
    Max angular momentum: 2

  ==> Pre-Iterations <==

   -------------------------------------------------------
    Irrep   Nso     Nmo     Nalpha   Nbeta   Ndocc  Nsocc
   -------------------------------------------------------
     A        116     116       0       0       0       0
   -------------------------------------------------------
    Total     116     116      18      18      18       0
   -------------------------------------------------------

  ==> Integral Setup <==

  Using integral reordering PK algorithm.
  Sizing the integral batches needed.
  Building batch lookup table.
   Calculation information:
      Number of atoms:                  16
      Number of AO shells:              60
      Number of primitives:            148
      Number of atomic orbitals:       120
      Number of basis functions:       116

      Integral cutoff                 1.00e-12
      Number of threads:                 1

	Batch   1 pq = [       0,    6786] index = [             0,23028291] size =     23028291
  Task number: 3
  Buffer size: 11059200
  Buffer per thread: 2
  We computed 1398255 shell quartets total.
  Whereas there are 1675365 unique shell quartets.

  ==> DiskJK: Disk-Based J/K Matrices <==

    J tasked:                  Yes
    K tasked:                  Yes
    wK tasked:                  No
    Memory [MiB]:              375
    Schwarz Cutoff:          1E-12

    OpenMP threads:              1

  Minimum eigenvalue in the overlap matrix is 5.6205079989E-03.
  Using Symmetric Orthogonalization.

  SCF Guess: Superposition of Atomic Densities via on-the-fly atomic UHF.

  ==> Iterations <==

                        Total Energy        Delta E     RMS |[F,P]|

   @RHF iter SAD:  -157.40553400515455   -1.57406e+02   0.00000e+00
   @RHF iter   1:  -158.30333488803564   -8.97801e-01   4.24705e-03 DIIS
   @RHF iter   2:  -158.43900742907732   -1.35673e-01   1.80155e-03 DIIS
   @RHF iter   3:  -158.46256164148588   -2.35542e-02   3.53278e-04 DIIS
   @RHF iter   4:  -158.46442767971439   -1.86604e-03   3.97679e-05 DIIS
   @RHF iter   5:  -158.46445237879061   -2.46991e-05   7.40575e-06 DIIS
   @RHF iter   6:  -158.46445313448569   -7.55695e-07   1.51466e-06 DIIS
   @RHF iter   7:  -158.46445315552657   -2.10409e-08   3.28461e-07 DIIS
   @RHF iter   8:  -158.46445315665699   -1.13042e-09   4.34087e-08 DIIS
   @RHF iter   9:  -158.46445315669058   -3.35945e-11   8.32357e-09 DIIS
   @RHF iter  10:  -158.46445315669183   -1.25056e-12   2.17805e-09 DIIS
   @RHF iter  11:  -158.46445315669229   -4.54747e-13   5.64248e-10 DIIS
   @RHF iter  12:  -158.46445315669203    2.55795e-13   1.44627e-10 DIIS
   @RHF iter  13:  -158.46445315669203    0.00000e+00   2.37537e-11 DIIS
  Energy and wave function converged.

  ==> Post-Iterations <==

    Orbital Energies [Eh]
    ---------------------

    Doubly Occupied:

       1A    -11.217360     2A    -11.217265     3A    -11.213609
       4A    -11.213140     5A     -1.021814     6A     -1.018326
       7A     -0.839753     8A     -0.828637     9A     -0.602852
      10A     -0.600842    11A     -0.597381    12A     -0.595555
      13A     -0.508356    14A     -0.494667    15A     -0.488504
      16A     -0.484997    17A     -0.482743    18A     -0.475040

    Virtual:

      19A      0.177185    20A      0.194729    21A      0.226032
      22A      0.238446    23A      0.245219    24A      0.262493
      25A      0.266486    26A      0.275080    27A      0.286062
      28A      0.295058    29A      0.299014    30A      0.304590
      31A      0.386134    32A      0.423592    33A      0.569491
      34A      0.598177    35A      0.601486    36A      0.606920
      37A      0.609478    38A      0.653441    39A      0.662795
      40A      0.698605    41A      0.705155    42A      0.780976
      43A      0.852245    44A      0.885859    45A      0.892476
      46A      0.894778    47A      0.895172    48A      0.897058
      49A      0.911833    50A      0.913443    51A      0.913986
      52A      0.921705    53A      0.926821    54A      0.954474
      55A      0.961711    56A      0.998493    57A      1.125001
      58A      1.129324    59A      1.136820    60A      1.169843
      61A      1.219219    62A      1.275916    63A      1.468541
      64A      1.474645    65A      1.492293    66A      1.497925
      67A      1.580339    68A      1.585310    69A      1.676375
      70A      1.680583    71A      1.693686    72A      1.696712
      73A      1.840417    74A      1.859904    75A      1.871194
      76A      1.888664    77A      1.911875    78A      1.930870
      79A      1.938437    80A      1.945258    81A      1.945830
      82A      1.952705    83A      1.957556    84A      1.959244
      85A      1.967799    86A      1.984966    87A      2.023398
      88A      2.061761    89A      2.095465    90A      2.101920
      91A      2.122770    92A      2.130328    93A      2.297436
      94A      2.305778    95A      2.324245    96A      2.337007
      97A      2.452357    98A      2.463292    99A      2.478760
     100A      2.491654   101A      2.561796   102A      2.566234
     103A      2.581030   104A      2.589597   105A      2.760126
     106A      2.766930   107A      2.789676   108A      2.807402
     109A      2.841633   110A      2.848452   111A      2.854504
     112A      2.864499   113A      2.943737   114A      2.950895
     115A      2.965979   116A      2.972748

    Final Occupation by Irrep:
              A
    DOCC [    18 ]

  @RHF Final Energy:  -158.46445315669203

   => Energetics <=

    Nuclear Repulsion Energy =            122.2563552822911532
    One-Electron Energy =                -453.6399344701596874
    Two-Electron Energy =                 172.9191260311764893
    Total Energy =                       -158.4644531566920307

Computation Completed

Properties will be evaluated at   0.000000,   0.000000,   0.000000 [a0]

Properties computed using the SCF density matrix

  Nuclear Dipole Moment: [e a0]
     X:     0.0030      Y:    -0.0200      Z:    -0.0233

  Electronic Dipole Moment: [e a0]
     X:    -0.0042      Y:     0.0287      Z:     0.0200

  Dipole Moment: [e a0]
     X:    -0.0011      Y:     0.0087      Z:    -0.0034     Total:     0.0094

  Dipole Moment: [D]
     X:    -0.0029      Y:     0.0220      Z:    -0.0085     Total:     0.0238

*** tstop() called on ds3 at Tue Apr 28 13:14:23 2020
Module time:
	user time   =       7.72 seconds =       0.13 minutes
	system time =       2.76 seconds =       0.05 minutes
	total time  =         24 seconds =       0.40 minutes
Total time:
	user time   =       7.72 seconds =       0.13 minutes
	system time =       2.76 seconds =       0.05 minutes
	total time  =         24 seconds =       0.40 minutes
                                     G D M A

                                 by Anthony Stone

                           version 2.2.06, 22 June 2011

               Distributed Multipoles from Gaussian wavefunctions

Starting at 13:14:23 on 28 Apr 2020

Using SCF density matrix from file ./SSI/SSI-140LEU-168LEU-1-dimer.test.15830.fchk

                         Distributed Multipole Analysis

Standard DMA

Positions and radii in angstrom
Multipole moments in atomic units, ea_0^k for rank k

C          x = -0.035567  y = -0.556802  z =  1.641773 angstrom
           Maximum rank =  0   Radius =  0.650 angstrom
                   Q00  =  -0.231735

C          x = -0.534567  y = -1.653802  z =  2.566773 angstrom
           Maximum rank =  0   Radius =  0.650 angstrom
                   Q00  =  -0.231262

H          x =  0.755433  y =  0.012198  z =  2.121773 angstrom
           Maximum rank =  0   Radius =  0.325 angstrom
                   Q00  =   0.078572

H          x =  0.374433  y = -1.026802  z =  0.747773 angstrom
           Maximum rank =  0   Radius =  0.325 angstrom
                   Q00  =   0.072298

H          x = -0.843567  y =  0.102198  z =  1.338773 angstrom
           Maximum rank =  0   Radius =  0.325 angstrom
                   Q00  =   0.081177

H          x = -1.265567  y = -2.263802  z =  2.034773 angstrom
           Maximum rank =  0   Radius =  0.325 angstrom
                   Q00  =   0.078043

H          x = -0.995927  y = -1.207513  z =  3.460068 angstrom
           Maximum rank =  0   Radius =  0.325 angstrom
                   Q00  =   0.077115

H          x =  0.301543  y = -2.300180  z =  2.871927 angstrom
           Maximum rank =  0   Radius =  0.325 angstrom
                   Q00  =   0.077675

C          x =  0.048433  y =  1.004198  z = -1.388227 angstrom
           Maximum rank =  0   Radius =  0.650 angstrom
                   Q00  =  -0.228338

C          x =  0.521433  y =  1.208198  z = -2.818227 angstrom
           Maximum rank =  0   Radius =  0.650 angstrom
                   Q00  =  -0.238873

H          x =  0.886433  y =  0.685198  z = -0.769227 angstrom
           Maximum rank =  0   Radius =  0.325 angstrom
                   Q00  =   0.078832

H          x = -0.333567  y =  1.945198  z = -1.002227 angstrom
           Maximum rank =  0   Radius =  0.325 angstrom
                   Q00  =   0.077111

H          x = -0.745567  y =  0.257198  z = -1.355227 angstrom
           Maximum rank =  0   Radius =  0.325 angstrom
                   Q00  =   0.076273

H          x = -0.340567  y =  1.531198  z = -3.400227 angstrom
           Maximum rank =  0   Radius =  0.325 angstrom
                   Q00  =   0.076731

H          x =  0.911853  y =  0.257989  z = -3.211516 angstrom
           Maximum rank =  0   Radius =  0.325 angstrom
                   Q00  =   0.077222

H          x =  1.298283  y =  1.985773  z = -2.861546 angstrom
           Maximum rank =  0   Radius =  0.325 angstrom
                   Q00  =   0.079158

Total multipoles referred to origin at
           x =   0.000000,  y =    0.000000,  z =    0.000000 angstrom
                   Q00  =  -0.000000

Finished at 13:14:23 on 28 Apr 2020

  DMA results are available in the Python driver through the
	  variable('DMA DISTRIBUTED MULTIPOLES')
  and
	  variable('DMA TOTAL MULTIPOLES')
  commands.

    Psi4 stopped on: Tuesday, 28 April 2020 01:14PM
    Psi4 wall time for execution: 0:00:24.71

*** Psi4 exiting successfully. Buy a developer a beer!
