                               Psi4 1.3.2 release

  ==> Input File <==

--------------------------------------------------------------------------
import numpy as np
set {scf_type pk
basis cc-pvdz
d_convergence 10
gdma_switch   0
gdma_limit    0
gdma_origin   [ 0.0,  0.0,  0.0 ]
}
molecule test {
    units Angstrom
    1 1
    --
    1 1
    C                2.346303795584257    -0.994531310321951     1.323440705018234
    C                1.314303795584257     0.117468689678049     1.322440705018234
    O                0.755303795584257     0.475468689678049     0.290440705018234
    N                1.051303795584257     0.675468689678049     2.490440705018234
    H                2.051303795584257    -1.723531310321951     2.079440705018234
    H                3.310303795584256    -0.578531310321951     1.619440705018234
    H                0.374303795584257     1.420468689678049     2.527440705018234
    H                1.512303795584257     0.347468689678049     3.326440705018234
    H                2.426643795584257    -1.507401310321951     0.353640705018234
    C               -1.654696204415743    -0.227531310321951    -1.202559294981766
    C               -2.916696204415743    -0.718531310321951    -1.892559294981766
    N               -0.793696204415743     0.557468689678049    -2.119559294981766
    H               -1.935696204415743     0.385468689678049    -0.337559294981766
    H               -1.096696204415743    -1.092531310321951    -0.826559294981766
    H               -2.669696204415744    -1.250531310321951    -2.813559294981766
    H               -3.538696204415743     0.149468689678049    -2.122559294981766
    H               -1.271696204415743     1.386468689678049    -2.469559294981766
    H                0.041303795584257     0.885468689678049    -1.628559294981766
    H               -0.464696204415743     0.005468689678049    -2.902559294981766
    H               -3.460936204415744    -1.397011310321951    -1.219159294981766

}
e, wfn = energy('scf', return_wfn=True)
gdma(wfn)
dmavals = variable('DMA DISTRIBUTED MULTIPOLES')
charges = np.array(dmavals)
print(charges)
np.save('SSI-020ASN-040LYS-1-dimer.npy', np.array(charges))--------------------------------------------------------------------------

*** tstart() called on ds3
*** at Mon Apr 27 17:48:47 2020

   => Loading Basis Set <=

    Name: CC-PVDZ
    Role: ORBITAL
    Keyword: BASIS
    atoms 1-2, 10-11 entry C          line   138 file /theoryfs2/ds/metcalf/miniconda2/envs/tf2gpu/share/psi4/basis/cc-pvdz.gbs
    atoms 3          entry O          line   198 file /theoryfs2/ds/metcalf/miniconda2/envs/tf2gpu/share/psi4/basis/cc-pvdz.gbs
    atoms 4, 12      entry N          line   168 file /theoryfs2/ds/metcalf/miniconda2/envs/tf2gpu/share/psi4/basis/cc-pvdz.gbs
    atoms 5-9, 13-20 entry H          line    22 file /theoryfs2/ds/metcalf/miniconda2/envs/tf2gpu/share/psi4/basis/cc-pvdz.gbs

         ---------------------------------------------------------
                                   SCF
               by Justin Turney, Rob Parrish, Andy Simmonett
                          and Daniel G. A. Smith
                              RHF Reference
                        1 Threads,    500 MiB Core
         ---------------------------------------------------------

  ==> Geometry <==

    Molecular point group: c1
    Full point group: C1

    Geometry (in Angstrom), charge = 1, multiplicity = 1:

       Center              X                  Y                   Z               Mass
    ------------   -----------------  -----------------  -----------------  -----------------
         C            2.346303795584    -0.994531310322     1.323440705018    12.000000000000
         C            1.314303795584     0.117468689678     1.322440705018    12.000000000000
         O            0.755303795584     0.475468689678     0.290440705018    15.994914619570
         N            1.051303795584     0.675468689678     2.490440705018    14.003074004430
         H            2.051303795584    -1.723531310322     2.079440705018     1.007825032230
         H            3.310303795584    -0.578531310322     1.619440705018     1.007825032230
         H            0.374303795584     1.420468689678     2.527440705018     1.007825032230
         H            1.512303795584     0.347468689678     3.326440705018     1.007825032230
         H            2.426643795584    -1.507401310322     0.353640705018     1.007825032230
         C           -1.654696204416    -0.227531310322    -1.202559294982    12.000000000000
         C           -2.916696204416    -0.718531310322    -1.892559294982    12.000000000000
         N           -0.793696204416     0.557468689678    -2.119559294982    14.003074004430
         H           -1.935696204416     0.385468689678    -0.337559294982     1.007825032230
         H           -1.096696204416    -1.092531310322    -0.826559294982     1.007825032230
         H           -2.669696204416    -1.250531310322    -2.813559294982     1.007825032230
         H           -3.538696204416     0.149468689678    -2.122559294982     1.007825032230
         H           -1.271696204416     1.386468689678    -2.469559294982     1.007825032230
         H            0.041303795584     0.885468689678    -1.628559294982     1.007825032230
         H           -0.464696204416     0.005468689678    -2.902559294982     1.007825032230
         H           -3.460936204416    -1.397011310322    -1.219159294982     1.007825032230

  Running in c1 symmetry.

  Rotational constants: A =      0.15630  B =      0.02737  C =      0.02679 [cm^-1]
  Rotational constants: A =   4685.63776  B =    820.64093  C =    803.17401 [MHz]
  Nuclear repulsion =  316.080621222765103

  Charge       = 1
  Multiplicity = 1
  Electrons    = 58
  Nalpha       = 29
  Nbeta        = 29

  ==> Algorithm <==

  SCF Algorithm Type is PK.
  DIIS enabled.
  MOM disabled.
  Fractional occupation disabled.
  Guess Type is SAD.
  Energy threshold   = 1.00e-06
  Density threshold  = 1.00e-10
  Integral threshold = 0.00e+00

  ==> Primary Basis <==

  Basis Set: CC-PVDZ
    Blend: CC-PVDZ
    Number of shells: 81
    Number of basis function: 163
    Number of Cartesian functions: 170
    Spherical Harmonics?: true
    Max angular momentum: 2

  ==> Pre-Iterations <==

   -------------------------------------------------------
    Irrep   Nso     Nmo     Nalpha   Nbeta   Ndocc  Nsocc
   -------------------------------------------------------
     A        163     163       0       0       0       0
   -------------------------------------------------------
    Total     163     163      29      29      29       0
   -------------------------------------------------------

  ==> Integral Setup <==

  Using integral reordering PK algorithm.
  Sizing the integral batches needed.
  Building batch lookup table.
   Calculation information:
      Number of atoms:                  20
      Number of AO shells:              81
      Number of primitives:            219
      Number of atomic orbitals:       170
      Number of basis functions:       163

      Integral cutoff                 1.00e-12
      Number of threads:                 1

	Batch   1 pq = [       0,    9405] index = [             0,44231715] size =     44231715
	Batch   2 pq = [    9405,   13366] index = [      44231715,89331661] size =     45099946
  Task number: 9
  Buffer size: 11059200
  Buffer per thread: 2
  We computed 4583746 shell quartets total.
  Whereas there are 5516181 unique shell quartets.

  ==> DiskJK: Disk-Based J/K Matrices <==

    J tasked:                  Yes
    K tasked:                  Yes
    wK tasked:                  No
    Memory [MiB]:              375
    Schwarz Cutoff:          1E-12

    OpenMP threads:              1

  Minimum eigenvalue in the overlap matrix is 4.7270808056E-03.
  Using Symmetric Orthogonalization.

  SCF Guess: Superposition of Atomic Densities via on-the-fly atomic UHF.

  ==> Iterations <==

                        Total Energy        Delta E     RMS |[F,P]|

   @RHF iter SAD:  -341.81345710582696   -3.41813e+02   0.00000e+00
   @RHF iter   1:  -342.44347677421149   -6.30020e-01   3.81738e-03 DIIS
   @RHF iter   2:  -342.62208868149679   -1.78612e-01   1.86603e-03 DIIS
   @RHF iter   3:  -342.65823714619654   -3.61485e-02   4.82205e-04 DIIS
   @RHF iter   4:  -342.66175499888186   -3.51785e-03   1.70011e-04 DIIS
   @RHF iter   5:  -342.66220161830290   -4.46619e-04   2.86840e-05 DIIS
   @RHF iter   6:  -342.66222516776463   -2.35495e-05   1.10823e-05 DIIS
   @RHF iter   7:  -342.66222777250033   -2.60474e-06   3.45995e-06 DIIS
   @RHF iter   8:  -342.66222824134587   -4.68846e-07   1.20001e-06 DIIS
   @RHF iter   9:  -342.66222829683687   -5.54910e-08   3.56104e-07 DIIS
   @RHF iter  10:  -342.66222830190753   -5.07066e-09   1.13586e-07 DIIS
   @RHF iter  11:  -342.66222830233005   -4.22517e-10   3.03944e-08 DIIS
   @RHF iter  12:  -342.66222830235580   -2.57501e-11   7.23862e-09 DIIS
   @RHF iter  13:  -342.66222830235694   -1.13687e-12   1.62207e-09 DIIS
   @RHF iter  14:  -342.66222830235887   -1.93268e-12   6.86240e-10 DIIS
   @RHF iter  15:  -342.66222830236006   -1.19371e-12   2.05902e-10 DIIS
   @RHF iter  16:  -342.66222830235876    1.30740e-12   8.52532e-11 DIIS
  Energy and wave function converged.

  ==> Post-Iterations <==

    Orbital Energies [Eh]
    ---------------------

    Doubly Occupied:

       1A    -20.648060     2A    -15.864191     3A    -15.711570
       4A    -11.483761     5A    -11.447690     6A    -11.382751
       7A    -11.356522     8A     -1.512680     9A     -1.484657
      10A     -1.345727    11A     -1.192432    12A     -1.118232
      13A     -1.026163    14A     -0.946578    15A     -0.934459
      16A     -0.914913    17A     -0.850507    18A     -0.829510
      19A     -0.792027    20A     -0.769901    21A     -0.737645
      22A     -0.707830    23A     -0.696497    24A     -0.675829
      25A     -0.675206    26A     -0.660459    27A     -0.645647
      28A     -0.552944    29A     -0.541127

    Virtual:

      30A     -0.012755    31A      0.040725    32A      0.047323
      33A      0.063511    34A      0.071409    35A      0.094188
      36A      0.094826    37A      0.112817    38A      0.125079
      39A      0.135049    40A      0.141016    41A      0.142859
      42A      0.161281    43A      0.169815    44A      0.193774
      45A      0.246412    46A      0.267783    47A      0.344463
      48A      0.406720    49A      0.421759    50A      0.427935
      51A      0.461151    52A      0.473451    53A      0.476072
      54A      0.519490    55A      0.527155    56A      0.580591
      57A      0.596306    58A      0.618743    59A      0.624342
      60A      0.637014    61A      0.655837    62A      0.671137
      63A      0.705541    64A      0.717623    65A      0.725355
      66A      0.733089    67A      0.736047    68A      0.738336
      69A      0.751401    70A      0.775300    71A      0.791740
      72A      0.796449    73A      0.814676    74A      0.823154
      75A      0.843738    76A      0.876194    77A      0.887865
      78A      0.900855    79A      0.943300    80A      0.954019
      81A      0.962998    82A      1.012597    83A      1.039629
      84A      1.136021    85A      1.191459    86A      1.217010
      87A      1.256266    88A      1.267901    89A      1.285057
      90A      1.293586    91A      1.317302    92A      1.345414
      93A      1.366847    94A      1.410513    95A      1.434359
      96A      1.499367    97A      1.524386    98A      1.537340
      99A      1.543751   100A      1.550835   101A      1.592369
     102A      1.629739   103A      1.685644   104A      1.701336
     105A      1.705933   106A      1.729249   107A      1.756057
     108A      1.765936   109A      1.774036   110A      1.783557
     111A      1.783896   112A      1.795310   113A      1.799875
     114A      1.824348   115A      1.833216   116A      1.865708
     117A      1.905369   118A      1.912963   119A      1.930745
     120A      1.946044   121A      1.969809   122A      1.974522
     123A      1.994538   124A      2.008967   125A      2.031566
     126A      2.099599   127A      2.134499   128A      2.145420
     129A      2.188793   130A      2.193872   131A      2.231369
     132A      2.286814   133A      2.325404   134A      2.331481
     135A      2.362560   136A      2.382792   137A      2.397693
     138A      2.445642   139A      2.463915   140A      2.469989
     141A      2.493480   142A      2.560774   143A      2.568046
     144A      2.580396   145A      2.616462   146A      2.629753
     147A      2.648716   148A      2.676548   149A      2.688067
     150A      2.753335   151A      2.781339   152A      2.821944
     153A      2.865600   154A      2.883883   155A      2.958167
     156A      2.994021   157A      3.134080   158A      3.168144
     159A      3.178404   160A      3.366311   161A      3.408304
     162A      3.735740   163A      3.826339

    Final Occupation by Irrep:
              A
    DOCC [    29 ]

  @RHF Final Energy:  -342.66222830235876

   => Energetics <=

    Nuclear Repulsion Energy =            316.0806212227651031
    One-Electron Energy =               -1082.4746681254014220
    Two-Electron Energy =                 423.7318186002775633
    Total Energy =                       -342.6622283023587556

Computation Completed

Properties will be evaluated at   0.000000,   0.000000,   0.000000 [a0]

Properties computed using the SCF density matrix

  Nuclear Dipole Moment: [e a0]
     X:    -4.4238      Y:    -2.7849      Z:    -4.1374

  Electronic Dipole Moment: [e a0]
     X:     3.5637      Y:     3.1702      Z:     2.6780

  Dipole Moment: [e a0]
     X:    -0.8601      Y:     0.3853      Z:    -1.4594     Total:     1.7372

  Dipole Moment: [D]
     X:    -2.1861      Y:     0.9794      Z:    -3.7094     Total:     4.4156

*** tstop() called on ds3 at Mon Apr 27 17:49:30 2020
Module time:
	user time   =      28.26 seconds =       0.47 minutes
	system time =      12.34 seconds =       0.21 minutes
	total time  =         43 seconds =       0.72 minutes
Total time:
	user time   =      28.26 seconds =       0.47 minutes
	system time =      12.34 seconds =       0.21 minutes
	total time  =         43 seconds =       0.72 minutes
                                     G D M A

                                 by Anthony Stone

                           version 2.2.06, 22 June 2011

               Distributed Multipoles from Gaussian wavefunctions

Starting at 17:49:30 on 27 Apr 2020

Using SCF density matrix from file ./SSI/SSI-020ASN-040LYS-1-dimer.test.11908.fchk

                         Distributed Multipole Analysis

Standard DMA

Positions and radii in angstrom
Multipole moments in atomic units, ea_0^k for rank k

C          x =  2.346304  y = -0.994531  z =  1.323441 angstrom
           Maximum rank =  0   Radius =  0.650 angstrom
                   Q00  =  -0.263112

C          x =  1.314304  y =  0.117469  z =  1.322441 angstrom
           Maximum rank =  0   Radius =  0.650 angstrom
                   Q00  =   0.823836

O          x =  0.755304  y =  0.475469  z =  0.290441 angstrom
           Maximum rank =  0   Radius =  0.650 angstrom
                   Q00  =  -0.845642

N          x =  1.051304  y =  0.675469  z =  2.490441 angstrom
           Maximum rank =  0   Radius =  0.650 angstrom
                   Q00  =  -0.539406

H          x =  2.051304  y = -1.723531  z =  2.079441 angstrom
           Maximum rank =  0   Radius =  0.325 angstrom
                   Q00  =   0.117609

H          x =  3.310304  y = -0.578531  z =  1.619441 angstrom
           Maximum rank =  0   Radius =  0.325 angstrom
                   Q00  =   0.136406

H          x =  0.374304  y =  1.420469  z =  2.527441 angstrom
           Maximum rank =  0   Radius =  0.325 angstrom
                   Q00  =   0.232564

H          x =  1.512304  y =  0.347469  z =  3.326441 angstrom
           Maximum rank =  0   Radius =  0.325 angstrom
                   Q00  =   0.235090

H          x =  2.426644  y = -1.507401  z =  0.353641 angstrom
           Maximum rank =  0   Radius =  0.325 angstrom
                   Q00  =   0.127129

C          x = -1.654696  y = -0.227531  z = -1.202559 angstrom
           Maximum rank =  0   Radius =  0.650 angstrom
                   Q00  =   0.002805

C          x = -2.916696  y = -0.718531  z = -1.892559 angstrom
           Maximum rank =  0   Radius =  0.650 angstrom
                   Q00  =  -0.235793

N          x = -0.793696  y =  0.557469  z = -2.119559 angstrom
           Maximum rank =  0   Radius =  0.650 angstrom
                   Q00  =  -0.149754

H          x = -1.935696  y =  0.385469  z = -0.337559 angstrom
           Maximum rank =  0   Radius =  0.325 angstrom
                   Q00  =   0.122794

H          x = -1.096696  y = -1.092531  z = -0.826559 angstrom
           Maximum rank =  0   Radius =  0.325 angstrom
                   Q00  =   0.120721

H          x = -2.669696  y = -1.250531  z = -2.813559 angstrom
           Maximum rank =  0   Radius =  0.325 angstrom
                   Q00  =   0.098258

H          x = -3.538696  y =  0.149469  z = -2.122559 angstrom
           Maximum rank =  0   Radius =  0.325 angstrom
                   Q00  =   0.100924

H          x = -1.271696  y =  1.386469  z = -2.469559 angstrom
           Maximum rank =  0   Radius =  0.325 angstrom
                   Q00  =   0.243450

H          x =  0.041304  y =  0.885469  z = -1.628559 angstrom
           Maximum rank =  0   Radius =  0.325 angstrom
                   Q00  =   0.283808

H          x = -0.464696  y =  0.005469  z = -2.902559 angstrom
           Maximum rank =  0   Radius =  0.325 angstrom
                   Q00  =   0.244303

H          x = -3.460936  y = -1.397011  z = -1.219159 angstrom
           Maximum rank =  0   Radius =  0.325 angstrom
                   Q00  =   0.144008

Total multipoles referred to origin at
           x =   0.000000,  y =    0.000000,  z =    0.000000 angstrom
                   Q00  =   1.000000

Finished at 17:49:30 on 27 Apr 2020

  DMA results are available in the Python driver through the
	  variable('DMA DISTRIBUTED MULTIPOLES')
  and
	  variable('DMA TOTAL MULTIPOLES')
  commands.

    Psi4 stopped on: Monday, 27 April 2020 05:49PM
    Psi4 wall time for execution: 0:00:43.59

*** Psi4 exiting successfully. Buy a developer a beer!
