                               Psi4 1.3.2 release

  ==> Input File <==

--------------------------------------------------------------------------
import numpy as np
set {scf_type pk
basis cc-pvdz
d_convergence 10
gdma_switch   0
gdma_limit    0
gdma_origin   [ 0.0,  0.0,  0.0 ]
}
molecule test {
    units Angstrom
    0 1
    --
    0 1
    C               -0.471636051244035     0.484074781391875    -0.170722039075594
    C               -0.318636051244035     1.687074781391875     0.748277960924406
    C               -0.324636051244035     0.781074781391875    -1.662722039075594
    O                0.407363948755965     0.092074781391875    -2.391722039075594
    N               -1.022636051244035     1.802074781391875    -2.142722039075594
    H                0.277363948755965    -0.209925218608125     0.138277960924406
    H               -1.444636051244035     0.036074781391875     0.012277960924406
    H               -0.191636051244035     1.316074781391875     1.766277960924406
    H               -1.250636051244035     2.255074781391875     0.721277960924406
    H               -0.971636051244035     1.977074781391875    -3.135722039075594
    H               -1.684636051244034     2.300074781391875    -1.568722039075594
    H                0.514443948755965     2.363724781391875     0.507177960924406
    C                0.535363948755965    -1.712925218608125     2.726277960924406
    C                1.198363948755965    -3.097925218608125     2.783277960924406
    H               -0.192636051244035    -1.654925218608125     1.919277960924406
    H                0.013363948755965    -1.533925218608125     3.667277960924406
    H                1.272363948755965    -0.923925218608125     2.601277960924406
    H                1.739363948755966    -3.198925218608125     3.724277960924406
    H                1.894203948755965    -3.241793718608125     1.943569960924406
    H                0.400233948755965    -3.854288218608125     2.753115960924406

}
e, wfn = energy('scf', return_wfn=True)
gdma(wfn)
dmavals = variable('DMA DISTRIBUTED MULTIPOLES')
charges = np.array(dmavals)
print(charges)
np.save('SSI-095GLN-185THR-1-dimer.npy', np.array(charges))--------------------------------------------------------------------------

*** tstart() called on ds3
*** at Mon Apr 27 13:21:42 2020

   => Loading Basis Set <=

    Name: CC-PVDZ
    Role: ORBITAL
    Keyword: BASIS
    atoms 1-3, 13-14  entry C          line   138 file /theoryfs2/ds/metcalf/miniconda2/envs/tf2gpu/share/psi4/basis/cc-pvdz.gbs
    atoms 4           entry O          line   198 file /theoryfs2/ds/metcalf/miniconda2/envs/tf2gpu/share/psi4/basis/cc-pvdz.gbs
    atoms 5           entry N          line   168 file /theoryfs2/ds/metcalf/miniconda2/envs/tf2gpu/share/psi4/basis/cc-pvdz.gbs
    atoms 6-12, 15-20 entry H          line    22 file /theoryfs2/ds/metcalf/miniconda2/envs/tf2gpu/share/psi4/basis/cc-pvdz.gbs

         ---------------------------------------------------------
                                   SCF
               by Justin Turney, Rob Parrish, Andy Simmonett
                          and Daniel G. A. Smith
                              RHF Reference
                        1 Threads,    500 MiB Core
         ---------------------------------------------------------

  ==> Geometry <==

    Molecular point group: c1
    Full point group: C1

    Geometry (in Angstrom), charge = 0, multiplicity = 1:

       Center              X                  Y                   Z               Mass
    ------------   -----------------  -----------------  -----------------  -----------------
         C           -0.471636051244     0.484074781392    -0.170722039076    12.000000000000
         C           -0.318636051244     1.687074781392     0.748277960924    12.000000000000
         C           -0.324636051244     0.781074781392    -1.662722039076    12.000000000000
         O            0.407363948756     0.092074781392    -2.391722039076    15.994914619570
         N           -1.022636051244     1.802074781392    -2.142722039076    14.003074004430
         H            0.277363948756    -0.209925218608     0.138277960924     1.007825032230
         H           -1.444636051244     0.036074781392     0.012277960924     1.007825032230
         H           -0.191636051244     1.316074781392     1.766277960924     1.007825032230
         H           -1.250636051244     2.255074781392     0.721277960924     1.007825032230
         H           -0.971636051244     1.977074781392    -3.135722039076     1.007825032230
         H           -1.684636051244     2.300074781392    -1.568722039076     1.007825032230
         H            0.514443948756     2.363724781392     0.507177960924     1.007825032230
         C            0.535363948756    -1.712925218608     2.726277960924    12.000000000000
         C            1.198363948756    -3.097925218608     2.783277960924    12.000000000000
         H           -0.192636051244    -1.654925218608     1.919277960924     1.007825032230
         H            0.013363948756    -1.533925218608     3.667277960924     1.007825032230
         H            1.272363948756    -0.923925218608     2.601277960924     1.007825032230
         H            1.739363948756    -3.198925218608     3.724277960924     1.007825032230
         H            1.894203948756    -3.241793718608     1.943569960924     1.007825032230
         H            0.400233948756    -3.854288218608     2.753115960924     1.007825032230

  Running in c1 symmetry.

  Rotational constants: A =      0.13366  B =      0.02426  C =      0.02123 [cm^-1]
  Rotational constants: A =   4006.93220  B =    727.24441  C =    636.56560 [MHz]
  Nuclear repulsion =  294.093397845979666

  Charge       = 0
  Multiplicity = 1
  Electrons    = 58
  Nalpha       = 29
  Nbeta        = 29

  ==> Algorithm <==

  SCF Algorithm Type is PK.
  DIIS enabled.
  MOM disabled.
  Fractional occupation disabled.
  Guess Type is SAD.
  Energy threshold   = 1.00e-06
  Density threshold  = 1.00e-10
  Integral threshold = 0.00e+00

  ==> Primary Basis <==

  Basis Set: CC-PVDZ
    Blend: CC-PVDZ
    Number of shells: 81
    Number of basis function: 163
    Number of Cartesian functions: 170
    Spherical Harmonics?: true
    Max angular momentum: 2

  ==> Pre-Iterations <==

   -------------------------------------------------------
    Irrep   Nso     Nmo     Nalpha   Nbeta   Ndocc  Nsocc
   -------------------------------------------------------
     A        163     163       0       0       0       0
   -------------------------------------------------------
    Total     163     163      29      29      29       0
   -------------------------------------------------------

  ==> Integral Setup <==

  Using integral reordering PK algorithm.
  Sizing the integral batches needed.
  Building batch lookup table.
   Calculation information:
      Number of atoms:                  20
      Number of AO shells:              81
      Number of primitives:            219
      Number of atomic orbitals:       170
      Number of basis functions:       163

      Integral cutoff                 1.00e-12
      Number of threads:                 1

	Batch   1 pq = [       0,    9405] index = [             0,44231715] size =     44231715
	Batch   2 pq = [    9405,   13366] index = [      44231715,89331661] size =     45099946
  Task number: 9
  Buffer size: 11059200
  Buffer per thread: 2
  We computed 4418441 shell quartets total.
  Whereas there are 5516181 unique shell quartets.

  ==> DiskJK: Disk-Based J/K Matrices <==

    J tasked:                  Yes
    K tasked:                  Yes
    wK tasked:                  No
    Memory [MiB]:              375
    Schwarz Cutoff:          1E-12

    OpenMP threads:              1

  Minimum eigenvalue in the overlap matrix is 3.4719462770E-03.
  Using Symmetric Orthogonalization.

  SCF Guess: Superposition of Atomic Densities via on-the-fly atomic UHF.

  ==> Iterations <==

                        Total Energy        Delta E     RMS |[F,P]|

   @RHF iter SAD:  -324.92048094548272   -3.24920e+02   0.00000e+00
   @RHF iter   1:  -326.00252896974149   -1.08205e+00   4.11710e-03 DIIS
   @RHF iter   2:  -326.19878668499996   -1.96258e-01   2.28296e-03 DIIS
   @RHF iter   3:  -326.25292496075087   -5.41383e-02   4.94683e-04 DIIS
   @RHF iter   4:  -326.25678207105352   -3.85711e-03   2.06260e-04 DIIS
   @RHF iter   5:  -326.25747858260996   -6.96512e-04   3.03321e-05 DIIS
   @RHF iter   6:  -326.25751212692421   -3.35443e-05   1.28818e-05 DIIS
   @RHF iter   7:  -326.25751681857230   -4.69165e-06   5.42697e-06 DIIS
   @RHF iter   8:  -326.25751795040634   -1.13183e-06   2.01607e-06 DIIS
   @RHF iter   9:  -326.25751811484650   -1.64440e-07   4.72092e-07 DIIS
   @RHF iter  10:  -326.25751812210206   -7.25555e-09   1.52145e-07 DIIS
   @RHF iter  11:  -326.25751812276116   -6.59099e-10   3.85422e-08 DIIS
   @RHF iter  12:  -326.25751812281055   -4.93969e-11   9.63936e-09 DIIS
   @RHF iter  13:  -326.25751812281322   -2.67164e-12   2.00338e-09 DIIS
   @RHF iter  14:  -326.25751812281396   -7.38964e-13   7.60794e-10 DIIS
   @RHF iter  15:  -326.25751812281248    1.47793e-12   2.41335e-10 DIIS
   @RHF iter  16:  -326.25751812281487   -2.38742e-12   6.57867e-11 DIIS
  Energy and wave function converged.

  ==> Post-Iterations <==

    Orbital Energies [Eh]
    ---------------------

    Doubly Occupied:

       1A    -20.501908     2A    -15.588177     3A    -11.345155
       4A    -11.238097     5A    -11.237038     6A    -11.221253
       7A    -11.220171     8A     -1.357763     9A     -1.214508
      10A     -1.056368    11A     -1.018684    12A     -0.890853
      13A     -0.840695    14A     -0.793104    15A     -0.731567
      16A     -0.654623    17A     -0.621365    18A     -0.601101
      19A     -0.599924    20A     -0.594226    21A     -0.564277
      22A     -0.531210    23A     -0.510761    24A     -0.501350
      25A     -0.499076    26A     -0.489012    27A     -0.486433
      28A     -0.403952    29A     -0.399489

    Virtual:

      30A      0.154157    31A      0.182961    32A      0.196910
      33A      0.213161    34A      0.220624    35A      0.224688
      36A      0.241630    37A      0.250269    38A      0.263691
      39A      0.276070    40A      0.287911    41A      0.291678
      42A      0.305865    43A      0.313246    44A      0.381543
      45A      0.399965    46A      0.427196    47A      0.477171
      48A      0.557308    49A      0.593384    50A      0.601841
      51A      0.603887    52A      0.626969    53A      0.646473
      54A      0.659596    55A      0.674242    56A      0.689612
      57A      0.690109    58A      0.740365    59A      0.784992
      60A      0.808590    61A      0.818073    62A      0.832611
      63A      0.858591    64A      0.872377    65A      0.875502
      66A      0.887638    67A      0.892360    68A      0.893290
      69A      0.905581    70A      0.908608    71A      0.913346
      72A      0.926903    73A      0.954830    74A      0.963400
      75A      0.968768    76A      0.990731    77A      1.015742
      78A      1.043489    79A      1.091905    80A      1.103720
      81A      1.119726    82A      1.125310    83A      1.148000
      84A      1.235640    85A      1.309097    86A      1.328041
      87A      1.360721    88A      1.369628    89A      1.406796
      90A      1.435978    91A      1.469567    92A      1.476392
      93A      1.482243    94A      1.495197    95A      1.543591
      96A      1.584792    97A      1.627950    98A      1.678058
      99A      1.679697   100A      1.688273   101A      1.745372
     102A      1.758616   103A      1.823560   104A      1.839406
     105A      1.848354   106A      1.863083   107A      1.877963
     108A      1.887156   109A      1.900979   110A      1.915215
     111A      1.929047   112A      1.932339   113A      1.943338
     114A      1.951426   115A      1.956225   116A      1.964883
     117A      1.974848   118A      1.990001   119A      2.011954
     120A      2.021510   121A      2.063188   122A      2.080052
     123A      2.107871   124A      2.115838   125A      2.139257
     126A      2.183854   127A      2.205756   128A      2.295907
     129A      2.301677   130A      2.312439   131A      2.329469
     132A      2.378738   133A      2.394543   134A      2.443075
     135A      2.459732   136A      2.478561   137A      2.524793
     138A      2.533862   139A      2.566694   140A      2.573595
     141A      2.593982   142A      2.635882   143A      2.639709
     144A      2.738072   145A      2.762432   146A      2.769758
     147A      2.785069   148A      2.831113   149A      2.841581
     150A      2.849345   151A      2.857306   152A      2.901240
     153A      2.944445   154A      2.967609   155A      2.979186
     156A      3.046804   157A      3.095849   158A      3.141360
     159A      3.295280   160A      3.505508   161A      3.529796
     162A      3.846348   163A      3.890411

    Final Occupation by Irrep:
              A
    DOCC [    29 ]

  @RHF Final Energy:  -326.25751812281487

   => Energetics <=

    Nuclear Repulsion Energy =            294.0933978459796663
    One-Electron Energy =               -1025.2775548035933753
    Two-Electron Energy =                 404.9266388347988368
    Total Energy =                       -326.2575181228148722

Computation Completed

Properties will be evaluated at   0.000000,   0.000000,   0.000000 [a0]

Properties computed using the SCF density matrix

  Nuclear Dipole Moment: [e a0]
     X:     0.3570      Y:    -4.1012      Z:    14.1033

  Electronic Dipole Moment: [e a0]
     X:    -1.4575      Y:     5.1281      Z:   -13.3152

  Dipole Moment: [e a0]
     X:    -1.1005      Y:     1.0269      Z:     0.7881     Total:     1.6991

  Dipole Moment: [D]
     X:    -2.7973      Y:     2.6101      Z:     2.0032     Total:     4.3186

*** tstop() called on ds3 at Mon Apr 27 13:22:28 2020
Module time:
	user time   =      30.31 seconds =       0.51 minutes
	system time =      18.28 seconds =       0.30 minutes
	total time  =         46 seconds =       0.77 minutes
Total time:
	user time   =      30.31 seconds =       0.51 minutes
	system time =      18.28 seconds =       0.30 minutes
	total time  =         46 seconds =       0.77 minutes
                                     G D M A

                                 by Anthony Stone

                           version 2.2.06, 22 June 2011

               Distributed Multipoles from Gaussian wavefunctions

Starting at 13:22:28 on 27 Apr 2020

Using SCF density matrix from file ./SSI/SSI-095GLN-185THR-1-dimer.test.6331.fchk

                         Distributed Multipole Analysis

Standard DMA

Positions and radii in angstrom
Multipole moments in atomic units, ea_0^k for rank k

C          x = -0.471636  y =  0.484075  z = -0.170722 angstrom
           Maximum rank =  0   Radius =  0.650 angstrom
                   Q00  =  -0.083108

C          x = -0.318636  y =  1.687075  z =  0.748278 angstrom
           Maximum rank =  0   Radius =  0.650 angstrom
                   Q00  =  -0.272238

C          x = -0.324636  y =  0.781075  z = -1.662722 angstrom
           Maximum rank =  0   Radius =  0.650 angstrom
                   Q00  =   0.828821

O          x =  0.407364  y =  0.092075  z = -2.391722 angstrom
           Maximum rank =  0   Radius =  0.650 angstrom
                   Q00  =  -0.801627

N          x = -1.022636  y =  1.802075  z = -2.142722 angstrom
           Maximum rank =  0   Radius =  0.650 angstrom
                   Q00  =  -0.535523

H          x =  0.277364  y = -0.209925  z =  0.138278 angstrom
           Maximum rank =  0   Radius =  0.325 angstrom
                   Q00  =   0.096944

H          x = -1.444636  y =  0.036075  z =  0.012278 angstrom
           Maximum rank =  0   Radius =  0.325 angstrom
                   Q00  =   0.081067

H          x = -0.191636  y =  1.316075  z =  1.766278 angstrom
           Maximum rank =  0   Radius =  0.325 angstrom
                   Q00  =   0.104924

H          x = -1.250636  y =  2.255075  z =  0.721278 angstrom
           Maximum rank =  0   Radius =  0.325 angstrom
                   Q00  =   0.062965

H          x = -0.971636  y =  1.977075  z = -3.135722 angstrom
           Maximum rank =  0   Radius =  0.325 angstrom
                   Q00  =   0.219790

H          x = -1.684636  y =  2.300075  z = -1.568722 angstrom
           Maximum rank =  0   Radius =  0.325 angstrom
                   Q00  =   0.205353

H          x =  0.514444  y =  2.363725  z =  0.507178 angstrom
           Maximum rank =  0   Radius =  0.325 angstrom
                   Q00  =   0.094160

C          x =  0.535364  y = -1.712925  z =  2.726278 angstrom
           Maximum rank =  0   Radius =  0.650 angstrom
                   Q00  =  -0.257936

C          x =  1.198364  y = -3.097925  z =  2.783278 angstrom
           Maximum rank =  0   Radius =  0.650 angstrom
                   Q00  =  -0.224795

H          x = -0.192636  y = -1.654925  z =  1.919278 angstrom
           Maximum rank =  0   Radius =  0.325 angstrom
                   Q00  =   0.079785

H          x =  0.013364  y = -1.533925  z =  3.667278 angstrom
           Maximum rank =  0   Radius =  0.325 angstrom
                   Q00  =   0.076344

H          x =  1.272364  y = -0.923925  z =  2.601278 angstrom
           Maximum rank =  0   Radius =  0.325 angstrom
                   Q00  =   0.078659

H          x =  1.739364  y = -3.198925  z =  3.724278 angstrom
           Maximum rank =  0   Radius =  0.325 angstrom
                   Q00  =   0.080611

H          x =  1.894204  y = -3.241794  z =  1.943570 angstrom
           Maximum rank =  0   Radius =  0.325 angstrom
                   Q00  =   0.086666

H          x =  0.400234  y = -3.854288  z =  2.753116 angstrom
           Maximum rank =  0   Radius =  0.325 angstrom
                   Q00  =   0.079139

Total multipoles referred to origin at
           x =   0.000000,  y =    0.000000,  z =    0.000000 angstrom
                   Q00  =  -0.000000

Finished at 13:22:28 on 27 Apr 2020

  DMA results are available in the Python driver through the
	  variable('DMA DISTRIBUTED MULTIPOLES')
  and
	  variable('DMA TOTAL MULTIPOLES')
  commands.

    Psi4 stopped on: Monday, 27 April 2020 01:22PM
    Psi4 wall time for execution: 0:00:46.79

*** Psi4 exiting successfully. Buy a developer a beer!
