                               Psi4 1.3.2 release

  ==> Input File <==

--------------------------------------------------------------------------
import numpy as np
set {scf_type pk
basis cc-pvdz
d_convergence 10
gdma_switch   0
gdma_limit    0
gdma_origin   [ 0.0,  0.0,  0.0 ]
}
molecule test {
    units Angstrom
    0 1
    --
    0 1
    C                2.601572484814803    -0.692886753310918    -1.515430413684294
    C               -1.039427515185197    -1.138886753310918    -0.609430413684293
    C               -1.682427515185197    -0.728886753310918    -1.773430413684293
    C                0.361572484814803    -1.131886753310918    -0.546430413684293
    C                1.116572484814803    -0.711886753310918    -1.626430413684293
    C               -0.924427515185197    -0.298886753310918    -2.876430413684293
    C                0.476572484814803    -0.290886753310918    -2.794430413684293
    H               -1.617427515185197    -1.463886753310918     0.243569586315707
    H               -2.763427515185196    -0.744886753310918    -1.821430413684294
    H                0.871572484814803    -1.451886753310918     0.350569586315707
    H               -1.422427515185197     0.024113246689082    -3.783430413684294
    H                2.994572484814804    -0.882886753310918    -2.509430413684294
    H                2.885572484814803    -1.519886753310918    -0.860430413684293
    H                1.069572484814803     0.043113246689082    -3.634430413684294
    H                2.993452484814803     0.263913246689082    -1.140000413684294
    C               -0.139427515185197     1.037113246689082     2.311569586315707
    C                0.892572484814803     1.864113246689082     3.090569586315707
    C               -0.445427515185197    -0.256886753310918     3.127569586315706
    C               -1.392427515185197     1.872113246689082     2.040569586315706
    H                0.267572484814803     0.770113246689082     1.337569586315707
    H                0.466572484814803     2.111113246689082     4.066569586315707
    H               -0.848427515185197     0.006113246689082     4.107569586315706
    H               -1.170427515185197    -0.870886753310918     2.594569586315707
    H                0.468572484814803    -0.838886753310918     3.263569586315707
    H               -1.128427515185197     2.752113246689082     1.452569586315706
    H               -2.112427515185197     1.275113246689082     1.482569586315707
    H               -1.832427515185197     2.187113246689082     2.985569586315707
    H                1.168392484814803     2.771713246689082     2.533689586315707
    H                1.789722484814803     1.257213246689082     3.282409586315707

}
e, wfn = energy('scf', return_wfn=True)
gdma(wfn)
dmavals = variable('DMA DISTRIBUTED MULTIPOLES')
charges = np.array(dmavals)
print(charges)
np.save('SSI-236PHE-262VAL-1-dimer.npy', np.array(charges))--------------------------------------------------------------------------

*** tstart() called on ds3
*** at Tue Apr 28 21:59:21 2020

   => Loading Basis Set <=

    Name: CC-PVDZ
    Role: ORBITAL
    Keyword: BASIS
    atoms 1-7, 16-19  entry C          line   138 file /theoryfs2/ds/metcalf/miniconda2/envs/tf2gpu/share/psi4/basis/cc-pvdz.gbs
    atoms 8-15, 20-29 entry H          line    22 file /theoryfs2/ds/metcalf/miniconda2/envs/tf2gpu/share/psi4/basis/cc-pvdz.gbs

         ---------------------------------------------------------
                                   SCF
               by Justin Turney, Rob Parrish, Andy Simmonett
                          and Daniel G. A. Smith
                              RHF Reference
                        1 Threads,    500 MiB Core
         ---------------------------------------------------------

  ==> Geometry <==

    Molecular point group: c1
    Full point group: C1

    Geometry (in Angstrom), charge = 0, multiplicity = 1:

       Center              X                  Y                   Z               Mass
    ------------   -----------------  -----------------  -----------------  -----------------
         C            2.601572484815    -0.692886753311    -1.515430413684    12.000000000000
         C           -1.039427515185    -1.138886753311    -0.609430413684    12.000000000000
         C           -1.682427515185    -0.728886753311    -1.773430413684    12.000000000000
         C            0.361572484815    -1.131886753311    -0.546430413684    12.000000000000
         C            1.116572484815    -0.711886753311    -1.626430413684    12.000000000000
         C           -0.924427515185    -0.298886753311    -2.876430413684    12.000000000000
         C            0.476572484815    -0.290886753311    -2.794430413684    12.000000000000
         H           -1.617427515185    -1.463886753311     0.243569586316     1.007825032230
         H           -2.763427515185    -0.744886753311    -1.821430413684     1.007825032230
         H            0.871572484815    -1.451886753311     0.350569586316     1.007825032230
         H           -1.422427515185     0.024113246689    -3.783430413684     1.007825032230
         H            2.994572484815    -0.882886753311    -2.509430413684     1.007825032230
         H            2.885572484815    -1.519886753311    -0.860430413684     1.007825032230
         H            1.069572484815     0.043113246689    -3.634430413684     1.007825032230
         H            2.993452484815     0.263913246689    -1.140000413684     1.007825032230
         C           -0.139427515185     1.037113246689     2.311569586316    12.000000000000
         C            0.892572484815     1.864113246689     3.090569586316    12.000000000000
         C           -0.445427515185    -0.256886753311     3.127569586316    12.000000000000
         C           -1.392427515185     1.872113246689     2.040569586316    12.000000000000
         H            0.267572484815     0.770113246689     1.337569586316     1.007825032230
         H            0.466572484815     2.111113246689     4.066569586316     1.007825032230
         H           -0.848427515185     0.006113246689     4.107569586316     1.007825032230
         H           -1.170427515185    -0.870886753311     2.594569586316     1.007825032230
         H            0.468572484815    -0.838886753311     3.263569586316     1.007825032230
         H           -1.128427515185     2.752113246689     1.452569586316     1.007825032230
         H           -2.112427515185     1.275113246689     1.482569586316     1.007825032230
         H           -1.832427515185     2.187113246689     2.985569586316     1.007825032230
         H            1.168392484815     2.771713246689     2.533689586316     1.007825032230
         H            1.789722484815     1.257213246689     3.282409586316     1.007825032230

  Running in c1 symmetry.

  Rotational constants: A =      0.04900  B =      0.01760  C =      0.01523 [cm^-1]
  Rotational constants: A =   1468.91724  B =    527.50749  C =    456.62465 [MHz]
  Nuclear repulsion =  582.926260489107108

  Charge       = 0
  Multiplicity = 1
  Electrons    = 84
  Nalpha       = 42
  Nbeta        = 42

  ==> Algorithm <==

  SCF Algorithm Type is PK.
  DIIS enabled.
  MOM disabled.
  Fractional occupation disabled.
  Guess Type is SAD.
  Energy threshold   = 1.00e-06
  Density threshold  = 1.00e-10
  Integral threshold = 0.00e+00

  ==> Primary Basis <==

  Basis Set: CC-PVDZ
    Blend: CC-PVDZ
    Number of shells: 120
    Number of basis function: 244
    Number of Cartesian functions: 255
    Spherical Harmonics?: true
    Max angular momentum: 2

  ==> Pre-Iterations <==

   -------------------------------------------------------
    Irrep   Nso     Nmo     Nalpha   Nbeta   Ndocc  Nsocc
   -------------------------------------------------------
     A        244     244       0       0       0       0
   -------------------------------------------------------
    Total     244     244      42      42      42       0
   -------------------------------------------------------

  ==> Integral Setup <==

  Using integral reordering PK algorithm.
  Sizing the integral batches needed.
  Building batch lookup table.
   Calculation information:
      Number of atoms:                  29
      Number of AO shells:             120
      Number of primitives:            332
      Number of atomic orbitals:       255
      Number of basis functions:       244

      Integral cutoff                 1.00e-12
      Number of threads:                 1

	Batch   1 pq = [       0,    9405] index = [             0,44231715] size =     44231715
	Batch   2 pq = [    9405,   13301] index = [      44231715,88464951] size =     44233236
	Batch   3 pq = [   13301,   16290] index = [      88464951,132690195] size =     44225244
	Batch   4 pq = [   16290,   18810] index = [     132690195,176917455] size =     44227260
	Batch   5 pq = [   18810,   21030] index = [     176917455,221140965] size =     44223510
	Batch   6 pq = [   21030,   23037] index = [     221140965,265363203] size =     44222238
	Batch   7 pq = [   23037,   24883] index = [     265363203,309594286] size =     44231083
	Batch   8 pq = [   24883,   26601] index = [     309594286,353819901] size =     44225615
	Batch   9 pq = [   26601,   28214] index = [     353819901,398029005] size =     44209104
	Batch  10 pq = [   28214,   29740] index = [     398029005,442248670] size =     44219665
	Batch  11 pq = [   29740,   29890] index = [     442248670,446720995] size =      4472325
  Task number: 41
  Buffer size: 11059200
  Buffer per thread: 2
  We computed 26607147 shell quartets total.
  Whereas there are 26357430 unique shell quartets.
     0.95 percent of shell quartets recomputed by reordering.

  ==> DiskJK: Disk-Based J/K Matrices <==

    J tasked:                  Yes
    K tasked:                  Yes
    wK tasked:                  No
    Memory [MiB]:              375
    Schwarz Cutoff:          1E-12

    OpenMP threads:              1

  Minimum eigenvalue in the overlap matrix is 3.1278993078E-04.
  Using Symmetric Orthogonalization.

  SCF Guess: Superposition of Atomic Densities via on-the-fly atomic UHF.

  ==> Iterations <==

                        Total Energy        Delta E     RMS |[F,P]|

   @RHF iter SAD:  -425.88256729901457   -4.25883e+02   0.00000e+00
   @RHF iter   1:  -426.77275028856621   -8.90183e-01   2.63523e-03 DIIS
   @RHF iter   2:  -427.02042107113073   -2.47671e-01   1.11148e-03 DIIS
   @RHF iter   3:  -427.06038560399867   -3.99645e-02   2.47209e-04 DIIS
   @RHF iter   4:  -427.06366966520881   -3.28406e-03   6.37586e-05 DIIS
   @RHF iter   5:  -427.06382012465184   -1.50459e-04   1.63810e-05 DIIS
   @RHF iter   6:  -427.06383055029414   -1.04256e-05   5.30188e-06 DIIS
   @RHF iter   7:  -427.06383174298611   -1.19269e-06   1.14135e-06 DIIS
   @RHF iter   8:  -427.06383183229121   -8.93051e-08   3.48738e-07 DIIS
   @RHF iter   9:  -427.06383185019286   -1.79016e-08   1.65866e-07 DIIS
   @RHF iter  10:  -427.06383185507298   -4.88012e-09   7.97746e-08 DIIS
   @RHF iter  11:  -427.06383185634274   -1.26977e-09   2.96789e-08 DIIS
   @RHF iter  12:  -427.06383185650083   -1.58082e-10   1.21284e-08 DIIS
   @RHF iter  13:  -427.06383185651191   -1.10845e-11   3.60573e-09 DIIS
   @RHF iter  14:  -427.06383185650952    2.38742e-12   1.05327e-09 DIIS
   @RHF iter  15:  -427.06383185651129   -1.76215e-12   4.32601e-10 DIIS
   @RHF iter  16:  -427.06383185651589   -4.60432e-12   1.98162e-10 DIIS
   @RHF iter  17:  -427.06383185651720   -1.30740e-12   9.64487e-11 DIIS
  Energy and wave function converged.

  ==> Post-Iterations <==

    Orbital Energies [Eh]
    ---------------------

    Doubly Occupied:

       1A    -11.240385     2A    -11.238232     3A    -11.237710
       4A    -11.234398     5A    -11.233384     6A    -11.230033
       7A    -11.228443     8A    -11.219992     9A    -11.215759
      10A    -11.213113    11A    -11.209066    12A     -1.152288
      13A     -1.073731    14A     -1.047872    15A     -1.009692
      16A     -0.931507    17A     -0.924728    18A     -0.918860
      19A     -0.827863    20A     -0.793387    21A     -0.759930
      22A     -0.690253    23A     -0.632853    24A     -0.632110
      25A     -0.626385    26A     -0.585445    27A     -0.585197
      28A     -0.582270    29A     -0.579529    30A     -0.562396
      31A     -0.536690    32A     -0.534736    33A     -0.528264
      34A     -0.507842    35A     -0.486770    36A     -0.486322
      37A     -0.481980    38A     -0.457731    39A     -0.452848
      40A     -0.447539    41A     -0.330191    42A     -0.322843

    Virtual:

      43A      0.130206    44A      0.139545    45A      0.167205
      46A      0.193260    47A      0.197525    48A      0.214038
      49A      0.222468    50A      0.233063    51A      0.241356
      52A      0.248839    53A      0.254801    54A      0.261096
      55A      0.270208    56A      0.278288    57A      0.292581
      58A      0.301997    59A      0.311435    60A      0.321070
      61A      0.327703    62A      0.354765    63A      0.361112
      64A      0.369952    65A      0.378591    66A      0.403547
      67A      0.409852    68A      0.449661    69A      0.462603
      70A      0.481500    71A      0.494945    72A      0.556844
      73A      0.566129    74A      0.583600    75A      0.594647
      76A      0.612831    77A      0.623539    78A      0.638616
      79A      0.650177    80A      0.682970    81A      0.688140
      82A      0.702274    83A      0.714819    84A      0.735518
      85A      0.740191    86A      0.747147    87A      0.754765
      88A      0.761787    89A      0.769325    90A      0.776170
      91A      0.777093    92A      0.794904    93A      0.817053
      94A      0.833535    95A      0.841419    96A      0.851257
      97A      0.860250    98A      0.868553    99A      0.874533
     100A      0.877050   101A      0.884377   102A      0.892996
     103A      0.899855   104A      0.904526   105A      0.909121
     106A      0.914343   107A      0.922986   108A      0.926507
     109A      0.932321   110A      0.936949   111A      0.946980
     112A      0.960430   113A      0.978908   114A      0.989202
     115A      0.995757   116A      1.000286   117A      1.010294
     118A      1.017986   119A      1.043050   120A      1.074800
     121A      1.117138   122A      1.128669   123A      1.130805
     124A      1.152415   125A      1.156999   126A      1.159841
     127A      1.173530   128A      1.209252   129A      1.242440
     130A      1.249582   131A      1.256499   132A      1.270796
     133A      1.303564   134A      1.306576   135A      1.321100
     136A      1.334444   137A      1.369488   138A      1.407144
     139A      1.414612   140A      1.435878   141A      1.509878
     142A      1.513668   143A      1.551434   144A      1.560530
     145A      1.581863   146A      1.608384   147A      1.666688
     148A      1.672822   149A      1.683634   150A      1.690476
     151A      1.694345   152A      1.697698   153A      1.703595
     154A      1.715796   155A      1.722992   156A      1.737040
     157A      1.748798   158A      1.763564   159A      1.791670
     160A      1.804949   161A      1.835295   162A      1.850355
     163A      1.850857   164A      1.867669   165A      1.885868
     166A      1.894613   167A      1.907877   168A      1.916917
     169A      1.922440   170A      1.934942   171A      1.936046
     172A      1.944312   173A      1.948430   174A      1.955150
     175A      1.962117   176A      1.972409   177A      1.975359
     178A      1.984691   179A      1.992262   180A      2.000440
     181A      2.002888   182A      2.027847   183A      2.043295
     184A      2.061095   185A      2.065142   186A      2.067346
     187A      2.083681   188A      2.108626   189A      2.118087
     190A      2.122882   191A      2.142867   192A      2.147825
     193A      2.154013   194A      2.159667   195A      2.179288
     196A      2.188782   197A      2.251579   198A      2.262744
     199A      2.271460   200A      2.279029   201A      2.280977
     202A      2.301537   203A      2.305878   204A      2.314698
     205A      2.318695   206A      2.327815   207A      2.338208
     208A      2.377585   209A      2.392719   210A      2.476046
     211A      2.484595   212A      2.490218   213A      2.498701
     214A      2.545075   215A      2.581215   216A      2.612424
     217A      2.623646   218A      2.627929   219A      2.713692
     220A      2.717718   221A      2.742187   222A      2.753602
     223A      2.756829   224A      2.771282   225A      2.784485
     226A      2.791331   227A      2.793995   228A      2.802932
     229A      2.815050   230A      2.836083   231A      2.840869
     232A      2.846655   233A      2.865207   234A      2.877185
     235A      2.973089   236A      2.996759   237A      3.003394
     238A      3.009041   239A      3.040751   240A      3.142290
     241A      3.147041   242A      3.194196   243A      3.290599
     244A      3.956261

    Final Occupation by Irrep:
              A
    DOCC [    42 ]

  @RHF Final Energy:  -427.06383185651720

   => Energetics <=

    Nuclear Repulsion Energy =            582.9262604891071078
    One-Electron Energy =               -1731.9990505537241461
    Two-Electron Energy =                 722.0089582080997843
    Total Energy =                       -427.0638318565172540

Computation Completed

Properties will be evaluated at   0.000000,   0.000000,   0.000000 [a0]

Properties computed using the SCF density matrix

  Nuclear Dipole Moment: [e a0]
     X:     1.9501      Y:     5.3328      Z:    13.0792

  Electronic Dipole Moment: [e a0]
     X:    -1.8139      Y:    -5.3473      Z:   -13.1942

  Dipole Moment: [e a0]
     X:     0.1362      Y:    -0.0144      Z:    -0.1150     Total:     0.1788

  Dipole Moment: [D]
     X:     0.3462      Y:    -0.0367      Z:    -0.2922     Total:     0.4545

*** tstop() called on ds3 at Tue Apr 28 22:03:12 2020
Module time:
	user time   =     173.30 seconds =       2.89 minutes
	system time =      65.86 seconds =       1.10 minutes
	total time  =        231 seconds =       3.85 minutes
Total time:
	user time   =     173.30 seconds =       2.89 minutes
	system time =      65.86 seconds =       1.10 minutes
	total time  =        231 seconds =       3.85 minutes
                                     G D M A

                                 by Anthony Stone

                           version 2.2.06, 22 June 2011

               Distributed Multipoles from Gaussian wavefunctions

Starting at 22:3:12 on 28 Apr 2020

Using SCF density matrix from file ./SSI/SSI-236PHE-262VAL-1-dimer.test.10166.fchk

                         Distributed Multipole Analysis

Standard DMA

Positions and radii in angstrom
Multipole moments in atomic units, ea_0^k for rank k

C          x =  2.601572  y = -0.692887  z = -1.515430 angstrom
           Maximum rank =  0   Radius =  0.650 angstrom
                   Q00  =  -0.189878

C          x = -1.039428  y = -1.138887  z = -0.609430 angstrom
           Maximum rank =  0   Radius =  0.650 angstrom
                   Q00  =  -0.081152

C          x = -1.682428  y = -0.728887  z = -1.773430 angstrom
           Maximum rank =  0   Radius =  0.650 angstrom
                   Q00  =  -0.088584

C          x =  0.361572  y = -1.131887  z = -0.546430 angstrom
           Maximum rank =  0   Radius =  0.650 angstrom
                   Q00  =  -0.014766

C          x =  1.116572  y = -0.711887  z = -1.626430 angstrom
           Maximum rank =  0   Radius =  0.650 angstrom
                   Q00  =  -0.100277

C          x = -0.924428  y = -0.298887  z = -2.876430 angstrom
           Maximum rank =  0   Radius =  0.650 angstrom
                   Q00  =  -0.079641

C          x =  0.476572  y = -0.290887  z = -2.794430 angstrom
           Maximum rank =  0   Radius =  0.650 angstrom
                   Q00  =  -0.058096

H          x = -1.617428  y = -1.463887  z =  0.243570 angstrom
           Maximum rank =  0   Radius =  0.325 angstrom
                   Q00  =   0.066266

H          x = -2.763428  y = -0.744887  z = -1.821430 angstrom
           Maximum rank =  0   Radius =  0.325 angstrom
                   Q00  =   0.063519

H          x =  0.871572  y = -1.451887  z =  0.350570 angstrom
           Maximum rank =  0   Radius =  0.325 angstrom
                   Q00  =   0.057700

H          x = -1.422428  y =  0.024113  z = -3.783430 angstrom
           Maximum rank =  0   Radius =  0.325 angstrom
                   Q00  =   0.068900

H          x =  2.994572  y = -0.882887  z = -2.509430 angstrom
           Maximum rank =  0   Radius =  0.325 angstrom
                   Q00  =   0.096377

H          x =  2.885572  y = -1.519887  z = -0.860430 angstrom
           Maximum rank =  0   Radius =  0.325 angstrom
                   Q00  =   0.095643

H          x =  1.069572  y =  0.043113  z = -3.634430 angstrom
           Maximum rank =  0   Radius =  0.325 angstrom
                   Q00  =   0.058970

H          x =  2.993452  y =  0.263913  z = -1.140000 angstrom
           Maximum rank =  0   Radius =  0.325 angstrom
                   Q00  =   0.105358

C          x = -0.139428  y =  1.037113  z =  2.311570 angstrom
           Maximum rank =  0   Radius =  0.650 angstrom
                   Q00  =  -0.007543

C          x =  0.892572  y =  1.864113  z =  3.090570 angstrom
           Maximum rank =  0   Radius =  0.650 angstrom
                   Q00  =  -0.226265

C          x = -0.445428  y = -0.256887  z =  3.127570 angstrom
           Maximum rank =  0   Radius =  0.650 angstrom
                   Q00  =  -0.267902

C          x = -1.392428  y =  1.872113  z =  2.040570 angstrom
           Maximum rank =  0   Radius =  0.650 angstrom
                   Q00  =  -0.233841

H          x =  0.267572  y =  0.770113  z =  1.337570 angstrom
           Maximum rank =  0   Radius =  0.325 angstrom
                   Q00  =   0.030676

H          x =  0.466572  y =  2.111113  z =  4.066570 angstrom
           Maximum rank =  0   Radius =  0.325 angstrom
                   Q00  =   0.072285

H          x = -0.848428  y =  0.006113  z =  4.107570 angstrom
           Maximum rank =  0   Radius =  0.325 angstrom
                   Q00  =   0.080811

H          x = -1.170428  y = -0.870887  z =  2.594570 angstrom
           Maximum rank =  0   Radius =  0.325 angstrom
                   Q00  =   0.078364

H          x =  0.468572  y = -0.838887  z =  3.263570 angstrom
           Maximum rank =  0   Radius =  0.325 angstrom
                   Q00  =   0.080783

H          x = -1.128428  y =  2.752113  z =  1.452570 angstrom
           Maximum rank =  0   Radius =  0.325 angstrom
                   Q00  =   0.083642

H          x = -2.112428  y =  1.275113  z =  1.482570 angstrom
           Maximum rank =  0   Radius =  0.325 angstrom
                   Q00  =   0.081816

H          x = -1.832428  y =  2.187113  z =  2.985570 angstrom
           Maximum rank =  0   Radius =  0.325 angstrom
                   Q00  =   0.070655

H          x =  1.168392  y =  2.771713  z =  2.533690 angstrom
           Maximum rank =  0   Radius =  0.325 angstrom
                   Q00  =   0.081119

H          x =  1.789722  y =  1.257213  z =  3.282410 angstrom
           Maximum rank =  0   Radius =  0.325 angstrom
                   Q00  =   0.075060

Total multipoles referred to origin at
           x =   0.000000,  y =    0.000000,  z =    0.000000 angstrom
                   Q00  =  -0.000000

Finished at 22:3:12 on 28 Apr 2020

  DMA results are available in the Python driver through the
	  variable('DMA DISTRIBUTED MULTIPOLES')
  and
	  variable('DMA TOTAL MULTIPOLES')
  commands.

    Psi4 stopped on: Tuesday, 28 April 2020 10:03PM
    Psi4 wall time for execution: 0:03:51.01

*** Psi4 exiting successfully. Buy a developer a beer!
