                               Psi4 1.3.2 release

  ==> Input File <==

--------------------------------------------------------------------------
import numpy as np
set {scf_type pk
basis cc-pvdz
d_convergence 10
gdma_switch   0
gdma_limit    0
gdma_origin   [ 0.0,  0.0,  0.0 ]
}
molecule test {
    units Angstrom
    0 1
    --
    0 1
    C                1.969793426204112     3.393872781694689     0.249075646186988
    C                1.866793426204112     4.497872781694688     1.314075646186989
    H                1.337793426204112     2.553872781694688     0.533075646186988
    H                1.644793426204112     3.785872781694688    -0.715924353813012
    H                3.001793426204112     3.054872781694688     0.155075646186988
    H                2.635793426204112     5.239872781694689     1.104075646186989
    H                2.028753426204112     4.078042781694688     2.317824646186988
    H                0.884793426204112     4.990652781694688     1.260744646186989
    C               -1.530206573795888    -2.874127218305312    -1.872924353813012
    C               -0.266206573795888     0.348872781694688    -0.310924353813012
    C               -0.792206573795888    -0.556127218305312    -1.250924353813011
    C                0.077793426204112    -0.092127218305312     1.000075646186988
    C               -0.985206573795888    -1.892127218305312    -0.896924353813012
    C               -0.113206573795888    -1.429127218305312     1.346075646186988
    C               -0.648206573795888    -2.320127218305312     0.402075646186988
    H               -0.150206573795888     1.386872781694688    -0.587924353813012
    H               -1.079206573795888    -0.207127218305312    -2.231924353813012
    H                0.479793426204112     0.605872781694688     1.721075646186988
    H                0.133793426204112    -1.775127218305312     2.341075646186988
    H               -2.248206573795888    -2.378127218305312    -2.518924353813012
    H               -2.076206573795888    -3.633127218305312    -1.318924353813012
    H               -0.823206573795888    -3.350127218305312     0.671075646186988
    H               -0.759176573795888    -3.360567218305312    -2.488464353813011

}
e, wfn = energy('scf', return_wfn=True)
gdma(wfn)
dmavals = variable('DMA DISTRIBUTED MULTIPOLES')
charges = np.array(dmavals)
print(charges)
np.save('SSI-053VAL-068PHE-1-dimer.npy', np.array(charges))--------------------------------------------------------------------------

*** tstart() called on ds3
*** at Tue Apr 28 20:42:35 2020

   => Loading Basis Set <=

    Name: CC-PVDZ
    Role: ORBITAL
    Keyword: BASIS
    atoms 1-2, 9-15  entry C          line   138 file /theoryfs2/ds/metcalf/miniconda2/envs/tf2gpu/share/psi4/basis/cc-pvdz.gbs
    atoms 3-8, 16-23 entry H          line    22 file /theoryfs2/ds/metcalf/miniconda2/envs/tf2gpu/share/psi4/basis/cc-pvdz.gbs

         ---------------------------------------------------------
                                   SCF
               by Justin Turney, Rob Parrish, Andy Simmonett
                          and Daniel G. A. Smith
                              RHF Reference
                        1 Threads,    500 MiB Core
         ---------------------------------------------------------

  ==> Geometry <==

    Molecular point group: c1
    Full point group: C1

    Geometry (in Angstrom), charge = 0, multiplicity = 1:

       Center              X                  Y                   Z               Mass
    ------------   -----------------  -----------------  -----------------  -----------------
         C            1.969793426204     3.393872781695     0.249075646187    12.000000000000
         C            1.866793426204     4.497872781695     1.314075646187    12.000000000000
         H            1.337793426204     2.553872781695     0.533075646187     1.007825032230
         H            1.644793426204     3.785872781695    -0.715924353813     1.007825032230
         H            3.001793426204     3.054872781695     0.155075646187     1.007825032230
         H            2.635793426204     5.239872781695     1.104075646187     1.007825032230
         H            2.028753426204     4.078042781695     2.317824646187     1.007825032230
         H            0.884793426204     4.990652781695     1.260744646187     1.007825032230
         C           -1.530206573796    -2.874127218305    -1.872924353813    12.000000000000
         C           -0.266206573796     0.348872781695    -0.310924353813    12.000000000000
         C           -0.792206573796    -0.556127218305    -1.250924353813    12.000000000000
         C            0.077793426204    -0.092127218305     1.000075646187    12.000000000000
         C           -0.985206573796    -1.892127218305    -0.896924353813    12.000000000000
         C           -0.113206573796    -1.429127218305     1.346075646187    12.000000000000
         C           -0.648206573796    -2.320127218305     0.402075646187    12.000000000000
         H           -0.150206573796     1.386872781695    -0.587924353813     1.007825032230
         H           -1.079206573796    -0.207127218305    -2.231924353813     1.007825032230
         H            0.479793426204     0.605872781695     1.721075646187     1.007825032230
         H            0.133793426204    -1.775127218305     2.341075646187     1.007825032230
         H           -2.248206573796    -2.378127218305    -2.518924353813     1.007825032230
         H           -2.076206573796    -3.633127218305    -1.318924353813     1.007825032230
         H           -0.823206573796    -3.350127218305     0.671075646187     1.007825032230
         H           -0.759176573796    -3.360567218305    -2.488464353813     1.007825032230

  Running in c1 symmetry.

  Rotational constants: A =      0.12408  B =      0.01707  C =      0.01535 [cm^-1]
  Rotational constants: A =   3719.77262  B =    511.81205  C =    460.19281 [MHz]
  Nuclear repulsion =  394.152816217626423

  Charge       = 0
  Multiplicity = 1
  Electrons    = 68
  Nalpha       = 34
  Nbeta        = 34

  ==> Algorithm <==

  SCF Algorithm Type is PK.
  DIIS enabled.
  MOM disabled.
  Fractional occupation disabled.
  Guess Type is SAD.
  Energy threshold   = 1.00e-06
  Density threshold  = 1.00e-10
  Integral threshold = 0.00e+00

  ==> Primary Basis <==

  Basis Set: CC-PVDZ
    Blend: CC-PVDZ
    Number of shells: 96
    Number of basis function: 196
    Number of Cartesian functions: 205
    Spherical Harmonics?: true
    Max angular momentum: 2

  ==> Pre-Iterations <==

   -------------------------------------------------------
    Irrep   Nso     Nmo     Nalpha   Nbeta   Ndocc  Nsocc
   -------------------------------------------------------
     A        196     196       0       0       0       0
   -------------------------------------------------------
    Total     196     196      34      34      34       0
   -------------------------------------------------------

  ==> Integral Setup <==

  Using integral reordering PK algorithm.
  Sizing the integral batches needed.
  Building batch lookup table.
   Calculation information:
      Number of atoms:                  23
      Number of AO shells:              96
      Number of primitives:            268
      Number of atomic orbitals:       205
      Number of basis functions:       196

      Integral cutoff                 1.00e-12
      Number of threads:                 1

	Batch   1 pq = [       0,    9405] index = [             0,44231715] size =     44231715
	Batch   2 pq = [    9405,   13301] index = [      44231715,88464951] size =     44233236
	Batch   3 pq = [   13301,   16290] index = [      88464951,132690195] size =     44225244
	Batch   4 pq = [   16290,   18810] index = [     132690195,176917455] size =     44227260
	Batch   5 pq = [   18810,   19306] index = [     176917455,186370471] size =      9453016
  Task number: 17
  Buffer size: 11059200
  Buffer per thread: 2
  We computed 8054579 shell quartets total.
  Whereas there are 10841496 unique shell quartets.

  ==> DiskJK: Disk-Based J/K Matrices <==

    J tasked:                  Yes
    K tasked:                  Yes
    wK tasked:                  No
    Memory [MiB]:              375
    Schwarz Cutoff:          1E-12

    OpenMP threads:              1

  Minimum eigenvalue in the overlap matrix is 3.3512687408E-04.
  Using Symmetric Orthogonalization.

  SCF Guess: Superposition of Atomic Densities via on-the-fly atomic UHF.

  ==> Iterations <==

                        Total Energy        Delta E     RMS |[F,P]|

   @RHF iter SAD:  -347.76385218385383   -3.47764e+02   0.00000e+00
   @RHF iter   1:  -348.76803824625483   -1.00419e+00   2.85760e-03 DIIS
   @RHF iter   2:  -348.95774978511656   -1.89712e-01   1.17078e-03 DIIS
   @RHF iter   3:  -348.98667503138665   -2.89252e-02   2.60663e-04 DIIS
   @RHF iter   4:  -348.98914328845785   -2.46826e-03   6.49427e-05 DIIS
   @RHF iter   5:  -348.98924496037006   -1.01672e-04   2.10342e-05 DIIS
   @RHF iter   6:  -348.98925597037140   -1.10100e-05   4.93054e-06 DIIS
   @RHF iter   7:  -348.98925668185342   -7.11482e-07   1.12701e-06 DIIS
   @RHF iter   8:  -348.98925672593907   -4.40857e-08   2.94206e-07 DIIS
   @RHF iter   9:  -348.98925673048507   -4.54600e-09   1.18767e-07 DIIS
   @RHF iter  10:  -348.98925673143469   -9.49626e-10   5.69723e-08 DIIS
   @RHF iter  11:  -348.98925673176666   -3.31966e-10   2.39821e-08 DIIS
   @RHF iter  12:  -348.98925673183163   -6.49720e-11   1.19522e-08 DIIS
   @RHF iter  13:  -348.98925673184533   -1.36993e-11   4.25175e-09 DIIS
   @RHF iter  14:  -348.98925673184795   -2.61480e-12   1.32642e-09 DIIS
   @RHF iter  15:  -348.98925673184795    0.00000e+00   3.90885e-10 DIIS
   @RHF iter  16:  -348.98925673184635    1.59162e-12   1.45735e-10 DIIS
   @RHF iter  17:  -348.98925673184840   -2.04636e-12   7.22277e-11 DIIS
  Energy and wave function converged.

  ==> Post-Iterations <==

    Orbital Energies [Eh]
    ---------------------

    Doubly Occupied:

       1A    -11.240894     2A    -11.240419     3A    -11.238274
       4A    -11.235849     5A    -11.232428     6A    -11.232141
       7A    -11.226788     8A    -11.220577     9A    -11.218078
      10A     -1.145472    11A     -1.043529    12A     -1.017507
      13A     -1.006660    14A     -0.929490    15A     -0.838339
      16A     -0.822837    17A     -0.792777    18A     -0.687974
      19A     -0.633614    20A     -0.627624    21A     -0.600286
      22A     -0.597640    23A     -0.581340    24A     -0.578293
      25A     -0.561732    26A     -0.533446    27A     -0.498324
      28A     -0.489475    29A     -0.488455    30A     -0.484417
      31A     -0.480925    32A     -0.478512    33A     -0.330150
      34A     -0.317534

    Virtual:

      35A      0.132942    36A      0.138612    37A      0.172358
      38A      0.191325    39A      0.211085    40A      0.214843
      41A      0.232383    42A      0.242500    43A      0.250796
      44A      0.253854    45A      0.271130    46A      0.282764
      47A      0.288176    48A      0.289175    49A      0.302660
      50A      0.344486    51A      0.359785    52A      0.378683
      53A      0.391501    54A      0.450338    55A      0.468462
      56A      0.480606    57A      0.509938    58A      0.577368
      59A      0.591118    60A      0.597105    61A      0.606938
      62A      0.617728    63A      0.641082    64A      0.670321
      65A      0.675013    66A      0.687621    67A      0.704803
      68A      0.712987    69A      0.728194    70A      0.735214
      71A      0.742813    72A      0.746506    73A      0.761554
      74A      0.770516    75A      0.778375    76A      0.809988
      77A      0.828049    78A      0.850401    79A      0.857011
      80A      0.861512    81A      0.875922    82A      0.886641
      83A      0.888946    84A      0.890510    85A      0.897879
      86A      0.901189    87A      0.911090    88A      0.920269
      89A      0.927953    90A      0.933605    91A      0.942461
      92A      0.949978    93A      0.989365    94A      1.011712
      95A      1.039345    96A      1.063370    97A      1.104503
      98A      1.117902    99A      1.138858   100A      1.141274
     101A      1.152122   102A      1.173162   103A      1.199300
     104A      1.228119   105A      1.240731   106A      1.244579
     107A      1.257926   108A      1.292695   109A      1.294669
     110A      1.311174   111A      1.319064   112A      1.345238
     113A      1.412827   114A      1.475008   115A      1.481779
     116A      1.514809   117A      1.521753   118A      1.560102
     119A      1.582366   120A      1.631446   121A      1.680054
     122A      1.683713   123A      1.693919   124A      1.707028
     125A      1.734307   126A      1.744555   127A      1.750092
     128A      1.785328   129A      1.801491   130A      1.850873
     131A      1.862881   132A      1.870865   133A      1.877913
     134A      1.889692   135A      1.895014   136A      1.906447
     137A      1.908769   138A      1.924038   139A      1.934977
     140A      1.936153   141A      1.941041   142A      1.942878
     143A      1.951224   144A      1.964094   145A      1.970858
     146A      1.980998   147A      1.986502   148A      2.001153
     149A      2.031455   150A      2.056240   151A      2.060902
     152A      2.101553   153A      2.110249   154A      2.126407
     155A      2.142647   156A      2.150612   157A      2.162138
     158A      2.185266   159A      2.199992   160A      2.257779
     161A      2.269418   162A      2.291667   163A      2.293510
     164A      2.301223   165A      2.304818   166A      2.314619
     167A      2.321752   168A      2.449872   169A      2.463575
     170A      2.470736   171A      2.478432   172A      2.491167
     173A      2.536133   174A      2.567215   175A      2.588012
     176A      2.617626   177A      2.732890   178A      2.747897
     179A      2.763673   180A      2.772026   181A      2.777291
     182A      2.797819   183A      2.808478   184A      2.841941
     185A      2.847822   186A      2.853932   187A      2.877902
     188A      2.943618   189A      2.956518   190A      2.984410
     191A      2.995458   192A      3.013030   193A      3.140251
     194A      3.181808   195A      3.277556   196A      3.928782

    Final Occupation by Irrep:
              A
    DOCC [    34 ]

  @RHF Final Energy:  -348.98925673184840

   => Energetics <=

    Nuclear Repulsion Energy =            394.1528162176264232
    One-Electron Energy =               -1250.9805420335815143
    Two-Electron Energy =                 507.8384690841066913
    Total Energy =                       -348.9892567318483998

Computation Completed

Properties will be evaluated at   0.000000,   0.000000,   0.000000 [a0]

Properties computed using the SCF density matrix

  Nuclear Dipole Moment: [e a0]
     X:     4.6978      Y:    10.3044      Z:     0.2268

  Electronic Dipole Moment: [e a0]
     X:    -4.7498      Y:   -10.3867      Z:    -0.3251

  Dipole Moment: [e a0]
     X:    -0.0520      Y:    -0.0823      Z:    -0.0983     Total:     0.1383

  Dipole Moment: [D]
     X:    -0.1323      Y:    -0.2091      Z:    -0.2497     Total:     0.3516

*** tstop() called on ds3 at Tue Apr 28 20:43:53 2020
Module time:
	user time   =      55.30 seconds =       0.92 minutes
	system time =      25.25 seconds =       0.42 minutes
	total time  =         78 seconds =       1.30 minutes
Total time:
	user time   =      55.30 seconds =       0.92 minutes
	system time =      25.25 seconds =       0.42 minutes
	total time  =         78 seconds =       1.30 minutes
                                     G D M A

                                 by Anthony Stone

                           version 2.2.06, 22 June 2011

               Distributed Multipoles from Gaussian wavefunctions

Starting at 20:43:53 on 28 Apr 2020

Using SCF density matrix from file ./SSI/SSI-053VAL-068PHE-1-dimer.test.23395.fchk

                         Distributed Multipole Analysis

Standard DMA

Positions and radii in angstrom
Multipole moments in atomic units, ea_0^k for rank k

C          x =  1.969793  y =  3.393873  z =  0.249076 angstrom
           Maximum rank =  0   Radius =  0.650 angstrom
                   Q00  =  -0.239496

C          x =  1.866793  y =  4.497873  z =  1.314076 angstrom
           Maximum rank =  0   Radius =  0.650 angstrom
                   Q00  =  -0.239698

H          x =  1.337793  y =  2.553873  z =  0.533076 angstrom
           Maximum rank =  0   Radius =  0.325 angstrom
                   Q00  =   0.077568

H          x =  1.644793  y =  3.785873  z = -0.715924 angstrom
           Maximum rank =  0   Radius =  0.325 angstrom
                   Q00  =   0.078102

H          x =  3.001793  y =  3.054873  z =  0.155076 angstrom
           Maximum rank =  0   Radius =  0.325 angstrom
                   Q00  =   0.083076

H          x =  2.635793  y =  5.239873  z =  1.104076 angstrom
           Maximum rank =  0   Radius =  0.325 angstrom
                   Q00  =   0.079856

H          x =  2.028753  y =  4.078043  z =  2.317825 angstrom
           Maximum rank =  0   Radius =  0.325 angstrom
                   Q00  =   0.079029

H          x =  0.884793  y =  4.990653  z =  1.260745 angstrom
           Maximum rank =  0   Radius =  0.325 angstrom
                   Q00  =   0.079229

C          x = -1.530207  y = -2.874127  z = -1.872924 angstrom
           Maximum rank =  0   Radius =  0.650 angstrom
                   Q00  =  -0.199005

C          x = -0.266207  y =  0.348873  z = -0.310924 angstrom
           Maximum rank =  0   Radius =  0.650 angstrom
                   Q00  =  -0.071640

C          x = -0.792207  y = -0.556127  z = -1.250924 angstrom
           Maximum rank =  0   Radius =  0.650 angstrom
                   Q00  =  -0.080813

C          x =  0.077793  y = -0.092127  z =  1.000076 angstrom
           Maximum rank =  0   Radius =  0.650 angstrom
                   Q00  =  -0.098922

C          x = -0.985207  y = -1.892127  z = -0.896924 angstrom
           Maximum rank =  0   Radius =  0.650 angstrom
                   Q00  =  -0.098096

C          x = -0.113207  y = -1.429127  z =  1.346076 angstrom
           Maximum rank =  0   Radius =  0.650 angstrom
                   Q00  =  -0.075108

C          x = -0.648207  y = -2.320127  z =  0.402076 angstrom
           Maximum rank =  0   Radius =  0.650 angstrom
                   Q00  =   0.003977

H          x = -0.150207  y =  1.386873  z = -0.587924 angstrom
           Maximum rank =  0   Radius =  0.325 angstrom
                   Q00  =   0.072229

H          x = -1.079207  y = -0.207127  z = -2.231924 angstrom
           Maximum rank =  0   Radius =  0.325 angstrom
                   Q00  =   0.060373

H          x =  0.479793  y =  0.605873  z =  1.721076 angstrom
           Maximum rank =  0   Radius =  0.325 angstrom
                   Q00  =   0.064622

H          x =  0.133793  y = -1.775127  z =  2.341076 angstrom
           Maximum rank =  0   Radius =  0.325 angstrom
                   Q00  =   0.067798

H          x = -2.248207  y = -2.378127  z = -2.518924 angstrom
           Maximum rank =  0   Radius =  0.325 angstrom
                   Q00  =   0.097521

H          x = -2.076207  y = -3.633127  z = -1.318924 angstrom
           Maximum rank =  0   Radius =  0.325 angstrom
                   Q00  =   0.096129

H          x = -0.823207  y = -3.350127  z =  0.671076 angstrom
           Maximum rank =  0   Radius =  0.325 angstrom
                   Q00  =   0.058226

H          x = -0.759177  y = -3.360567  z = -2.488464 angstrom
           Maximum rank =  0   Radius =  0.325 angstrom
                   Q00  =   0.105042

Total multipoles referred to origin at
           x =   0.000000,  y =    0.000000,  z =    0.000000 angstrom
                   Q00  =  -0.000000

Finished at 20:43:53 on 28 Apr 2020

  DMA results are available in the Python driver through the
	  variable('DMA DISTRIBUTED MULTIPOLES')
  and
	  variable('DMA TOTAL MULTIPOLES')
  commands.

    Psi4 stopped on: Tuesday, 28 April 2020 08:43PM
    Psi4 wall time for execution: 0:01:18.01

*** Psi4 exiting successfully. Buy a developer a beer!
