                               Psi4 1.3.2 release

  ==> Input File <==

--------------------------------------------------------------------------
import numpy as np
set {scf_type pk
basis cc-pvdz
d_convergence 10
gdma_switch   0
gdma_limit    0
gdma_origin   [ 0.0,  0.0,  0.0 ]
}
molecule test {
    units Angstrom
    0 1
    --
    0 1
    C                2.121236312401921    -2.822374841493984    -2.192372348419160
    C                3.470236312401921    -2.252374841493984    -2.655372348419161
    C                2.127236312401921    -4.347374841493984    -2.100372348419161
    H                1.872236312401921    -2.411374841493984    -1.213372348419161
    H                1.325236312401921    -2.535374841493984    -2.872372348419161
    H                3.828236312401921    -2.836374841493984    -3.505372348419161
    H                2.831236312401921    -4.699374841493984    -1.349372348419161
    H                1.129236312401921    -4.683374841493984    -1.820372348419161
    H                2.385236312401921    -4.777374841493985    -3.068372348419161
    H                3.357746312401921    -1.206524841493984    -2.977172348419161
    H                4.201616312401921    -2.343344841493984    -1.838792348419161
    C               -1.696763687598079     1.412625158506016     3.613627651580840
    C               -0.987763687598079     0.815625158506016     1.154627651580839
    C               -1.288763687598079     1.744625158506016     2.218627651580840
    C               -0.614763687598079     1.582625158506016     0.022627651580839
    C               -1.088763687598079     2.990625158506016     1.704627651580839
    C               -0.646763687598079    -1.161374841493984    -0.175372348419161
    C               -0.308763687598079    -0.376374841493984    -1.280372348419161
    C               -0.981763687598079    -0.586374841493984     1.042627651580839
    C               -0.279763687598079     1.004625158506016    -1.194372348419161
    N               -0.707763687598079     2.901625158506016     0.388627651580839
    H               -0.636763687598079    -2.238374841493985    -0.273372348419161
    H               -0.069763687598079    -0.854374841493984    -2.219372348419161
    H               -1.234763687598079    -1.200374841493984     1.893627651580839
    H               -0.019763687598079     1.615625158506016    -2.046372348419161
    H               -1.291763687598079     2.188625158506015     4.264627651580840
    H               -1.216763687598079     0.474625158506016     3.894627651580839
    H               -1.225763687598079     3.915625158506016     2.254627651580839
    H               -0.537763687598079     3.700625158506016    -0.210372348419161
    H               -2.778103687598079     1.334975158506016     3.799837651580840

}
e, wfn = energy('scf', return_wfn=True)
gdma(wfn)
dmavals = variable('DMA DISTRIBUTED MULTIPOLES')
charges = np.array(dmavals)
print(charges)
np.save('SSI-094ILE-114TRP-1-dimer.npy', np.array(charges))--------------------------------------------------------------------------

*** tstart() called on ds3
*** at Mon Apr 27 08:41:08 2020

   => Loading Basis Set <=

    Name: CC-PVDZ
    Role: ORBITAL
    Keyword: BASIS
    atoms 1-3, 12-20  entry C          line   138 file /theoryfs2/ds/metcalf/miniconda2/envs/tf2gpu/share/psi4/basis/cc-pvdz.gbs
    atoms 4-11, 22-30 entry H          line    22 file /theoryfs2/ds/metcalf/miniconda2/envs/tf2gpu/share/psi4/basis/cc-pvdz.gbs
    atoms 21          entry N          line   168 file /theoryfs2/ds/metcalf/miniconda2/envs/tf2gpu/share/psi4/basis/cc-pvdz.gbs

         ---------------------------------------------------------
                                   SCF
               by Justin Turney, Rob Parrish, Andy Simmonett
                          and Daniel G. A. Smith
                              RHF Reference
                        1 Threads,    500 MiB Core
         ---------------------------------------------------------

  ==> Geometry <==

    Molecular point group: c1
    Full point group: C1

    Geometry (in Angstrom), charge = 0, multiplicity = 1:

       Center              X                  Y                   Z               Mass
    ------------   -----------------  -----------------  -----------------  -----------------
         C            2.121236312402    -2.822374841494    -2.192372348419    12.000000000000
         C            3.470236312402    -2.252374841494    -2.655372348419    12.000000000000
         C            2.127236312402    -4.347374841494    -2.100372348419    12.000000000000
         H            1.872236312402    -2.411374841494    -1.213372348419     1.007825032230
         H            1.325236312402    -2.535374841494    -2.872372348419     1.007825032230
         H            3.828236312402    -2.836374841494    -3.505372348419     1.007825032230
         H            2.831236312402    -4.699374841494    -1.349372348419     1.007825032230
         H            1.129236312402    -4.683374841494    -1.820372348419     1.007825032230
         H            2.385236312402    -4.777374841494    -3.068372348419     1.007825032230
         H            3.357746312402    -1.206524841494    -2.977172348419     1.007825032230
         H            4.201616312402    -2.343344841494    -1.838792348419     1.007825032230
         C           -1.696763687598     1.412625158506     3.613627651581    12.000000000000
         C           -0.987763687598     0.815625158506     1.154627651581    12.000000000000
         C           -1.288763687598     1.744625158506     2.218627651581    12.000000000000
         C           -0.614763687598     1.582625158506     0.022627651581    12.000000000000
         C           -1.088763687598     2.990625158506     1.704627651581    12.000000000000
         C           -0.646763687598    -1.161374841494    -0.175372348419    12.000000000000
         C           -0.308763687598    -0.376374841494    -1.280372348419    12.000000000000
         C           -0.981763687598    -0.586374841494     1.042627651581    12.000000000000
         C           -0.279763687598     1.004625158506    -1.194372348419    12.000000000000
         N           -0.707763687598     2.901625158506     0.388627651581    14.003074004430
         H           -0.636763687598    -2.238374841494    -0.273372348419     1.007825032230
         H           -0.069763687598    -0.854374841494    -2.219372348419     1.007825032230
         H           -1.234763687598    -1.200374841494     1.893627651581     1.007825032230
         H           -0.019763687598     1.615625158506    -2.046372348419     1.007825032230
         H           -1.291763687598     2.188625158506     4.264627651581     1.007825032230
         H           -1.216763687598     0.474625158506     3.894627651581     1.007825032230
         H           -1.225763687598     3.915625158506     2.254627651581     1.007825032230
         H           -0.537763687598     3.700625158506    -0.210372348419     1.007825032230
         H           -2.778103687598     1.334975158506     3.799837651581     1.007825032230

  Running in c1 symmetry.

  Rotational constants: A =      0.05467  B =      0.00982  C =      0.00896 [cm^-1]
  Rotational constants: A =   1638.92449  B =    294.31862  C =    268.46891 [MHz]
  Nuclear repulsion =  725.445689926184741

  Charge       = 0
  Multiplicity = 1
  Electrons    = 96
  Nalpha       = 48
  Nbeta        = 48

  ==> Algorithm <==

  SCF Algorithm Type is PK.
  DIIS enabled.
  MOM disabled.
  Fractional occupation disabled.
  Guess Type is SAD.
  Energy threshold   = 1.00e-06
  Density threshold  = 1.00e-10
  Integral threshold = 0.00e+00

  ==> Primary Basis <==

  Basis Set: CC-PVDZ
    Blend: CC-PVDZ
    Number of shells: 129
    Number of basis function: 267
    Number of Cartesian functions: 280
    Spherical Harmonics?: true
    Max angular momentum: 2

  ==> Pre-Iterations <==

   -------------------------------------------------------
    Irrep   Nso     Nmo     Nalpha   Nbeta   Ndocc  Nsocc
   -------------------------------------------------------
     A        267     267       0       0       0       0
   -------------------------------------------------------
    Total     267     267      48      48      48       0
   -------------------------------------------------------

  ==> Integral Setup <==

  Using integral reordering PK algorithm.
  Sizing the integral batches needed.
  Building batch lookup table.
   Calculation information:
      Number of atoms:                  30
      Number of AO shells:             129
      Number of primitives:            371
      Number of atomic orbitals:       280
      Number of basis functions:       267

      Integral cutoff                 1.00e-12
      Number of threads:                 1

	Batch   1 pq = [       0,    9405] index = [             0,44231715] size =     44231715
	Batch   2 pq = [    9405,   13301] index = [      44231715,88464951] size =     44233236
	Batch   3 pq = [   13301,   16290] index = [      88464951,132690195] size =     44225244
	Batch   4 pq = [   16290,   18810] index = [     132690195,176917455] size =     44227260
	Batch   5 pq = [   18810,   21030] index = [     176917455,221140965] size =     44223510
	Batch   6 pq = [   21030,   23037] index = [     221140965,265363203] size =     44222238
	Batch   7 pq = [   23037,   24883] index = [     265363203,309594286] size =     44231083
	Batch   8 pq = [   24883,   26601] index = [     309594286,353819901] size =     44225615
	Batch   9 pq = [   26601,   28214] index = [     353819901,398029005] size =     44209104
	Batch  10 pq = [   28214,   29740] index = [     398029005,442248670] size =     44219665
	Batch  11 pq = [   29740,   31191] index = [     442248670,486454836] size =     44206166
	Batch  12 pq = [   31191,   32578] index = [     486454836,530679331] size =     44224495
	Batch  13 pq = [   32578,   33908] index = [     530679331,574893186] size =     44213855
	Batch  14 pq = [   33908,   35188] index = [     574893186,619115266] size =     44222080
	Batch  15 pq = [   35188,   35778] index = [     619115266,640050531] size =     20935265
  Task number: 58
  Buffer size: 11059200
  Buffer per thread: 2
  We computed 30221203 shell quartets total.
  Whereas there are 35158305 unique shell quartets.

  ==> DiskJK: Disk-Based J/K Matrices <==

    J tasked:                  Yes
    K tasked:                  Yes
    wK tasked:                  No
    Memory [MiB]:              375
    Schwarz Cutoff:          1E-12

    OpenMP threads:              1

  Minimum eigenvalue in the overlap matrix is 2.3698841030E-04.
  Using Symmetric Orthogonalization.

  SCF Guess: Superposition of Atomic Densities via on-the-fly atomic UHF.

  ==> Iterations <==

                        Total Energy        Delta E     RMS |[F,P]|

   @RHF iter SAD:  -518.06387845645361   -5.18064e+02   0.00000e+00
   @RHF iter   1:  -518.49198504595938   -4.28107e-01   2.50201e-03 DIIS
   @RHF iter   2:  -518.75167323483799   -2.59688e-01   1.11253e-03 DIIS
   @RHF iter   3:  -518.79843844951142   -4.67652e-02   2.85840e-04 DIIS
   @RHF iter   4:  -518.80259911751773   -4.16067e-03   1.30188e-04 DIIS
   @RHF iter   5:  -518.80327596802124   -6.76851e-04   1.93945e-05 DIIS
   @RHF iter   6:  -518.80330675891867   -3.07909e-05   8.47666e-06 DIIS
   @RHF iter   7:  -518.80331286234980   -6.10343e-06   3.43768e-06 DIIS
   @RHF iter   8:  -518.80331444883791   -1.58649e-06   1.43757e-06 DIIS
   @RHF iter   9:  -518.80331480536643   -3.56529e-07   6.20881e-07 DIIS
   @RHF iter  10:  -518.80331487444971   -6.90833e-08   2.81490e-07 DIIS
   @RHF iter  11:  -518.80331489118339   -1.67337e-08   1.09205e-07 DIIS
   @RHF iter  12:  -518.80331489372804   -2.54465e-09   3.97338e-08 DIIS
   @RHF iter  13:  -518.80331489391654   -1.88493e-10   1.12494e-08 DIIS
   @RHF iter  14:  -518.80331489392563   -9.09495e-12   4.03777e-09 DIIS
   @RHF iter  15:  -518.80331489392927   -3.63798e-12   1.99217e-09 DIIS
   @RHF iter  16:  -518.80331489392768    1.59162e-12   8.65995e-10 DIIS
   @RHF iter  17:  -518.80331489393757   -9.89075e-12   4.29355e-10 DIIS
   @RHF iter  18:  -518.80331489393996   -2.38742e-12   1.64960e-10 DIIS
   @RHF iter  19:  -518.80331489393006    9.89075e-12   6.10910e-11 DIIS
  Energy and wave function converged.

  ==> Post-Iterations <==

    Orbital Energies [Eh]
    ---------------------

    Doubly Occupied:

       1A    -15.600777     2A    -11.263614     3A    -11.263001
       4A    -11.230713     5A    -11.229569     6A    -11.227113
       7A    -11.225548     8A    -11.221143     9A    -11.219887
      10A    -11.217375    11A    -11.214437    12A    -11.213802
      13A    -11.211272    14A     -1.294532    15A     -1.128779
      16A     -1.072427    17A     -1.048828    18A     -0.997709
      19A     -0.988126    20A     -0.930610    21A     -0.920419
      22A     -0.839886    23A     -0.803287    24A     -0.793647
      25A     -0.752287    26A     -0.719807    27A     -0.662287
      28A     -0.642963    29A     -0.621618    30A     -0.603085
      31A     -0.592008    32A     -0.591124    33A     -0.589071
      34A     -0.567584    35A     -0.551958    36A     -0.545726
      37A     -0.538470    38A     -0.528932    39A     -0.525975
      40A     -0.493392    41A     -0.472495    42A     -0.470300
      43A     -0.464654    44A     -0.464052    45A     -0.457753
      46A     -0.371230    47A     -0.295755    48A     -0.274288

    Virtual:

      49A      0.125105    50A      0.169253    51A      0.174507
      52A      0.182409    53A      0.191615    54A      0.207290
      55A      0.211710    56A      0.220214    57A      0.226528
      58A      0.242387    59A      0.244608    60A      0.257543
      61A      0.263378    62A      0.274812    63A      0.290265
      64A      0.295425    65A      0.300340    66A      0.308383
      67A      0.328430    68A      0.343698    69A      0.372406
      70A      0.374047    71A      0.386527    72A      0.407008
      73A      0.421141    74A      0.433130    75A      0.448019
      76A      0.473378    77A      0.483607    78A      0.501441
      79A      0.512222    80A      0.581235    81A      0.594256
      82A      0.608987    83A      0.612455    84A      0.616969
      85A      0.631725    86A      0.635885    87A      0.648269
      88A      0.660472    89A      0.670555    90A      0.701198
      91A      0.710379    92A      0.718499    93A      0.727800
      94A      0.735789    95A      0.741358    96A      0.745755
      97A      0.755558    98A      0.764081    99A      0.770138
     100A      0.787715   101A      0.790127   102A      0.796473
     103A      0.803753   104A      0.824906   105A      0.834787
     106A      0.853556   107A      0.869110   108A      0.876486
     109A      0.880491   110A      0.888244   111A      0.894443
     112A      0.899525   113A      0.901346   114A      0.903491
     115A      0.907215   116A      0.917518   117A      0.919628
     118A      0.924859   119A      0.932932   120A      0.948192
     121A      0.954298   122A      0.958247   123A      0.974398
     124A      0.975306   125A      0.989995   126A      1.001105
     127A      1.007862   128A      1.019285   129A      1.057475
     130A      1.076364   131A      1.100668   132A      1.116005
     133A      1.125786   134A      1.132961   135A      1.147128
     136A      1.160862   137A      1.176509   138A      1.191756
     139A      1.213476   140A      1.215989   141A      1.229947
     142A      1.236339   143A      1.242782   144A      1.255389
     145A      1.277313   146A      1.287698   147A      1.303321
     148A      1.327948   149A      1.339485   150A      1.361359
     151A      1.373760   152A      1.396750   153A      1.425436
     154A      1.448170   155A      1.477472   156A      1.501150
     157A      1.515346   158A      1.542720   159A      1.544950
     160A      1.573656   161A      1.601721   162A      1.617862
     163A      1.639524   164A      1.650606   165A      1.664817
     166A      1.679074   167A      1.689519   168A      1.695696
     169A      1.704355   170A      1.709396   171A      1.739254
     172A      1.764396   173A      1.771394   174A      1.787359
     175A      1.815512   176A      1.823575   177A      1.831642
     178A      1.864034   179A      1.876268   180A      1.883339
     181A      1.889356   182A      1.893471   183A      1.904644
     184A      1.905165   185A      1.910602   186A      1.923177
     187A      1.925919   188A      1.934293   189A      1.939867
     190A      1.950541   191A      1.963163   192A      1.973591
     193A      1.984549   194A      1.989890   195A      1.994481
     196A      2.000721   197A      2.009898   198A      2.011832
     199A      2.016499   200A      2.027248   201A      2.045221
     202A      2.070648   203A      2.078448   204A      2.086178
     205A      2.091435   206A      2.106137   207A      2.112327
     208A      2.125307   209A      2.137438   210A      2.144981
     211A      2.162176   212A      2.170264   213A      2.185047
     214A      2.189928   215A      2.230996   216A      2.264676
     217A      2.285505   218A      2.294601   219A      2.300122
     220A      2.306663   221A      2.321053   222A      2.338852
     223A      2.344335   224A      2.355654   225A      2.361401
     226A      2.401974   227A      2.406966   228A      2.454075
     229A      2.468059   230A      2.490299   231A      2.541436
     232A      2.548808   233A      2.580360   234A      2.589275
     235A      2.603045   236A      2.623292   237A      2.627032
     238A      2.637776   239A      2.664329   240A      2.683327
     241A      2.710724   242A      2.758688   243A      2.768532
     244A      2.770974   245A      2.783700   246A      2.785192
     247A      2.792385   248A      2.805349   249A      2.825811
     250A      2.832622   251A      2.862347   252A      2.886988
     253A      2.913806   254A      2.923420   255A      2.959058
     256A      2.970695   257A      2.973848   258A      3.026280
     259A      3.052580   260A      3.075176   261A      3.093933
     262A      3.123390   263A      3.204933   264A      3.302349
     265A      3.382453   266A      3.743340   267A      3.953726

    Final Occupation by Irrep:
              A
    DOCC [    48 ]

  @RHF Final Energy:  -518.80331489393006

   => Energetics <=

    Nuclear Repulsion Energy =            725.4456899261847411
    One-Electron Energy =               -2140.5913807452070614
    Two-Electron Energy =                 896.3423759250922558
    Total Energy =                       -518.8033148939300645

Computation Completed

Properties will be evaluated at   0.000000,   0.000000,   0.000000 [a0]

Properties computed using the SCF density matrix

  Nuclear Dipole Moment: [e a0]
     X:    11.1763      Y:   -15.5293      Z:    -6.8328

  Electronic Dipole Moment: [e a0]
     X:   -11.1784      Y:    16.3775      Z:     6.7998

  Dipole Moment: [e a0]
     X:    -0.0021      Y:     0.8481      Z:    -0.0330     Total:     0.8488

  Dipole Moment: [D]
     X:    -0.0053      Y:     2.1558      Z:    -0.0839     Total:     2.1574

*** tstop() called on ds3 at Mon Apr 27 08:58:27 2020
Module time:
	user time   =     250.11 seconds =       4.17 minutes
	system time =     102.93 seconds =       1.72 minutes
	total time  =       1039 seconds =      17.32 minutes
Total time:
	user time   =     250.11 seconds =       4.17 minutes
	system time =     102.93 seconds =       1.72 minutes
	total time  =       1039 seconds =      17.32 minutes
                                     G D M A

                                 by Anthony Stone

                           version 2.2.06, 22 June 2011

               Distributed Multipoles from Gaussian wavefunctions

Starting at 8:58:28 on 27 Apr 2020

Using SCF density matrix from file ./SSI/SSI-094ILE-114TRP-1-dimer.test.1046.fchk

                         Distributed Multipole Analysis

Standard DMA

Positions and radii in angstrom
Multipole moments in atomic units, ea_0^k for rank k

C          x =  2.121236  y = -2.822375  z = -2.192372 angstrom
           Maximum rank =  0   Radius =  0.650 angstrom
                   Q00  =  -0.088212

C          x =  3.470236  y = -2.252375  z = -2.655372 angstrom
           Maximum rank =  0   Radius =  0.650 angstrom
                   Q00  =  -0.230576

C          x =  2.127236  y = -4.347375  z = -2.100372 angstrom
           Maximum rank =  0   Radius =  0.650 angstrom
                   Q00  =  -0.246022

H          x =  1.872236  y = -2.411375  z = -1.213372 angstrom
           Maximum rank =  0   Radius =  0.325 angstrom
                   Q00  =   0.058980

H          x =  1.325236  y = -2.535375  z = -2.872372 angstrom
           Maximum rank =  0   Radius =  0.325 angstrom
                   Q00  =   0.038687

H          x =  3.828236  y = -2.836375  z = -3.505372 angstrom
           Maximum rank =  0   Radius =  0.325 angstrom
                   Q00  =   0.070952

H          x =  2.831236  y = -4.699375  z = -1.349372 angstrom
           Maximum rank =  0   Radius =  0.325 angstrom
                   Q00  =   0.077542

H          x =  1.129236  y = -4.683375  z = -1.820372 angstrom
           Maximum rank =  0   Radius =  0.325 angstrom
                   Q00  =   0.079947

H          x =  2.385236  y = -4.777375  z = -3.068372 angstrom
           Maximum rank =  0   Radius =  0.325 angstrom
                   Q00  =   0.075599

H          x =  3.357746  y = -1.206525  z = -2.977172 angstrom
           Maximum rank =  0   Radius =  0.325 angstrom
                   Q00  =   0.084100

H          x =  4.201616  y = -2.343345  z = -1.838792 angstrom
           Maximum rank =  0   Radius =  0.325 angstrom
                   Q00  =   0.080666

C          x = -1.696764  y =  1.412625  z =  3.613628 angstrom
           Maximum rank =  0   Radius =  0.650 angstrom
                   Q00  =  -0.212086

C          x = -0.987764  y =  0.815625  z =  1.154628 angstrom
           Maximum rank =  0   Radius =  0.650 angstrom
                   Q00  =  -0.053804

C          x = -1.288764  y =  1.744625  z =  2.218628 angstrom
           Maximum rank =  0   Radius =  0.650 angstrom
                   Q00  =  -0.122121

C          x = -0.614764  y =  1.582625  z =  0.022628 angstrom
           Maximum rank =  0   Radius =  0.650 angstrom
                   Q00  =   0.266395

C          x = -1.088764  y =  2.990625  z =  1.704628 angstrom
           Maximum rank =  0   Radius =  0.650 angstrom
                   Q00  =   0.073394

C          x = -0.646764  y = -1.161375  z = -0.175372 angstrom
           Maximum rank =  0   Radius =  0.650 angstrom
                   Q00  =  -0.060956

C          x = -0.308764  y = -0.376375  z = -1.280372 angstrom
           Maximum rank =  0   Radius =  0.650 angstrom
                   Q00  =  -0.065848

C          x = -0.981764  y = -0.586375  z =  1.042628 angstrom
           Maximum rank =  0   Radius =  0.650 angstrom
                   Q00  =  -0.094698

C          x = -0.279764  y =  1.004625  z = -1.194372 angstrom
           Maximum rank =  0   Radius =  0.650 angstrom
                   Q00  =  -0.119151

N          x = -0.707764  y =  2.901625  z =  0.388628 angstrom
           Maximum rank =  0   Radius =  0.650 angstrom
                   Q00  =  -0.495868

H          x = -0.636764  y = -2.238375  z = -0.273372 angstrom
           Maximum rank =  0   Radius =  0.325 angstrom
                   Q00  =   0.058531

H          x = -0.069764  y = -0.854375  z = -2.219372 angstrom
           Maximum rank =  0   Radius =  0.325 angstrom
                   Q00  =   0.064078

H          x = -1.234764  y = -1.200375  z =  1.893628 angstrom
           Maximum rank =  0   Radius =  0.325 angstrom
                   Q00  =   0.069711

H          x = -0.019764  y =  1.615625  z = -2.046372 angstrom
           Maximum rank =  0   Radius =  0.325 angstrom
                   Q00  =   0.072127

H          x = -1.291764  y =  2.188625  z =  4.264628 angstrom
           Maximum rank =  0   Radius =  0.325 angstrom
                   Q00  =   0.100497

H          x = -1.216764  y =  0.474625  z =  3.894628 angstrom
           Maximum rank =  0   Radius =  0.325 angstrom
                   Q00  =   0.102506

H          x = -1.225764  y =  3.915625  z =  2.254628 angstrom
           Maximum rank =  0   Radius =  0.325 angstrom
                   Q00  =   0.100320

H          x = -0.537764  y =  3.700625  z = -0.210372 angstrom
           Maximum rank =  0   Radius =  0.325 angstrom
                   Q00  =   0.215574

H          x = -2.778104  y =  1.334975  z =  3.799838 angstrom
           Maximum rank =  0   Radius =  0.325 angstrom
                   Q00  =   0.099733

Total multipoles referred to origin at
           x =   0.000000,  y =    0.000000,  z =    0.000000 angstrom
                   Q00  =  -0.000000

Finished at 8:58:28 on 27 Apr 2020

  DMA results are available in the Python driver through the
	  variable('DMA DISTRIBUTED MULTIPOLES')
  and
	  variable('DMA TOTAL MULTIPOLES')
  commands.

    Psi4 stopped on: Monday, 27 April 2020 08:58AM
    Psi4 wall time for execution: 0:17:19.80

*** Psi4 exiting successfully. Buy a developer a beer!
