                               Psi4 1.3.2 release

  ==> Input File <==

--------------------------------------------------------------------------
import numpy as np
set {scf_type pk
basis cc-pvdz
d_convergence 10
gdma_switch   0
gdma_limit    0
gdma_origin   [ 0.0,  0.0,  0.0 ]
}
molecule test {
    units Angstrom
    1 1
    --
    1 1
    C                1.856358692173413    -1.334600172680169    -1.479451269663757
    C                1.009358692173413    -1.579600172680169    -2.722451269663757
    N                3.146358692173413    -2.071600172680169    -1.552451269663757
    H                2.033358692173413    -0.258600172680169    -1.371451269663757
    H                1.292358692173413    -1.668600172680169    -0.601451269663757
    H                0.923358692173413    -2.654600172680170    -2.899451269663756
    H                1.519358692173413    -1.119600172680169    -3.564451269663756
    H                3.712358692173413    -1.765600172680169    -2.335451269663757
    H                3.692358692173413    -1.923600172680169    -0.710451269663756
    H                2.999358692173413    -3.070600172680169    -1.636451269663757
    H                0.000108692173413    -1.154575172680169    -2.618716269663757
    C               -2.047641307826587     3.131399827319830    -0.355451269663757
    C               -0.321641307826587    -0.405600172680169     1.361548730336243
    C               -1.679641307826587    -0.368600172680169     1.072548730336243
    C                0.482358692173413     0.699399827319831     1.094548730336243
    C               -2.229641307826587     0.781399827319830     0.516548730336243
    C               -0.075641307826587     1.845399827319831     0.537548730336244
    C               -1.435641307826587     1.894399827319831     0.241548730336243
    O                0.226358692173413    -1.526600172680169     1.905548730336244
    H               -2.305641307826587    -1.223600172680169     1.284548730336244
    H               -0.435641307826587    -2.210600172680169     2.065548730336244
    H                1.537358692173412     0.662399827319831     1.330548730336243
    H               -3.290641307826587     0.811399827319831     0.296548730336243
    H                0.553358692173413     2.704399827319830     0.336548730336243
    H               -1.387641307826588     3.988399827319831    -0.210451269663757
    H               -2.961641307826588     3.335399827319831     0.204548730336243
    H               -2.303801307826587     3.031100827319831    -1.420497269663757

}
e, wfn = energy('scf', return_wfn=True)
gdma(wfn)
dmavals = variable('DMA DISTRIBUTED MULTIPOLES')
charges = np.array(dmavals)
print(charges)
np.save('SSI-002LYS-082TYR-1-dimer.npy', np.array(charges))--------------------------------------------------------------------------

*** tstart() called on ds3
*** at Sun Apr 26 23:26:25 2020

   => Loading Basis Set <=

    Name: CC-PVDZ
    Role: ORBITAL
    Keyword: BASIS
    atoms 1-2, 12-18  entry C          line   138 file /theoryfs2/ds/metcalf/miniconda2/envs/tf2gpu/share/psi4/basis/cc-pvdz.gbs
    atoms 3           entry N          line   168 file /theoryfs2/ds/metcalf/miniconda2/envs/tf2gpu/share/psi4/basis/cc-pvdz.gbs
    atoms 4-11, 20-27 entry H          line    22 file /theoryfs2/ds/metcalf/miniconda2/envs/tf2gpu/share/psi4/basis/cc-pvdz.gbs
    atoms 19          entry O          line   198 file /theoryfs2/ds/metcalf/miniconda2/envs/tf2gpu/share/psi4/basis/cc-pvdz.gbs

         ---------------------------------------------------------
                                   SCF
               by Justin Turney, Rob Parrish, Andy Simmonett
                          and Daniel G. A. Smith
                              RHF Reference
                        1 Threads,    500 MiB Core
         ---------------------------------------------------------

  ==> Geometry <==

    Molecular point group: c1
    Full point group: C1

    Geometry (in Angstrom), charge = 1, multiplicity = 1:

       Center              X                  Y                   Z               Mass
    ------------   -----------------  -----------------  -----------------  -----------------
         C            1.856358692173    -1.334600172680    -1.479451269664    12.000000000000
         C            1.009358692173    -1.579600172680    -2.722451269664    12.000000000000
         N            3.146358692173    -2.071600172680    -1.552451269664    14.003074004430
         H            2.033358692173    -0.258600172680    -1.371451269664     1.007825032230
         H            1.292358692173    -1.668600172680    -0.601451269664     1.007825032230
         H            0.923358692173    -2.654600172680    -2.899451269664     1.007825032230
         H            1.519358692173    -1.119600172680    -3.564451269664     1.007825032230
         H            3.712358692173    -1.765600172680    -2.335451269664     1.007825032230
         H            3.692358692173    -1.923600172680    -0.710451269664     1.007825032230
         H            2.999358692173    -3.070600172680    -1.636451269664     1.007825032230
         H            0.000108692173    -1.154575172680    -2.618716269664     1.007825032230
         C           -2.047641307827     3.131399827320    -0.355451269664    12.000000000000
         C           -0.321641307827    -0.405600172680     1.361548730336    12.000000000000
         C           -1.679641307827    -0.368600172680     1.072548730336    12.000000000000
         C            0.482358692173     0.699399827320     1.094548730336    12.000000000000
         C           -2.229641307827     0.781399827320     0.516548730336    12.000000000000
         C           -0.075641307827     1.845399827320     0.537548730336    12.000000000000
         C           -1.435641307827     1.894399827320     0.241548730336    12.000000000000
         O            0.226358692173    -1.526600172680     1.905548730336    15.994914619570
         H           -2.305641307827    -1.223600172680     1.284548730336     1.007825032230
         H           -0.435641307827    -2.210600172680     2.065548730336     1.007825032230
         H            1.537358692173     0.662399827320     1.330548730336     1.007825032230
         H           -3.290641307827     0.811399827320     0.296548730336     1.007825032230
         H            0.553358692173     2.704399827320     0.336548730336     1.007825032230
         H           -1.387641307827     3.988399827320    -0.210451269664     1.007825032230
         H           -2.961641307827     3.335399827320     0.204548730336     1.007825032230
         H           -2.303801307827     3.031100827320    -1.420497269664     1.007825032230

  Running in c1 symmetry.

  Rotational constants: A =      0.04543  B =      0.01782  C =      0.01530 [cm^-1]
  Rotational constants: A =   1361.83887  B =    534.10324  C =    458.54991 [MHz]
  Nuclear repulsion =  600.171432736311431

  Charge       = 1
  Multiplicity = 1
  Electrons    = 84
  Nalpha       = 42
  Nbeta        = 42

  ==> Algorithm <==

  SCF Algorithm Type is PK.
  DIIS enabled.
  MOM disabled.
  Fractional occupation disabled.
  Guess Type is SAD.
  Energy threshold   = 1.00e-06
  Density threshold  = 1.00e-10
  Integral threshold = 0.00e+00

  ==> Primary Basis <==

  Basis Set: CC-PVDZ
    Blend: CC-PVDZ
    Number of shells: 114
    Number of basis function: 234
    Number of Cartesian functions: 245
    Spherical Harmonics?: true
    Max angular momentum: 2

  ==> Pre-Iterations <==

   -------------------------------------------------------
    Irrep   Nso     Nmo     Nalpha   Nbeta   Ndocc  Nsocc
   -------------------------------------------------------
     A        234     234       0       0       0       0
   -------------------------------------------------------
    Total     234     234      42      42      42       0
   -------------------------------------------------------

  ==> Integral Setup <==

  Using integral reordering PK algorithm.
  Sizing the integral batches needed.
  Building batch lookup table.
   Calculation information:
      Number of atoms:                  27
      Number of AO shells:             114
      Number of primitives:            322
      Number of atomic orbitals:       245
      Number of basis functions:       234

      Integral cutoff                 1.00e-12
      Number of threads:                 1

	Batch   1 pq = [       0,    9405] index = [             0,44231715] size =     44231715
	Batch   2 pq = [    9405,   13301] index = [      44231715,88464951] size =     44233236
	Batch   3 pq = [   13301,   16290] index = [      88464951,132690195] size =     44225244
	Batch   4 pq = [   16290,   18810] index = [     132690195,176917455] size =     44227260
	Batch   5 pq = [   18810,   21030] index = [     176917455,221140965] size =     44223510
	Batch   6 pq = [   21030,   23037] index = [     221140965,265363203] size =     44222238
	Batch   7 pq = [   23037,   24883] index = [     265363203,309594286] size =     44231083
	Batch   8 pq = [   24883,   26601] index = [     309594286,353819901] size =     44225615
	Batch   9 pq = [   26601,   27495] index = [     353819901,378001260] size =     24181359
  Task number: 35
  Buffer size: 11059200
  Buffer per thread: 2
  We computed 19929952 shell quartets total.
  Whereas there are 21487290 unique shell quartets.

  ==> DiskJK: Disk-Based J/K Matrices <==

    J tasked:                  Yes
    K tasked:                  Yes
    wK tasked:                  No
    Memory [MiB]:              375
    Schwarz Cutoff:          1E-12

    OpenMP threads:              1

  Minimum eigenvalue in the overlap matrix is 3.1698256768E-04.
  Using Symmetric Orthogonalization.

  SCF Guess: Superposition of Atomic Densities via on-the-fly atomic UHF.

  ==> Iterations <==

                        Total Energy        Delta E     RMS |[F,P]|

   @RHF iter SAD:  -478.54050846563376   -4.78541e+02   0.00000e+00
   @RHF iter   1:  -478.99471373088397   -4.54205e-01   2.70667e-03 DIIS
   @RHF iter   2:  -479.22758503530747   -2.32871e-01   1.07691e-03 DIIS
   @RHF iter   3:  -479.25988624933751   -3.23012e-02   2.92572e-04 DIIS
   @RHF iter   4:  -479.26331861829959   -3.43237e-03   1.14489e-04 DIIS
   @RHF iter   5:  -479.26373808433078   -4.19466e-04   2.12287e-05 DIIS
   @RHF iter   6:  -479.26376119956512   -2.31152e-05   6.44021e-06 DIIS
   @RHF iter   7:  -479.26376319233947   -1.99277e-06   2.06720e-06 DIIS
   @RHF iter   8:  -479.26376344720461   -2.54865e-07   6.93028e-07 DIIS
   @RHF iter   9:  -479.26376347784833   -3.06437e-08   2.49463e-07 DIIS
   @RHF iter  10:  -479.26376348244810   -4.59977e-09   1.03948e-07 DIIS
   @RHF iter  11:  -479.26376348388487   -1.43677e-09   4.71170e-08 DIIS
   @RHF iter  12:  -479.26376348425833   -3.73461e-10   2.31548e-08 DIIS
   @RHF iter  13:  -479.26376348432291   -6.45741e-11   7.83745e-09 DIIS
   @RHF iter  14:  -479.26376348432859   -5.68434e-12   2.17353e-09 DIIS
   @RHF iter  15:  -479.26376348432865   -5.68434e-14   7.94935e-10 DIIS
   @RHF iter  16:  -479.26376348432984   -1.19371e-12   2.30437e-10 DIIS
   @RHF iter  17:  -479.26376348432700    2.84217e-12   9.71034e-11 DIIS
  Energy and wave function converged.

  ==> Post-Iterations <==

    Orbital Energies [Eh]
    ---------------------

    Doubly Occupied:

       1A    -20.691600     2A    -15.897643     3A    -11.466962
       4A    -11.400268     5A    -11.396615     6A    -11.336180
       7A    -11.333879     8A    -11.333054     9A    -11.331157
      10A    -11.327642    11A    -11.309266    12A     -1.517671
      13A     -1.507916    14A     -1.249862    15A     -1.210481
      16A     -1.132685    17A     -1.117745    18A     -1.047200
      19A     -1.017007    20A     -0.975334    21A     -0.959175
      22A     -0.943464    23A     -0.900899    24A     -0.851988
      25A     -0.833494    26A     -0.787797    27A     -0.767983
      28A     -0.738651    29A     -0.714914    30A     -0.703486
      31A     -0.697138    32A     -0.688407    33A     -0.684883
      34A     -0.673912    35A     -0.666995    36A     -0.656042
      37A     -0.614540    38A     -0.590966    39A     -0.581110
      40A     -0.565877    41A     -0.438997    42A     -0.400763

    Virtual:

      43A     -0.042541    44A      0.020021    45A      0.023701
      46A      0.033123    47A      0.045690    48A      0.058411
      49A      0.078766    50A      0.089511    51A      0.104529
      52A      0.120892    53A      0.127752    54A      0.130265
      55A      0.141405    56A      0.146232    57A      0.163172
      58A      0.171891    59A      0.184807    60A      0.196280
      61A      0.208482    62A      0.220367    63A      0.277670
      64A      0.283237    65A      0.330071    66A      0.363256
      67A      0.378882    68A      0.388908    69A      0.400184
      70A      0.405399    71A      0.411373    72A      0.439429
      73A      0.441352    74A      0.450639    75A      0.520303
      76A      0.545079    77A      0.560568    78A      0.565701
      79A      0.589402    80A      0.594665    81A      0.611230
      82A      0.614385    83A      0.627940    84A      0.631624
      85A      0.638639    86A      0.641540    87A      0.659994
      88A      0.664693    89A      0.673410    90A      0.681018
      91A      0.692303    92A      0.705600    93A      0.722305
      94A      0.726625    95A      0.739132    96A      0.748338
      97A      0.762930    98A      0.765730    99A      0.769947
     100A      0.786689   101A      0.790802   102A      0.798657
     103A      0.805823   104A      0.812224   105A      0.817219
     106A      0.826203   107A      0.836266   108A      0.849395
     109A      0.852055   110A      0.858379   111A      0.873941
     112A      0.911954   113A      0.925214   114A      0.938843
     115A      0.960652   116A      0.966567   117A      1.027440
     118A      1.046342   119A      1.047564   120A      1.061043
     121A      1.072846   122A      1.109163   123A      1.145059
     124A      1.153518   125A      1.167532   126A      1.194314
     127A      1.204684   128A      1.211032   129A      1.215134
     130A      1.226148   131A      1.250371   132A      1.262335
     133A      1.277883   134A      1.289699   135A      1.324054
     136A      1.377009   137A      1.395989   138A      1.414827
     139A      1.431465   140A      1.467063   141A      1.470074
     142A      1.489287   143A      1.514630   144A      1.522463
     145A      1.544415   146A      1.594373   147A      1.608993
     148A      1.613492   149A      1.646027   150A      1.651681
     151A      1.669123   152A      1.691119   153A      1.696068
     154A      1.705721   155A      1.719086   156A      1.734994
     157A      1.750992   158A      1.766706   159A      1.776526
     160A      1.785372   161A      1.793391   162A      1.802370
     163A      1.813223   164A      1.822897   165A      1.827599
     166A      1.829487   167A      1.847658   168A      1.853005
     169A      1.871731   170A      1.876777   171A      1.888062
     172A      1.908580   173A      1.913573   174A      1.929322
     175A      1.940613   176A      1.949746   177A      1.962659
     178A      1.971254   179A      1.974777   180A      1.977629
     181A      2.003484   182A      2.034450   183A      2.045693
     184A      2.055885   185A      2.079178   186A      2.101150
     187A      2.128093   188A      2.131566   189A      2.163649
     190A      2.170130   191A      2.175395   192A      2.184346
     193A      2.209659   194A      2.254015   195A      2.289110
     196A      2.313732   197A      2.321117   198A      2.332621
     199A      2.352423   200A      2.377268   201A      2.387942
     202A      2.409438   203A      2.443107   204A      2.449223
     205A      2.471093   206A      2.519597   207A      2.531993
     208A      2.550019   209A      2.565261   210A      2.607986
     211A      2.636785   212A      2.649917   213A      2.680295
     214A      2.687881   215A      2.699704   216A      2.705341
     217A      2.749925   218A      2.761963   219A      2.794515
     220A      2.812425   221A      2.869129   222A      2.892981
     223A      2.907870   224A      2.992288   225A      3.029803
     226A      3.102415   227A      3.135922   228A      3.143323
     229A      3.184073   230A      3.238918   231A      3.482558
     232A      3.573562   233A      3.877152   234A      4.084190

    Final Occupation by Irrep:
              A
    DOCC [    42 ]

  @RHF Final Energy:  -479.26376348432700

   => Energetics <=

    Nuclear Repulsion Energy =            600.1714327363114307
    One-Electron Energy =               -1828.7471039543970619
    Two-Electron Energy =                 749.3119077337585168
    Total Energy =                       -479.2637634843270007

Computation Completed

Properties will be evaluated at   0.000000,   0.000000,   0.000000 [a0]

Properties computed using the SCF density matrix

  Nuclear Dipole Moment: [e a0]
     X:     5.2215      Y:    -2.3608      Z:   -11.0958

  Electronic Dipole Moment: [e a0]
     X:    -1.0025      Y:    -1.0273      Z:     8.1586

  Dipole Moment: [e a0]
     X:     4.2189      Y:    -3.3882      Z:    -2.9373     Total:     6.1568

  Dipole Moment: [D]
     X:    10.7235      Y:    -8.6118      Z:    -7.4658     Total:    15.6491

*** tstop() called on ds3 at Sun Apr 26 23:33:34 2020
Module time:
	user time   =     143.59 seconds =       2.39 minutes
	system time =      50.83 seconds =       0.85 minutes
	total time  =        429 seconds =       7.15 minutes
Total time:
	user time   =     143.59 seconds =       2.39 minutes
	system time =      50.83 seconds =       0.85 minutes
	total time  =        429 seconds =       7.15 minutes
                                     G D M A

                                 by Anthony Stone

                           version 2.2.06, 22 June 2011

               Distributed Multipoles from Gaussian wavefunctions

Starting at 23:33:34 on 26 Apr 2020

Using SCF density matrix from file ./SSI/SSI-002LYS-082TYR-1-dimer.test.31557.fchk

                         Distributed Multipole Analysis

Standard DMA

Positions and radii in angstrom
Multipole moments in atomic units, ea_0^k for rank k

C          x =  1.856359  y = -1.334600  z = -1.479451 angstrom
           Maximum rank =  0   Radius =  0.650 angstrom
                   Q00  =  -0.025003

C          x =  1.009359  y = -1.579600  z = -2.722451 angstrom
           Maximum rank =  0   Radius =  0.650 angstrom
                   Q00  =  -0.219539

N          x =  3.146359  y = -2.071600  z = -1.552451 angstrom
           Maximum rank =  0   Radius =  0.650 angstrom
                   Q00  =  -0.140259

H          x =  2.033359  y = -0.258600  z = -1.371451 angstrom
           Maximum rank =  0   Radius =  0.325 angstrom
                   Q00  =   0.130613

H          x =  1.292359  y = -1.668600  z = -0.601451 angstrom
           Maximum rank =  0   Radius =  0.325 angstrom
                   Q00  =   0.124563

H          x =  0.923359  y = -2.654600  z = -2.899451 angstrom
           Maximum rank =  0   Radius =  0.325 angstrom
                   Q00  =   0.092963

H          x =  1.519359  y = -1.119600  z = -3.564451 angstrom
           Maximum rank =  0   Radius =  0.325 angstrom
                   Q00  =   0.100647

H          x =  3.712359  y = -1.765600  z = -2.335451 angstrom
           Maximum rank =  0   Radius =  0.325 angstrom
                   Q00  =   0.254296

H          x =  3.692359  y = -1.923600  z = -0.710451 angstrom
           Maximum rank =  0   Radius =  0.325 angstrom
                   Q00  =   0.257914

H          x =  2.999359  y = -3.070600  z = -1.636451 angstrom
           Maximum rank =  0   Radius =  0.325 angstrom
                   Q00  =   0.256125

H          x =  0.000109  y = -1.154575  z = -2.618716 angstrom
           Maximum rank =  0   Radius =  0.325 angstrom
                   Q00  =   0.157841

C          x = -2.047641  y =  3.131400  z = -0.355451 angstrom
           Maximum rank =  0   Radius =  0.650 angstrom
                   Q00  =  -0.188194

C          x = -0.321641  y = -0.405600  z =  1.361549 angstrom
           Maximum rank =  0   Radius =  0.650 angstrom
                   Q00  =   0.278764

C          x = -1.679641  y = -0.368600  z =  1.072549 angstrom
           Maximum rank =  0   Radius =  0.650 angstrom
                   Q00  =  -0.176962

C          x =  0.482359  y =  0.699400  z =  1.094549 angstrom
           Maximum rank =  0   Radius =  0.650 angstrom
                   Q00  =  -0.117976

C          x = -2.229641  y =  0.781400  z =  0.516549 angstrom
           Maximum rank =  0   Radius =  0.650 angstrom
                   Q00  =   0.041987

C          x = -0.075641  y =  1.845400  z =  0.537549 angstrom
           Maximum rank =  0   Radius =  0.650 angstrom
                   Q00  =  -0.053135

C          x = -1.435641  y =  1.894400  z =  0.241549 angstrom
           Maximum rank =  0   Radius =  0.650 angstrom
                   Q00  =  -0.134082

O          x =  0.226359  y = -1.526600  z =  1.905549 angstrom
           Maximum rank =  0   Radius =  0.650 angstrom
                   Q00  =  -0.689350

H          x = -2.305641  y = -1.223600  z =  1.284549 angstrom
           Maximum rank =  0   Radius =  0.325 angstrom
                   Q00  =   0.083901

H          x = -0.435641  y = -2.210600  z =  2.065549 angstrom
           Maximum rank =  0   Radius =  0.325 angstrom
                   Q00  =   0.420405

H          x =  1.537359  y =  0.662400  z =  1.330549 angstrom
           Maximum rank =  0   Radius =  0.325 angstrom
                   Q00  =   0.065560

H          x = -3.290641  y =  0.811400  z =  0.296549 angstrom
           Maximum rank =  0   Radius =  0.325 angstrom
                   Q00  =   0.085868

H          x =  0.553359  y =  2.704400  z =  0.336549 angstrom
           Maximum rank =  0   Radius =  0.325 angstrom
                   Q00  =   0.075052

H          x = -1.387641  y =  3.988400  z = -0.210451 angstrom
           Maximum rank =  0   Radius =  0.325 angstrom
                   Q00  =   0.105082

H          x = -2.961641  y =  3.335400  z =  0.204549 angstrom
           Maximum rank =  0   Radius =  0.325 angstrom
                   Q00  =   0.109091

H          x = -2.303801  y =  3.031101  z = -1.420497 angstrom
           Maximum rank =  0   Radius =  0.325 angstrom
                   Q00  =   0.103828

Total multipoles referred to origin at
           x =   0.000000,  y =    0.000000,  z =    0.000000 angstrom
                   Q00  =   1.000000

Finished at 23:33:34 on 26 Apr 2020

  DMA results are available in the Python driver through the
	  variable('DMA DISTRIBUTED MULTIPOLES')
  and
	  variable('DMA TOTAL MULTIPOLES')
  commands.

    Psi4 stopped on: Sunday, 26 April 2020 11:33PM
    Psi4 wall time for execution: 0:07:09.39

*** Psi4 exiting successfully. Buy a developer a beer!
