                               Psi4 1.3.2 release

  ==> Input File <==

--------------------------------------------------------------------------
import numpy as np
set {scf_type pk
basis cc-pvdz
d_convergence 10
gdma_switch   0
gdma_limit    0
gdma_origin   [ 0.0,  0.0,  0.0 ]
}
molecule test {
    units Angstrom
    0 1
    --
    0 1
    C                0.047997579029708    -1.803915402262391    -1.294699195672234
    C                0.839997579029708    -3.011915402262392    -1.779699195672234
    H               -0.682002420970292    -2.108915402262391    -0.543699195672234
    H                0.727997579029708    -1.096915402262391    -0.834699195672234
    H               -0.459002420970292    -1.328915402262391    -2.134699195672234
    H                1.394997579029708    -2.710915402262391    -2.668699195672234
    H                0.155767579029708    -3.833565402262392    -2.037999195672234
    H                1.564918579029708    -3.329609402262391    -1.015789195672234
    C                0.202997579029708     1.613084597737609    -0.164699195672234
    C               -1.095002420970292     1.895084597737609    -0.909699195672234
    C               -0.005002420970292     0.735084597737609     1.053300804327766
    O               -1.128002420970292     0.368084597737609     1.393300804327766
    N                1.083997579029708     0.384084597737609     1.723300804327766
    H                0.904997579029708     1.133084597737609    -0.840699195672234
    H                0.645997579029708     2.553084597737608     0.167300804327766
    H               -1.770002420970292     2.446084597737609    -0.252699195672234
    H               -1.563002420970292     0.942084597737609    -1.165699195672234
    H                0.980997579029708    -0.194915402262391     2.542300804327766
    H                2.000997579029708     0.706084597737609     1.427300804327766
    H               -0.954581420970292     2.462529597737608    -1.841519195672234

}
e, wfn = energy('scf', return_wfn=True)
gdma(wfn)
dmavals = variable('DMA DISTRIBUTED MULTIPOLES')
charges = np.array(dmavals)
print(charges)
np.save('SSI-029LEU-045GLN-1-dimer.npy', np.array(charges))--------------------------------------------------------------------------

*** tstart() called on ds3
*** at Tue Apr 28 11:49:34 2020

   => Loading Basis Set <=

    Name: CC-PVDZ
    Role: ORBITAL
    Keyword: BASIS
    atoms 1-2, 9-11  entry C          line   138 file /theoryfs2/ds/metcalf/miniconda2/envs/tf2gpu/share/psi4/basis/cc-pvdz.gbs
    atoms 3-8, 14-20 entry H          line    22 file /theoryfs2/ds/metcalf/miniconda2/envs/tf2gpu/share/psi4/basis/cc-pvdz.gbs
    atoms 12         entry O          line   198 file /theoryfs2/ds/metcalf/miniconda2/envs/tf2gpu/share/psi4/basis/cc-pvdz.gbs
    atoms 13         entry N          line   168 file /theoryfs2/ds/metcalf/miniconda2/envs/tf2gpu/share/psi4/basis/cc-pvdz.gbs

         ---------------------------------------------------------
                                   SCF
               by Justin Turney, Rob Parrish, Andy Simmonett
                          and Daniel G. A. Smith
                              RHF Reference
                        1 Threads,    500 MiB Core
         ---------------------------------------------------------

  ==> Geometry <==

    Molecular point group: c1
    Full point group: C1

    Geometry (in Angstrom), charge = 0, multiplicity = 1:

       Center              X                  Y                   Z               Mass
    ------------   -----------------  -----------------  -----------------  -----------------
         C            0.047997579030    -1.803915402262    -1.294699195672    12.000000000000
         C            0.839997579030    -3.011915402262    -1.779699195672    12.000000000000
         H           -0.682002420970    -2.108915402262    -0.543699195672     1.007825032230
         H            0.727997579030    -1.096915402262    -0.834699195672     1.007825032230
         H           -0.459002420970    -1.328915402262    -2.134699195672     1.007825032230
         H            1.394997579030    -2.710915402262    -2.668699195672     1.007825032230
         H            0.155767579030    -3.833565402262    -2.037999195672     1.007825032230
         H            1.564918579030    -3.329609402262    -1.015789195672     1.007825032230
         C            0.202997579030     1.613084597738    -0.164699195672    12.000000000000
         C           -1.095002420970     1.895084597738    -0.909699195672    12.000000000000
         C           -0.005002420970     0.735084597738     1.053300804328    12.000000000000
         O           -1.128002420970     0.368084597738     1.393300804328    15.994914619570
         N            1.083997579030     0.384084597738     1.723300804328    14.003074004430
         H            0.904997579030     1.133084597738    -0.840699195672     1.007825032230
         H            0.645997579030     2.553084597738     0.167300804328     1.007825032230
         H           -1.770002420970     2.446084597738    -0.252699195672     1.007825032230
         H           -1.563002420970     0.942084597738    -1.165699195672     1.007825032230
         H            0.980997579030    -0.194915402262     2.542300804328     1.007825032230
         H            2.000997579030     0.706084597738     1.427300804328     1.007825032230
         H           -0.954581420970     2.462529597738    -1.841519195672     1.007825032230

  Running in c1 symmetry.

  Rotational constants: A =      0.09185  B =      0.03937  C =      0.03312 [cm^-1]
  Rotational constants: A =   2753.59291  B =   1180.23461  C =    992.84530 [MHz]
  Nuclear repulsion =  311.374339788285056

  Charge       = 0
  Multiplicity = 1
  Electrons    = 58
  Nalpha       = 29
  Nbeta        = 29

  ==> Algorithm <==

  SCF Algorithm Type is PK.
  DIIS enabled.
  MOM disabled.
  Fractional occupation disabled.
  Guess Type is SAD.
  Energy threshold   = 1.00e-06
  Density threshold  = 1.00e-10
  Integral threshold = 0.00e+00

  ==> Primary Basis <==

  Basis Set: CC-PVDZ
    Blend: CC-PVDZ
    Number of shells: 81
    Number of basis function: 163
    Number of Cartesian functions: 170
    Spherical Harmonics?: true
    Max angular momentum: 2

  ==> Pre-Iterations <==

   -------------------------------------------------------
    Irrep   Nso     Nmo     Nalpha   Nbeta   Ndocc  Nsocc
   -------------------------------------------------------
     A        163     163       0       0       0       0
   -------------------------------------------------------
    Total     163     163      29      29      29       0
   -------------------------------------------------------

  ==> Integral Setup <==

  Using integral reordering PK algorithm.
  Sizing the integral batches needed.
  Building batch lookup table.
   Calculation information:
      Number of atoms:                  20
      Number of AO shells:              81
      Number of primitives:            219
      Number of atomic orbitals:       170
      Number of basis functions:       163

      Integral cutoff                 1.00e-12
      Number of threads:                 1

	Batch   1 pq = [       0,    9405] index = [             0,44231715] size =     44231715
	Batch   2 pq = [    9405,   13366] index = [      44231715,89331661] size =     45099946
  Task number: 9
  Buffer size: 11059200
  Buffer per thread: 2
  We computed 5210133 shell quartets total.
  Whereas there are 5516181 unique shell quartets.

  ==> DiskJK: Disk-Based J/K Matrices <==

    J tasked:                  Yes
    K tasked:                  Yes
    wK tasked:                  No
    Memory [MiB]:              375
    Schwarz Cutoff:          1E-12

    OpenMP threads:              1

  Minimum eigenvalue in the overlap matrix is 2.8967023227E-03.
  Using Symmetric Orthogonalization.

  SCF Guess: Superposition of Atomic Densities via on-the-fly atomic UHF.

  ==> Iterations <==

                        Total Energy        Delta E     RMS |[F,P]|

   @RHF iter SAD:  -324.99396797045131   -3.24994e+02   0.00000e+00
   @RHF iter   1:  -326.00318113324226   -1.00921e+00   4.13715e-03 DIIS
   @RHF iter   2:  -326.20260170768609   -1.99421e-01   2.28578e-03 DIIS
   @RHF iter   3:  -326.25772102646204   -5.51193e-02   4.99081e-04 DIIS
   @RHF iter   4:  -326.26161505948153   -3.89403e-03   2.04788e-04 DIIS
   @RHF iter   5:  -326.26230652723075   -6.91468e-04   2.91738e-05 DIIS
   @RHF iter   6:  -326.26233862712991   -3.20999e-05   1.15608e-05 DIIS
   @RHF iter   7:  -326.26234263801842   -4.01089e-06   4.96193e-06 DIIS
   @RHF iter   8:  -326.26234351645252   -8.78434e-07   1.91246e-06 DIIS
   @RHF iter   9:  -326.26234366036891   -1.43916e-07   4.14641e-07 DIIS
   @RHF iter  10:  -326.26234366618559   -5.81667e-09   1.32887e-07 DIIS
   @RHF iter  11:  -326.26234366663294   -4.47358e-10   3.47197e-08 DIIS
   @RHF iter  12:  -326.26234366667188   -3.89377e-11   8.00648e-09 DIIS
   @RHF iter  13:  -326.26234366667489   -3.01270e-12   1.68965e-09 DIIS
   @RHF iter  14:  -326.26234366667313    1.76215e-12   7.53562e-10 DIIS
   @RHF iter  15:  -326.26234366667632   -3.18323e-12   3.48134e-10 DIIS
   @RHF iter  16:  -326.26234366667290    3.41061e-12   1.33943e-10 DIIS
   @RHF iter  17:  -326.26234366667546   -2.55795e-12   5.33010e-11 DIIS
  Energy and wave function converged.

  ==> Post-Iterations <==

    Orbital Energies [Eh]
    ---------------------

    Doubly Occupied:

       1A    -20.505641     2A    -15.588585     3A    -11.344469
       4A    -11.239096     5A    -11.218271     6A    -11.217460
       7A    -11.211984     8A     -1.368486     9A     -1.215846
      10A     -1.046879    11A     -1.018204    12A     -0.887352
      13A     -0.834128    14A     -0.782219    15A     -0.721391
      16A     -0.664643    17A     -0.639256    18A     -0.599083
      19A     -0.596369    20A     -0.585502    21A     -0.547435
      22A     -0.523130    23A     -0.501948    24A     -0.496306
      25A     -0.491304    26A     -0.482765    27A     -0.479713
      28A     -0.410263    29A     -0.404008

    Virtual:

      30A      0.162516    31A      0.187158    32A      0.194818
      33A      0.206786    34A      0.223965    35A      0.244801
      36A      0.254911    37A      0.258595    38A      0.259748
      39A      0.266739    40A      0.295581    41A      0.297309
      42A      0.319141    43A      0.338685    44A      0.385801
      45A      0.406970    46A      0.420192    47A      0.476740
      48A      0.553828    49A      0.587433    50A      0.595401
      51A      0.604019    52A      0.619992    53A      0.651467
      54A      0.662289    55A      0.690636    56A      0.702762
      57A      0.717763    58A      0.744516    59A      0.802615
      60A      0.829652    61A      0.841163    62A      0.857831
      63A      0.868177    64A      0.884841    65A      0.890420
      66A      0.895151    67A      0.903107    68A      0.911218
      69A      0.911734    70A      0.920127    71A      0.925506
      72A      0.936706    73A      0.949723    74A      0.960985
      75A      0.972341    76A      1.010039    77A      1.046399
      78A      1.063421    79A      1.082119    80A      1.118797
      81A      1.125117    82A      1.138697    83A      1.162237
      84A      1.252989    85A      1.283034    86A      1.332547
      87A      1.343089    88A      1.380415    89A      1.416854
      90A      1.421818    91A      1.466623    92A      1.488195
      93A      1.494517    94A      1.511311    95A      1.589360
      96A      1.621107    97A      1.661023    98A      1.681024
      99A      1.692163   100A      1.700366   101A      1.758480
     102A      1.775739   103A      1.786842   104A      1.857528
     105A      1.860826   106A      1.884012   107A      1.887754
     108A      1.892924   109A      1.920306   110A      1.931975
     111A      1.935309   112A      1.942865   113A      1.947861
     114A      1.965091   115A      1.970660   116A      1.986327
     117A      1.993621   118A      2.010296   119A      2.020451
     120A      2.030209   121A      2.051963   122A      2.081214
     123A      2.129585   124A      2.134891   125A      2.156024
     126A      2.179701   127A      2.241530   128A      2.289460
     129A      2.307247   130A      2.321469   131A      2.345856
     132A      2.359912   133A      2.435137   134A      2.454418
     135A      2.485526   136A      2.489562   137A      2.544993
     138A      2.552260   139A      2.580346   140A      2.587286
     141A      2.593797   142A      2.620893   143A      2.625195
     144A      2.740787   145A      2.765219   146A      2.783523
     147A      2.809600   148A      2.842126   149A      2.844132
     150A      2.855504   151A      2.886912   152A      2.913659
     153A      2.953677   154A      2.961734   155A      2.980695
     156A      3.050710   157A      3.105810   158A      3.154913
     159A      3.305430   160A      3.521704   161A      3.533006
     162A      3.864963   163A      3.907378

    Final Occupation by Irrep:
              A
    DOCC [    29 ]

  @RHF Final Energy:  -326.26234366667546

   => Energetics <=

    Nuclear Repulsion Energy =            311.3743397882850559
    One-Electron Energy =               -1060.0298961186783799
    Two-Electron Energy =                 422.3932126637178612
    Total Energy =                       -326.2623436666754628

Computation Completed

Properties will be evaluated at   0.000000,   0.000000,   0.000000 [a0]

Properties computed using the SCF density matrix

  Nuclear Dipole Moment: [e a0]
     X:     2.7552      Y:    -4.0875      Z:    -8.6224

  Electronic Dipole Moment: [e a0]
     X:    -1.2192      Y:     4.4108      Z:     8.4759

  Dipole Moment: [e a0]
     X:     1.5360      Y:     0.3234      Z:    -0.1465     Total:     1.5765

  Dipole Moment: [D]
     X:     3.9041      Y:     0.8219      Z:    -0.3724     Total:     4.0070

*** tstop() called on ds3 at Tue Apr 28 11:50:19 2020
Module time:
	user time   =      33.41 seconds =       0.56 minutes
	system time =      13.47 seconds =       0.22 minutes
	total time  =         45 seconds =       0.75 minutes
Total time:
	user time   =      33.41 seconds =       0.56 minutes
	system time =      13.47 seconds =       0.22 minutes
	total time  =         45 seconds =       0.75 minutes
                                     G D M A

                                 by Anthony Stone

                           version 2.2.06, 22 June 2011

               Distributed Multipoles from Gaussian wavefunctions

Starting at 11:50:19 on 28 Apr 2020

Using SCF density matrix from file ./SSI/SSI-029LEU-045GLN-1-dimer.test.5712.fchk

                         Distributed Multipole Analysis

Standard DMA

Positions and radii in angstrom
Multipole moments in atomic units, ea_0^k for rank k

C          x =  0.047998  y = -1.803915  z = -1.294699 angstrom
           Maximum rank =  0   Radius =  0.650 angstrom
                   Q00  =  -0.225369

C          x =  0.839998  y = -3.011915  z = -1.779699 angstrom
           Maximum rank =  0   Radius =  0.650 angstrom
                   Q00  =  -0.231996

H          x = -0.682002  y = -2.108915  z = -0.543699 angstrom
           Maximum rank =  0   Radius =  0.325 angstrom
                   Q00  =   0.091784

H          x =  0.727998  y = -1.096915  z = -0.834699 angstrom
           Maximum rank =  0   Radius =  0.325 angstrom
                   Q00  =   0.054053

H          x = -0.459002  y = -1.328915  z = -2.134699 angstrom
           Maximum rank =  0   Radius =  0.325 angstrom
                   Q00  =   0.075739

H          x =  1.394998  y = -2.710915  z = -2.668699 angstrom
           Maximum rank =  0   Radius =  0.325 angstrom
                   Q00  =   0.072709

H          x =  0.155768  y = -3.833565  z = -2.037999 angstrom
           Maximum rank =  0   Radius =  0.325 angstrom
                   Q00  =   0.081570

H          x =  1.564919  y = -3.329609  z = -1.015789 angstrom
           Maximum rank =  0   Radius =  0.325 angstrom
                   Q00  =   0.075358

C          x =  0.202998  y =  1.613085  z = -0.164699 angstrom
           Maximum rank =  0   Radius =  0.650 angstrom
                   Q00  =  -0.191212

C          x = -1.095002  y =  1.895085  z = -0.909699 angstrom
           Maximum rank =  0   Radius =  0.650 angstrom
                   Q00  =  -0.209039

C          x = -0.005002  y =  0.735085  z =  1.053301 angstrom
           Maximum rank =  0   Radius =  0.650 angstrom
                   Q00  =   0.893701

O          x = -1.128002  y =  0.368085  z =  1.393301 angstrom
           Maximum rank =  0   Radius =  0.650 angstrom
                   Q00  =  -0.817460

N          x =  1.083998  y =  0.384085  z =  1.723301 angstrom
           Maximum rank =  0   Radius =  0.650 angstrom
                   Q00  =  -0.560563

H          x =  0.904998  y =  1.133085  z = -0.840699 angstrom
           Maximum rank =  0   Radius =  0.325 angstrom
                   Q00  =   0.085726

H          x =  0.645998  y =  2.553085  z =  0.167301 angstrom
           Maximum rank =  0   Radius =  0.325 angstrom
                   Q00  =   0.089484

H          x = -1.770002  y =  2.446085  z = -0.252699 angstrom
           Maximum rank =  0   Radius =  0.325 angstrom
                   Q00  =   0.102556

H          x = -1.563002  y =  0.942085  z = -1.165699 angstrom
           Maximum rank =  0   Radius =  0.325 angstrom
                   Q00  =   0.107362

H          x =  0.980998  y = -0.194915  z =  2.542301 angstrom
           Maximum rank =  0   Radius =  0.325 angstrom
                   Q00  =   0.219621

H          x =  2.000998  y =  0.706085  z =  1.427301 angstrom
           Maximum rank =  0   Radius =  0.325 angstrom
                   Q00  =   0.207863

H          x = -0.954581  y =  2.462530  z = -1.841519 angstrom
           Maximum rank =  0   Radius =  0.325 angstrom
                   Q00  =   0.078113

Total multipoles referred to origin at
           x =   0.000000,  y =    0.000000,  z =    0.000000 angstrom
                   Q00  =  -0.000000

Finished at 11:50:20 on 28 Apr 2020

  DMA results are available in the Python driver through the
	  variable('DMA DISTRIBUTED MULTIPOLES')
  and
	  variable('DMA TOTAL MULTIPOLES')
  commands.

    Psi4 stopped on: Tuesday, 28 April 2020 11:50AM
    Psi4 wall time for execution: 0:00:45.57

*** Psi4 exiting successfully. Buy a developer a beer!
