                               Psi4 1.3.2 release

  ==> Input File <==

--------------------------------------------------------------------------
import numpy as np
set {scf_type pk
basis cc-pvdz
d_convergence 10
gdma_switch   0
gdma_limit    0
gdma_origin   [ 0.0,  0.0,  0.0 ]
}
molecule test {
    units Angstrom
    0 1
    --
    0 1
    C               -1.178085243960065    -0.339390927219260    -3.790252115009098
    C                0.707914756039935    -0.508390927219260     0.136747884990902
    C               -0.184085243960065     0.522609072780740    -0.201252115009098
    C                0.991914756039935    -1.500390927219260    -0.812252115009098
    C               -0.798085243960065     0.552609072780740    -1.466252115009098
    C                0.376914756039935    -1.449390927219260    -2.097252115009098
    C               -0.510085243960065    -0.413390927219260    -2.430252115009098
    O                1.219914756039935    -0.547390927219260     1.415747884990902
    H                0.919914756039935     0.192609072780740     1.949747884990902
    H               -0.426085243960065     1.287609072780740     0.522747884990902
    H                1.662914756039935    -2.308390927219260    -0.556252115009098
    H               -1.485085243960065     1.355609072780740    -1.697252115009098
    H                0.588914756039935    -2.230390927219259    -2.815252115009098
    H               -2.013085243960065     0.358609072780740    -3.723252115009098
    H               -1.606085243960065    -1.315390927219260    -4.025252115009097
    H               -0.522525243960065    -0.012330927219260    -4.610783115009098
    C                0.435914756039935     1.526609072780740     3.791747884990902
    C               -1.062085243960065     1.736609072780740     4.220747884990902
    H                0.751914756039935     0.509609072780740     4.023747884990902
    H                0.545914756039935     1.731609072780740     2.728747884990903
    H                1.066914756039935     2.227609072780740     4.339747884990902
    H               -1.672085243960065     0.967609072780740     3.758747884990902
    H               -1.205795243960065     1.702837072780740     5.310797884990902
    H               -1.443115243960065     2.702383072780740     3.857297884990902

}
e, wfn = energy('scf', return_wfn=True)
gdma(wfn)
dmavals = variable('DMA DISTRIBUTED MULTIPOLES')
charges = np.array(dmavals)
print(charges)
np.save('SSI-064TYR-083LEU-1-dimer.npy', np.array(charges))--------------------------------------------------------------------------

*** tstart() called on ds3
*** at Tue Apr 28 10:43:48 2020

   => Loading Basis Set <=

    Name: CC-PVDZ
    Role: ORBITAL
    Keyword: BASIS
    atoms 1-7, 17-18  entry C          line   138 file /theoryfs2/ds/metcalf/miniconda2/envs/tf2gpu/share/psi4/basis/cc-pvdz.gbs
    atoms 8           entry O          line   198 file /theoryfs2/ds/metcalf/miniconda2/envs/tf2gpu/share/psi4/basis/cc-pvdz.gbs
    atoms 9-16, 19-24 entry H          line    22 file /theoryfs2/ds/metcalf/miniconda2/envs/tf2gpu/share/psi4/basis/cc-pvdz.gbs

         ---------------------------------------------------------
                                   SCF
               by Justin Turney, Rob Parrish, Andy Simmonett
                          and Daniel G. A. Smith
                              RHF Reference
                        1 Threads,    500 MiB Core
         ---------------------------------------------------------

  ==> Geometry <==

    Molecular point group: c1
    Full point group: C1

    Geometry (in Angstrom), charge = 0, multiplicity = 1:

       Center              X                  Y                   Z               Mass
    ------------   -----------------  -----------------  -----------------  -----------------
         C           -1.178085243960    -0.339390927219    -3.790252115009    12.000000000000
         C            0.707914756040    -0.508390927219     0.136747884991    12.000000000000
         C           -0.184085243960     0.522609072781    -0.201252115009    12.000000000000
         C            0.991914756040    -1.500390927219    -0.812252115009    12.000000000000
         C           -0.798085243960     0.552609072781    -1.466252115009    12.000000000000
         C            0.376914756040    -1.449390927219    -2.097252115009    12.000000000000
         C           -0.510085243960    -0.413390927219    -2.430252115009    12.000000000000
         O            1.219914756040    -0.547390927219     1.415747884991    15.994914619570
         H            0.919914756040     0.192609072781     1.949747884991     1.007825032230
         H           -0.426085243960     1.287609072781     0.522747884991     1.007825032230
         H            1.662914756040    -2.308390927219    -0.556252115009     1.007825032230
         H           -1.485085243960     1.355609072781    -1.697252115009     1.007825032230
         H            0.588914756040    -2.230390927219    -2.815252115009     1.007825032230
         H           -2.013085243960     0.358609072781    -3.723252115009     1.007825032230
         H           -1.606085243960    -1.315390927219    -4.025252115009     1.007825032230
         H           -0.522525243960    -0.012330927219    -4.610783115009     1.007825032230
         C            0.435914756040     1.526609072781     3.791747884991    12.000000000000
         C           -1.062085243960     1.736609072781     4.220747884991    12.000000000000
         H            0.751914756040     0.509609072781     4.023747884991     1.007825032230
         H            0.545914756040     1.731609072781     2.728747884991     1.007825032230
         H            1.066914756040     2.227609072781     4.339747884991     1.007825032230
         H           -1.672085243960     0.967609072781     3.758747884991     1.007825032230
         H           -1.205795243960     1.702837072781     5.310797884991     1.007825032230
         H           -1.443115243960     2.702383072781     3.857297884991     1.007825032230

  Running in c1 symmetry.

  Rotational constants: A =      0.08710  B =      0.01657  C =      0.01430 [cm^-1]
  Rotational constants: A =   2611.10731  B =    496.63160  C =    428.68311 [MHz]
  Nuclear repulsion =  485.358790063780759

  Charge       = 0
  Multiplicity = 1
  Electrons    = 76
  Nalpha       = 38
  Nbeta        = 38

  ==> Algorithm <==

  SCF Algorithm Type is PK.
  DIIS enabled.
  MOM disabled.
  Fractional occupation disabled.
  Guess Type is SAD.
  Energy threshold   = 1.00e-06
  Density threshold  = 1.00e-10
  Integral threshold = 0.00e+00

  ==> Primary Basis <==

  Basis Set: CC-PVDZ
    Blend: CC-PVDZ
    Number of shells: 102
    Number of basis function: 210
    Number of Cartesian functions: 220
    Spherical Harmonics?: true
    Max angular momentum: 2

  ==> Pre-Iterations <==

   -------------------------------------------------------
    Irrep   Nso     Nmo     Nalpha   Nbeta   Ndocc  Nsocc
   -------------------------------------------------------
     A        210     210       0       0       0       0
   -------------------------------------------------------
    Total     210     210      38      38      38       0
   -------------------------------------------------------

  ==> Integral Setup <==

  Using integral reordering PK algorithm.
  Sizing the integral batches needed.
  Building batch lookup table.
   Calculation information:
      Number of atoms:                  24
      Number of AO shells:             102
      Number of primitives:            290
      Number of atomic orbitals:       220
      Number of basis functions:       210

      Integral cutoff                 1.00e-12
      Number of threads:                 1

	Batch   1 pq = [       0,    9405] index = [             0,44231715] size =     44231715
	Batch   2 pq = [    9405,   13301] index = [      44231715,88464951] size =     44233236
	Batch   3 pq = [   13301,   16290] index = [      88464951,132690195] size =     44225244
	Batch   4 pq = [   16290,   18810] index = [     132690195,176917455] size =     44227260
	Batch   5 pq = [   18810,   21030] index = [     176917455,221140965] size =     44223510
	Batch   6 pq = [   21030,   22155] index = [     221140965,245433090] size =     24292125
  Task number: 23
  Buffer size: 11059200
  Buffer per thread: 2
  We computed 10390018 shell quartets total.
  Whereas there are 13799631 unique shell quartets.

  ==> DiskJK: Disk-Based J/K Matrices <==

    J tasked:                  Yes
    K tasked:                  Yes
    wK tasked:                  No
    Memory [MiB]:              375
    Schwarz Cutoff:          1E-12

    OpenMP threads:              1

  Minimum eigenvalue in the overlap matrix is 3.4983192836E-04.
  Using Symmetric Orthogonalization.

  SCF Guess: Superposition of Atomic Densities via on-the-fly atomic UHF.

  ==> Iterations <==

                        Total Energy        Delta E     RMS |[F,P]|

   @RHF iter SAD:  -422.50151406358475   -4.22502e+02   0.00000e+00
   @RHF iter   1:  -423.60832025648767   -1.10681e+00   2.89452e-03 DIIS
   @RHF iter   2:  -423.81482226876608   -2.06502e-01   1.20589e-03 DIIS
   @RHF iter   3:  -423.84694052555767   -3.21183e-02   2.90067e-04 DIIS
   @RHF iter   4:  -423.84983062142788   -2.89010e-03   1.23521e-04 DIIS
   @RHF iter   5:  -423.85022521809901   -3.94597e-04   2.00646e-05 DIIS
   @RHF iter   6:  -423.85024295499977   -1.77369e-05   6.53620e-06 DIIS
   @RHF iter   7:  -423.85024467868448   -1.72368e-06   2.18803e-06 DIIS
   @RHF iter   8:  -423.85024493506927   -2.56385e-07   8.15958e-07 DIIS
   @RHF iter   9:  -423.85024497789493   -4.28257e-08   3.34761e-07 DIIS
   @RHF iter  10:  -423.85024498659260   -8.69767e-09   1.42947e-07 DIIS
   @RHF iter  11:  -423.85024498939669   -2.80409e-09   6.19095e-08 DIIS
   @RHF iter  12:  -423.85024498986695   -4.70266e-10   2.77205e-08 DIIS
   @RHF iter  13:  -423.85024498993579   -6.88374e-11   8.37995e-09 DIIS
   @RHF iter  14:  -423.85024498993681   -1.02318e-12   2.37135e-09 DIIS
   @RHF iter  15:  -423.85024498994119   -4.37694e-12   7.65421e-10 DIIS
   @RHF iter  16:  -423.85024498993801    3.18323e-12   2.47317e-10 DIIS
   @RHF iter  17:  -423.85024498994142   -3.41061e-12   9.52641e-11 DIIS
  Energy and wave function converged.

  ==> Post-Iterations <==

    Orbital Energies [Eh]
    ---------------------

    Doubly Occupied:

       1A    -20.576142     2A    -11.301630     3A    -11.242874
       4A    -11.240605     5A    -11.239333     6A    -11.235685
       7A    -11.235532     8A    -11.234521     9A    -11.234005
      10A    -11.228812    11A     -1.388599    12A     -1.141811
      13A     -1.033550    14A     -1.025332    15A     -1.008443
      16A     -0.924442    17A     -0.861503    18A     -0.839371
      19A     -0.797386    20A     -0.726805    21A     -0.663130
      22A     -0.640409    23A     -0.612388    24A     -0.609797
      25A     -0.601091    26A     -0.580587    27A     -0.578957
      28A     -0.566814    29A     -0.564019    30A     -0.524608
      31A     -0.511559    32A     -0.506632    33A     -0.502344
      34A     -0.493574    35A     -0.482187    36A     -0.461745
      37A     -0.331748    38A     -0.301514

    Virtual:

      39A      0.126342    40A      0.156443    41A      0.162635
      42A      0.188545    43A      0.213976    44A      0.220838
      45A      0.221354    46A      0.238900    47A      0.243533
      48A      0.260715    49A      0.265257    50A      0.267234
      51A      0.275283    52A      0.283358    53A      0.307698
      54A      0.349832    55A      0.364524    56A      0.369760
      57A      0.377308    58A      0.443980    59A      0.452184
      60A      0.484027    61A      0.498275    62A      0.510451
      63A      0.578779    64A      0.594393    65A      0.606321
      66A      0.613982    67A      0.628117    68A      0.644518
      69A      0.662645    70A      0.678408    71A      0.693891
      72A      0.702542    73A      0.710806    74A      0.734623
      75A      0.737095    76A      0.743166    77A      0.754914
      78A      0.768997    79A      0.781025    80A      0.795592
      81A      0.800217    82A      0.823132    83A      0.843586
      84A      0.846651    85A      0.854116    86A      0.873573
      87A      0.879056    88A      0.882262    89A      0.885094
      90A      0.888677    91A      0.896518    92A      0.914470
      93A      0.919919    94A      0.924906    95A      0.935624
      96A      0.943307    97A      0.944605    98A      0.963682
      99A      0.971413   100A      1.018499   101A      1.050377
     102A      1.072381   103A      1.104139   104A      1.121096
     105A      1.138592   106A      1.144016   107A      1.171695
     108A      1.194369   109A      1.208278   110A      1.237011
     111A      1.239541   112A      1.244732   113A      1.265490
     114A      1.295300   115A      1.305545   116A      1.308583
     117A      1.321898   118A      1.354953   119A      1.388203
     120A      1.413062   121A      1.436707   122A      1.457649
     123A      1.498089   124A      1.527643   125A      1.529636
     126A      1.541468   127A      1.558525   128A      1.618601
     129A      1.641530   130A      1.683616   131A      1.685564
     132A      1.687110   133A      1.701540   134A      1.726526
     135A      1.742328   136A      1.777366   137A      1.798853
     138A      1.807826   139A      1.837726   140A      1.857496
     141A      1.864179   142A      1.878243   143A      1.887480
     144A      1.897754   145A      1.904642   146A      1.907771
     147A      1.912394   148A      1.918355   149A      1.919699
     150A      1.925647   151A      1.944411   152A      1.949590
     153A      1.958189   154A      1.969555   155A      1.977441
     156A      1.999208   157A      2.016741   158A      2.040638
     159A      2.051804   160A      2.061921   161A      2.070932
     162A      2.074007   163A      2.108115   164A      2.127758
     165A      2.151769   166A      2.162243   167A      2.197708
     168A      2.217618   169A      2.248299   170A      2.261846
     171A      2.268535   172A      2.298665   173A      2.307151
     174A      2.339321   175A      2.365728   176A      2.406764
     177A      2.414900   178A      2.449776   179A      2.467063
     180A      2.485420   181A      2.512157   182A      2.521224
     183A      2.537905   184A      2.541605   185A      2.599818
     186A      2.608800   187A      2.664167   188A      2.726108
     189A      2.749219   190A      2.767630   191A      2.777125
     192A      2.781146   193A      2.804556   194A      2.832882
     195A      2.843093   196A      2.847333   197A      2.886904
     198A      2.919918   199A      2.943717   200A      2.967147
     201A      3.004592   202A      3.060700   203A      3.102135
     204A      3.250460   205A      3.256832   206A      3.354256
     207A      3.563340   208A      3.645845   209A      3.950996
     210A      4.216587

    Final Occupation by Irrep:
              A
    DOCC [    38 ]

  @RHF Final Energy:  -423.85024498994142

   => Energetics <=

    Nuclear Repulsion Energy =            485.3587900637807593
    One-Electron Energy =               -1536.3191024745970026
    Two-Electron Energy =                 627.1100674208747705
    Total Energy =                       -423.8502449899414160

Computation Completed

Properties will be evaluated at   0.000000,   0.000000,   0.000000 [a0]

Properties computed using the SCF density matrix

  Nuclear Dipole Moment: [e a0]
     X:    -4.5290      Y:     6.7186      Z:     8.5036

  Electronic Dipole Moment: [e a0]
     X:     4.1244      Y:    -6.2136      Z:    -8.4124

  Dipole Moment: [e a0]
     X:    -0.4046      Y:     0.5051      Z:     0.0912     Total:     0.6536

  Dipole Moment: [D]
     X:    -1.0285      Y:     1.2838      Z:     0.2317     Total:     1.6612

*** tstop() called on ds3 at Tue Apr 28 10:46:42 2020
Module time:
	user time   =      78.34 seconds =       1.31 minutes
	system time =      32.41 seconds =       0.54 minutes
	total time  =        174 seconds =       2.90 minutes
Total time:
	user time   =      78.34 seconds =       1.31 minutes
	system time =      32.41 seconds =       0.54 minutes
	total time  =        174 seconds =       2.90 minutes
                                     G D M A

                                 by Anthony Stone

                           version 2.2.06, 22 June 2011

               Distributed Multipoles from Gaussian wavefunctions

Starting at 10:46:42 on 28 Apr 2020

Using SCF density matrix from file ./SSI/SSI-064TYR-083LEU-1-dimer.test.13522.fchk

                         Distributed Multipole Analysis

Standard DMA

Positions and radii in angstrom
Multipole moments in atomic units, ea_0^k for rank k

C          x = -1.178085  y = -0.339391  z = -3.790252 angstrom
           Maximum rank =  0   Radius =  0.650 angstrom
                   Q00  =  -0.200029

C          x =  0.707915  y = -0.508391  z =  0.136748 angstrom
           Maximum rank =  0   Radius =  0.650 angstrom
                   Q00  =   0.284511

C          x = -0.184085  y =  0.522609  z = -0.201252 angstrom
           Maximum rank =  0   Radius =  0.650 angstrom
                   Q00  =  -0.171314

C          x =  0.991915  y = -1.500391  z = -0.812252 angstrom
           Maximum rank =  0   Radius =  0.650 angstrom
                   Q00  =  -0.122379

C          x = -0.798085  y =  0.552609  z = -1.466252 angstrom
           Maximum rank =  0   Radius =  0.650 angstrom
                   Q00  =   0.028657

C          x =  0.376915  y = -1.449391  z = -2.097252 angstrom
           Maximum rank =  0   Radius =  0.650 angstrom
                   Q00  =  -0.026214

C          x = -0.510085  y = -0.413391  z = -2.430252 angstrom
           Maximum rank =  0   Radius =  0.650 angstrom
                   Q00  =  -0.133877

O          x =  1.219915  y = -0.547391  z =  1.415748 angstrom
           Maximum rank =  0   Radius =  0.650 angstrom
                   Q00  =  -0.689710

H          x =  0.919915  y =  0.192609  z =  1.949748 angstrom
           Maximum rank =  0   Radius =  0.325 angstrom
                   Q00  =   0.444079

H          x = -0.426085  y =  1.287609  z =  0.522748 angstrom
           Maximum rank =  0   Radius =  0.325 angstrom
                   Q00  =   0.070170

H          x =  1.662915  y = -2.308391  z = -0.556252 angstrom
           Maximum rank =  0   Radius =  0.325 angstrom
                   Q00  =   0.083100

H          x = -1.485085  y =  1.355609  z = -1.697252 angstrom
           Maximum rank =  0   Radius =  0.325 angstrom
                   Q00  =   0.070326

H          x =  0.588915  y = -2.230391  z = -2.815252 angstrom
           Maximum rank =  0   Radius =  0.325 angstrom
                   Q00  =   0.067524

H          x = -2.013085  y =  0.358609  z = -3.723252 angstrom
           Maximum rank =  0   Radius =  0.325 angstrom
                   Q00  =   0.094170

H          x = -1.606085  y = -1.315391  z = -4.025252 angstrom
           Maximum rank =  0   Radius =  0.325 angstrom
                   Q00  =   0.097669

H          x = -0.522525  y = -0.012331  z = -4.610783 angstrom
           Maximum rank =  0   Radius =  0.325 angstrom
                   Q00  =   0.102021

C          x =  0.435915  y =  1.526609  z =  3.791748 angstrom
           Maximum rank =  0   Radius =  0.650 angstrom
                   Q00  =  -0.259368

C          x = -1.062085  y =  1.736609  z =  4.220748 angstrom
           Maximum rank =  0   Radius =  0.650 angstrom
                   Q00  =  -0.252341

H          x =  0.751915  y =  0.509609  z =  4.023748 angstrom
           Maximum rank =  0   Radius =  0.325 angstrom
                   Q00  =   0.091248

H          x =  0.545915  y =  1.731609  z =  2.728748 angstrom
           Maximum rank =  0   Radius =  0.325 angstrom
                   Q00  =   0.060564

H          x =  1.066915  y =  2.227609  z =  4.339748 angstrom
           Maximum rank =  0   Radius =  0.325 angstrom
                   Q00  =   0.098246

H          x = -1.672085  y =  0.967609  z =  3.758748 angstrom
           Maximum rank =  0   Radius =  0.325 angstrom
                   Q00  =   0.086114

H          x = -1.205795  y =  1.702837  z =  5.310798 angstrom
           Maximum rank =  0   Radius =  0.325 angstrom
                   Q00  =   0.093493

H          x = -1.443115  y =  2.702383  z =  3.857298 angstrom
           Maximum rank =  0   Radius =  0.325 angstrom
                   Q00  =   0.083340

Total multipoles referred to origin at
           x =   0.000000,  y =    0.000000,  z =    0.000000 angstrom
                   Q00  =  -0.000000

Finished at 10:46:42 on 28 Apr 2020

  DMA results are available in the Python driver through the
	  variable('DMA DISTRIBUTED MULTIPOLES')
  and
	  variable('DMA TOTAL MULTIPOLES')
  commands.

    Psi4 stopped on: Tuesday, 28 April 2020 10:46AM
    Psi4 wall time for execution: 0:02:53.71

*** Psi4 exiting successfully. Buy a developer a beer!
