                               Psi4 1.3.2 release

  ==> Input File <==

--------------------------------------------------------------------------
import numpy as np
set {scf_type pk
basis cc-pvdz
d_convergence 10
gdma_switch   0
gdma_limit    0
gdma_origin   [ 0.0,  0.0,  0.0 ]
}
molecule test {
    units Angstrom
    0 1
    --
    0 1
    C                1.468238160900445     2.377300736367275     1.696322009354013
    C               -0.982761839099555    -0.444699263632725     0.854322009354013
    C               -0.464761839099555     0.787300736367275     1.280322009354013
    C               -0.118761839099555    -1.447699263632725     0.406322009354013
    C                0.914238160900445     1.031300736367275     1.265322009354013
    C                1.259238160900445    -1.219699263632725     0.388322009354013
    C                1.770238160900445     0.014300736367275     0.819322009354013
    O               -0.616761839099555    -2.640699263632725    -0.028677990645987
    H               -2.047761839099555    -0.622699263632725     0.867322009354013
    H               -1.141761839099555     1.560300736367275     1.622322009354014
    H               -1.573761839099555    -2.725699263632725     0.175322009354013
    H                1.920238160900445    -1.993699263632725     0.027322009354013
    H                2.476238160900445     2.222300736367275     2.082322009354013
    H                0.875238160900445     2.755300736367275     2.530322009354014
    H                2.840238160900445     0.175300736367275     0.810322009354013
    H                1.516778160900445     3.126020736367275     0.891922009354013
    C               -1.187761839099555     0.153300736367275    -2.644677990645987
    C               -1.552761839099555     1.483300736367275    -3.288677990645987
    H               -0.437761839099555     0.318300736367275    -1.869677990645987
    H               -2.059761839099555    -0.306699263632725    -2.186677990645987
    H               -0.773761839099555    -0.521699263632725    -3.395677990645987
    H               -2.190761839099554     1.261300736367275    -4.145677990645987
    H               -0.637461839099555     1.998960736367275    -3.614757990645987
    H               -2.136231839099555     2.100840736367275    -2.589957990645987

}
e, wfn = energy('scf', return_wfn=True)
gdma(wfn)
dmavals = variable('DMA DISTRIBUTED MULTIPOLES')
charges = np.array(dmavals)
print(charges)
np.save('SSI-053TYR-142ALA-1-dimer.npy', np.array(charges))--------------------------------------------------------------------------

*** tstart() called on ds3
*** at Mon Apr 27 01:52:56 2020

   => Loading Basis Set <=

    Name: CC-PVDZ
    Role: ORBITAL
    Keyword: BASIS
    atoms 1-7, 17-18  entry C          line   138 file /theoryfs2/ds/metcalf/miniconda2/envs/tf2gpu/share/psi4/basis/cc-pvdz.gbs
    atoms 8           entry O          line   198 file /theoryfs2/ds/metcalf/miniconda2/envs/tf2gpu/share/psi4/basis/cc-pvdz.gbs
    atoms 9-16, 19-24 entry H          line    22 file /theoryfs2/ds/metcalf/miniconda2/envs/tf2gpu/share/psi4/basis/cc-pvdz.gbs

         ---------------------------------------------------------
                                   SCF
               by Justin Turney, Rob Parrish, Andy Simmonett
                          and Daniel G. A. Smith
                              RHF Reference
                        1 Threads,    500 MiB Core
         ---------------------------------------------------------

  ==> Geometry <==

    Molecular point group: c1
    Full point group: C1

    Geometry (in Angstrom), charge = 0, multiplicity = 1:

       Center              X                  Y                   Z               Mass
    ------------   -----------------  -----------------  -----------------  -----------------
         C            1.468238160900     2.377300736367     1.696322009354    12.000000000000
         C           -0.982761839100    -0.444699263633     0.854322009354    12.000000000000
         C           -0.464761839100     0.787300736367     1.280322009354    12.000000000000
         C           -0.118761839100    -1.447699263633     0.406322009354    12.000000000000
         C            0.914238160900     1.031300736367     1.265322009354    12.000000000000
         C            1.259238160900    -1.219699263633     0.388322009354    12.000000000000
         C            1.770238160900     0.014300736367     0.819322009354    12.000000000000
         O           -0.616761839100    -2.640699263633    -0.028677990646    15.994914619570
         H           -2.047761839100    -0.622699263633     0.867322009354     1.007825032230
         H           -1.141761839100     1.560300736367     1.622322009354     1.007825032230
         H           -1.573761839100    -2.725699263633     0.175322009354     1.007825032230
         H            1.920238160900    -1.993699263633     0.027322009354     1.007825032230
         H            2.476238160900     2.222300736367     2.082322009354     1.007825032230
         H            0.875238160900     2.755300736367     2.530322009354     1.007825032230
         H            2.840238160900     0.175300736367     0.810322009354     1.007825032230
         H            1.516778160900     3.126020736367     0.891922009354     1.007825032230
         C           -1.187761839100     0.153300736367    -2.644677990646    12.000000000000
         C           -1.552761839100     1.483300736367    -3.288677990646    12.000000000000
         H           -0.437761839100     0.318300736367    -1.869677990646     1.007825032230
         H           -2.059761839100    -0.306699263633    -2.186677990646     1.007825032230
         H           -0.773761839100    -0.521699263633    -3.395677990646     1.007825032230
         H           -2.190761839100     1.261300736367    -4.145677990646     1.007825032230
         H           -0.637461839100     1.998960736367    -3.614757990646     1.007825032230
         H           -2.136231839100     2.100840736367    -2.589957990646     1.007825032230

  Running in c1 symmetry.

  Rotational constants: A =      0.04138  B =      0.02906  C =      0.02062 [cm^-1]
  Rotational constants: A =   1240.43907  B =    871.16307  C =    618.07361 [MHz]
  Nuclear repulsion =  502.110544978809457

  Charge       = 0
  Multiplicity = 1
  Electrons    = 76
  Nalpha       = 38
  Nbeta        = 38

  ==> Algorithm <==

  SCF Algorithm Type is PK.
  DIIS enabled.
  MOM disabled.
  Fractional occupation disabled.
  Guess Type is SAD.
  Energy threshold   = 1.00e-06
  Density threshold  = 1.00e-10
  Integral threshold = 0.00e+00

  ==> Primary Basis <==

  Basis Set: CC-PVDZ
    Blend: CC-PVDZ
    Number of shells: 102
    Number of basis function: 210
    Number of Cartesian functions: 220
    Spherical Harmonics?: true
    Max angular momentum: 2

  ==> Pre-Iterations <==

   -------------------------------------------------------
    Irrep   Nso     Nmo     Nalpha   Nbeta   Ndocc  Nsocc
   -------------------------------------------------------
     A        210     210       0       0       0       0
   -------------------------------------------------------
    Total     210     210      38      38      38       0
   -------------------------------------------------------

  ==> Integral Setup <==

  Using integral reordering PK algorithm.
  Sizing the integral batches needed.
  Building batch lookup table.
   Calculation information:
      Number of atoms:                  24
      Number of AO shells:             102
      Number of primitives:            290
      Number of atomic orbitals:       220
      Number of basis functions:       210

      Integral cutoff                 1.00e-12
      Number of threads:                 1

	Batch   1 pq = [       0,    9405] index = [             0,44231715] size =     44231715
	Batch   2 pq = [    9405,   13301] index = [      44231715,88464951] size =     44233236
	Batch   3 pq = [   13301,   16290] index = [      88464951,132690195] size =     44225244
	Batch   4 pq = [   16290,   18810] index = [     132690195,176917455] size =     44227260
	Batch   5 pq = [   18810,   21030] index = [     176917455,221140965] size =     44223510
	Batch   6 pq = [   21030,   22155] index = [     221140965,245433090] size =     24292125
  Task number: 23
  Buffer size: 11059200
  Buffer per thread: 2
  We computed 12600791 shell quartets total.
  Whereas there are 13799631 unique shell quartets.

  ==> DiskJK: Disk-Based J/K Matrices <==

    J tasked:                  Yes
    K tasked:                  Yes
    wK tasked:                  No
    Memory [MiB]:              375
    Schwarz Cutoff:          1E-12

    OpenMP threads:              1

  Minimum eigenvalue in the overlap matrix is 3.3776458048E-04.
  Using Symmetric Orthogonalization.

  SCF Guess: Superposition of Atomic Densities via on-the-fly atomic UHF.

  ==> Iterations <==

                        Total Energy        Delta E     RMS |[F,P]|

   @RHF iter SAD:  -422.58003795599490   -4.22580e+02   0.00000e+00
   @RHF iter   1:  -423.60003218086234   -1.01999e+00   2.96738e-03 DIIS
   @RHF iter   2:  -423.81546007532847   -2.15428e-01   1.25523e-03 DIIS
   @RHF iter   3:  -423.85015031576336   -3.46902e-02   2.84587e-04 DIIS
   @RHF iter   4:  -423.85302325123860   -2.87294e-03   1.18888e-04 DIIS
   @RHF iter   5:  -423.85338529630724   -3.62045e-04   2.09668e-05 DIIS
   @RHF iter   6:  -423.85340336035512   -1.80640e-05   6.57723e-06 DIIS
   @RHF iter   7:  -423.85340506707485   -1.70672e-06   2.15141e-06 DIIS
   @RHF iter   8:  -423.85340529457625   -2.27501e-07   7.88794e-07 DIIS
   @RHF iter   9:  -423.85340532851342   -3.39372e-08   2.86657e-07 DIIS
   @RHF iter  10:  -423.85340533381742   -5.30400e-09   1.13216e-07 DIIS
   @RHF iter  11:  -423.85340533523720   -1.41978e-09   5.36462e-08 DIIS
   @RHF iter  12:  -423.85340533557689   -3.39696e-10   2.82647e-08 DIIS
   @RHF iter  13:  -423.85340533565795   -8.10587e-11   8.76622e-09 DIIS
   @RHF iter  14:  -423.85340533566875   -1.08002e-11   2.33144e-09 DIIS
   @RHF iter  15:  -423.85340533566767    1.08002e-12   7.22430e-10 DIIS
   @RHF iter  16:  -423.85340533566864   -9.66338e-13   2.22261e-10 DIIS
   @RHF iter  17:  -423.85340533566693    1.70530e-12   7.68553e-11 DIIS
  Energy and wave function converged.

  ==> Post-Iterations <==

    Orbital Energies [Eh]
    ---------------------

    Doubly Occupied:

       1A    -20.585403     2A    -11.300334     3A    -11.241637
       4A    -11.241344     5A    -11.236842     6A    -11.234940
       7A    -11.232436     8A    -11.229786     9A    -11.212615
      10A    -11.205230    11A     -1.395695    12A     -1.146014
      13A     -1.034334    14A     -1.014730    15A     -1.011912
      16A     -0.925138    17A     -0.843230    18A     -0.826789
      19A     -0.799574    20A     -0.727722    21A     -0.665806
      22A     -0.641237    23A     -0.606647    24A     -0.593980
      25A     -0.592547    26A     -0.584992    27A     -0.582043
      28A     -0.573649    29A     -0.563726    30A     -0.524554
      31A     -0.497340    32A     -0.491744    33A     -0.484438
      34A     -0.480831    35A     -0.478097    36A     -0.459500
      37A     -0.336620    38A     -0.301750

    Virtual:

      39A      0.127251    40A      0.153014    41A      0.168462
      42A      0.182926    43A      0.202094    44A      0.215511
      45A      0.219795    46A      0.250226    47A      0.252853
      48A      0.258698    49A      0.268525    50A      0.272952
      51A      0.278998    52A      0.288500    53A      0.299134
      54A      0.313820    55A      0.366949    56A      0.370218
      57A      0.395296    58A      0.432479    59A      0.452482
      60A      0.479423    61A      0.492858    62A      0.502241
      63A      0.582594    64A      0.595065    65A      0.607385
      66A      0.609832    67A      0.636834    68A      0.647029
      69A      0.654519    70A      0.666402    71A      0.678500
      72A      0.683203    73A      0.702356    74A      0.730821
      75A      0.734351    76A      0.751999    77A      0.764458
      78A      0.770255    79A      0.781969    80A      0.791641
      81A      0.827193    82A      0.838241    83A      0.846762
      84A      0.867029    85A      0.876000    86A      0.877921
      87A      0.887399    88A      0.894456    89A      0.896869
      90A      0.900343    91A      0.913199    92A      0.919653
      93A      0.925573    94A      0.927818    95A      0.933732
      96A      0.939237    97A      0.964274    98A      0.972017
      99A      0.993951   100A      1.013264   101A      1.036084
     102A      1.102197   103A      1.120721   104A      1.126759
     105A      1.140234   106A      1.143995   107A      1.147418
     108A      1.171883   109A      1.202681   110A      1.234913
     111A      1.247936   112A      1.263799   113A      1.267824
     114A      1.287990   115A      1.294812   116A      1.302485
     117A      1.309715   118A      1.349446   119A      1.359117
     120A      1.383476   121A      1.479648   122A      1.483704
     123A      1.487818   124A      1.514342   125A      1.526896
     126A      1.548226   127A      1.587668   128A      1.610740
     129A      1.625867   130A      1.681303   131A      1.682975
     132A      1.700894   133A      1.710915   134A      1.732214
     135A      1.743664   136A      1.778769   137A      1.802694
     138A      1.819375   139A      1.855242   140A      1.876437
     141A      1.881309   142A      1.885644   143A      1.891258
     144A      1.906412   145A      1.911021   146A      1.913118
     147A      1.926294   148A      1.935986   149A      1.945459
     150A      1.958234   151A      1.962369   152A      1.967121
     153A      1.969883   154A      1.975868   155A      1.991441
     156A      2.002155   157A      2.036716   158A      2.045092
     159A      2.050375   160A      2.058825   161A      2.067296
     162A      2.107980   163A      2.135262   164A      2.136060
     165A      2.146670   166A      2.166734   167A      2.195226
     168A      2.226352   169A      2.255659   170A      2.271099
     171A      2.292120   172A      2.296757   173A      2.310853
     174A      2.325213   175A      2.380516   176A      2.419788
     177A      2.436147   178A      2.454877   179A      2.469234
     180A      2.478510   181A      2.484927   182A      2.521502
     183A      2.569073   184A      2.575247   185A      2.595226
     186A      2.598482   187A      2.629756   188A      2.746688
     189A      2.765963   190A      2.772263   191A      2.780636
     192A      2.799856   193A      2.806860   194A      2.837240
     195A      2.849622   196A      2.860702   197A      2.895873
     198A      2.946382   199A      2.962586   200A      2.989373
     201A      2.996301   202A      3.071918   203A      3.089100
     204A      3.247960   205A      3.266500   206A      3.339284
     207A      3.574049   208A      3.658030   209A      3.945117
     210A      4.159172

    Final Occupation by Irrep:
              A
    DOCC [    38 ]

  @RHF Final Energy:  -423.85340533566693

   => Energetics <=

    Nuclear Repulsion Energy =            502.1105449788094575
    One-Electron Energy =               -1570.1174841006779843
    Two-Electron Energy =                 644.1535337862015922
    Total Energy =                       -423.8534053356669347

Computation Completed

Properties will be evaluated at   0.000000,   0.000000,   0.000000 [a0]

Properties computed using the SCF density matrix

  Nuclear Dipole Moment: [e a0]
     X:    -3.1625      Y:     8.7509      Z:    -8.2454

  Electronic Dipole Moment: [e a0]
     X:     2.7897      Y:    -8.4850      Z:     8.5390

  Dipole Moment: [e a0]
     X:    -0.3728      Y:     0.2659      Z:     0.2936     Total:     0.5439

  Dipole Moment: [D]
     X:    -0.9475      Y:     0.6759      Z:     0.7462     Total:     1.3826

*** tstop() called on ds3 at Mon Apr 27 01:54:56 2020
Module time:
	user time   =      88.16 seconds =       1.47 minutes
	system time =      35.22 seconds =       0.59 minutes
	total time  =        120 seconds =       2.00 minutes
Total time:
	user time   =      88.16 seconds =       1.47 minutes
	system time =      35.22 seconds =       0.59 minutes
	total time  =        120 seconds =       2.00 minutes
                                     G D M A

                                 by Anthony Stone

                           version 2.2.06, 22 June 2011

               Distributed Multipoles from Gaussian wavefunctions

Starting at 1:54:56 on 27 Apr 2020

Using SCF density matrix from file ./SSI/SSI-053TYR-142ALA-1-dimer.test.15100.fchk

                         Distributed Multipole Analysis

Standard DMA

Positions and radii in angstrom
Multipole moments in atomic units, ea_0^k for rank k

C          x =  1.468238  y =  2.377301  z =  1.696322 angstrom
           Maximum rank =  0   Radius =  0.650 angstrom
                   Q00  =  -0.199649

C          x = -0.982762  y = -0.444699  z =  0.854322 angstrom
           Maximum rank =  0   Radius =  0.650 angstrom
                   Q00  =  -0.192895

C          x = -0.464762  y =  0.787301  z =  1.280322 angstrom
           Maximum rank =  0   Radius =  0.650 angstrom
                   Q00  =   0.025813

C          x = -0.118762  y = -1.447699  z =  0.406322 angstrom
           Maximum rank =  0   Radius =  0.650 angstrom
                   Q00  =   0.323565

C          x =  0.914238  y =  1.031301  z =  1.265322 angstrom
           Maximum rank =  0   Radius =  0.650 angstrom
                   Q00  =  -0.139769

C          x =  1.259238  y = -1.219699  z =  0.388322 angstrom
           Maximum rank =  0   Radius =  0.650 angstrom
                   Q00  =  -0.114627

C          x =  1.770238  y =  0.014301  z =  0.819322 angstrom
           Maximum rank =  0   Radius =  0.650 angstrom
                   Q00  =  -0.019044

O          x = -0.616762  y = -2.640699  z = -0.028678 angstrom
           Maximum rank =  0   Radius =  0.650 angstrom
                   Q00  =  -0.674594

H          x = -2.047762  y = -0.622699  z =  0.867322 angstrom
           Maximum rank =  0   Radius =  0.325 angstrom
                   Q00  =   0.071728

H          x = -1.141762  y =  1.560301  z =  1.622322 angstrom
           Maximum rank =  0   Radius =  0.325 angstrom
                   Q00  =   0.069706

H          x = -1.573762  y = -2.725699  z =  0.175322 angstrom
           Maximum rank =  0   Radius =  0.325 angstrom
                   Q00  =   0.413004

H          x =  1.920238  y = -1.993699  z =  0.027322 angstrom
           Maximum rank =  0   Radius =  0.325 angstrom
                   Q00  =   0.082415

H          x =  2.476238  y =  2.222301  z =  2.082322 angstrom
           Maximum rank =  0   Radius =  0.325 angstrom
                   Q00  =   0.095493

H          x =  0.875238  y =  2.755301  z =  2.530322 angstrom
           Maximum rank =  0   Radius =  0.325 angstrom
                   Q00  =   0.096965

H          x =  2.840238  y =  0.175301  z =  0.810322 angstrom
           Maximum rank =  0   Radius =  0.325 angstrom
                   Q00  =   0.065893

H          x =  1.516778  y =  3.126021  z =  0.891922 angstrom
           Maximum rank =  0   Radius =  0.325 angstrom
                   Q00  =   0.102552

C          x = -1.187762  y =  0.153301  z = -2.644678 angstrom
           Maximum rank =  0   Radius =  0.650 angstrom
                   Q00  =  -0.231064

C          x = -1.552762  y =  1.483301  z = -3.288678 angstrom
           Maximum rank =  0   Radius =  0.650 angstrom
                   Q00  =  -0.231582

H          x = -0.437762  y =  0.318301  z = -1.869678 angstrom
           Maximum rank =  0   Radius =  0.325 angstrom
                   Q00  =   0.089876

H          x = -2.059762  y = -0.306699  z = -2.186678 angstrom
           Maximum rank =  0   Radius =  0.325 angstrom
                   Q00  =   0.066749

H          x = -0.773762  y = -0.521699  z = -3.395678 angstrom
           Maximum rank =  0   Radius =  0.325 angstrom
                   Q00  =   0.074599

H          x = -2.190762  y =  1.261301  z = -4.145678 angstrom
           Maximum rank =  0   Radius =  0.325 angstrom
                   Q00  =   0.070880

H          x = -0.637462  y =  1.998961  z = -3.614758 angstrom
           Maximum rank =  0   Radius =  0.325 angstrom
                   Q00  =   0.079589

H          x = -2.136232  y =  2.100841  z = -2.589958 angstrom
           Maximum rank =  0   Radius =  0.325 angstrom
                   Q00  =   0.074396

Total multipoles referred to origin at
           x =   0.000000,  y =    0.000000,  z =    0.000000 angstrom
                   Q00  =  -0.000000

Finished at 1:54:56 on 27 Apr 2020

  DMA results are available in the Python driver through the
	  variable('DMA DISTRIBUTED MULTIPOLES')
  and
	  variable('DMA TOTAL MULTIPOLES')
  commands.

    Psi4 stopped on: Monday, 27 April 2020 01:54AM
    Psi4 wall time for execution: 0:02:00.03

*** Psi4 exiting successfully. Buy a developer a beer!
