                               Psi4 1.3.2 release

  ==> Input File <==

--------------------------------------------------------------------------
import numpy as np
set {scf_type pk
basis cc-pvdz
d_convergence 10
gdma_switch   0
gdma_limit    0
gdma_origin   [ 0.0,  0.0,  0.0 ]
}
molecule test {
    units Angstrom
    0 1
    --
    0 1
    C                3.684264646453941    -2.343097717384449     0.915909566276255
    C               -0.072735353546058    -1.865097717384449     0.808909566276255
    C                1.295264646453941    -1.598097717384449     0.882909566276254
    C               -0.519735353546058    -3.162097717384449     0.641909566276255
    C                2.221264646453942    -2.626097717384449     0.787909566276255
    C                0.392264646453942    -4.189097717384449     0.565909566276255
    C                1.762264646453942    -3.926097717384449     0.636909566276255
    H               -0.778735353546058    -1.051097717384449     0.884909566276255
    H                1.626264646453942    -0.579097717384449     1.029909566276255
    H               -1.573735353546059    -3.374097717384450     0.565909566276255
    H                0.055264646453942    -5.207097717384450     0.448909566276255
    H                4.246264646453941    -3.277097717384450     0.861909566276255
    H                3.865264646453942    -1.921097717384449     1.901909566276255
    H                2.464264646453942    -4.747097717384450     0.579909566276255
    H                4.076774646453941    -1.647158717384449     0.159859566276255
    C                1.475264646453942     3.481902282615551    -1.545090433723745
    C               -1.513735353546058     1.140902282615551    -1.068090433723745
    C               -0.291735353546058     1.677902282615551    -1.523090433723745
    C               -2.295735353546058     1.877902282615551    -0.191090433723745
    C                0.137264646453942     2.939902282615551    -1.114090433723745
    C               -1.887735353546058     3.137902282615550     0.212909566276255
    C               -0.667735353546058     3.655902282615551    -0.233090433723745
    O               -3.497735353546059     1.389902282615551     0.260909566276255
    H               -1.835735353546058     0.162902282615551    -1.395090433723746
    H                0.330264646453942     1.102902282615551    -2.196090433723745
    H               -3.772735353546058     0.675902282615551    -0.317090433723745
    H               -2.512735353546058     3.710902282615551     0.880909566276255
    H                1.459264646453942     4.572902282615551    -1.512090433723745
    H                1.676264646453942     3.176902282615551    -2.569090433723745
    H               -0.379735353546058     4.643902282615550     0.077909566276255
    H                2.287134646453941     3.099722282615551    -0.908840433723745

}
e, wfn = energy('scf', return_wfn=True)
gdma(wfn)
dmavals = variable('DMA DISTRIBUTED MULTIPOLES')
charges = np.array(dmavals)
print(charges)
np.save('SSI-017PHE-025TYR-1-dimer.npy', np.array(charges))--------------------------------------------------------------------------

*** tstart() called on ds3
*** at Sun Apr 26 17:58:11 2020

   => Loading Basis Set <=

    Name: CC-PVDZ
    Role: ORBITAL
    Keyword: BASIS
    atoms 1-7, 16-22  entry C          line   138 file /theoryfs2/ds/metcalf/miniconda2/envs/tf2gpu/share/psi4/basis/cc-pvdz.gbs
    atoms 8-15, 24-31 entry H          line    22 file /theoryfs2/ds/metcalf/miniconda2/envs/tf2gpu/share/psi4/basis/cc-pvdz.gbs
    atoms 23          entry O          line   198 file /theoryfs2/ds/metcalf/miniconda2/envs/tf2gpu/share/psi4/basis/cc-pvdz.gbs

         ---------------------------------------------------------
                                   SCF
               by Justin Turney, Rob Parrish, Andy Simmonett
                          and Daniel G. A. Smith
                              RHF Reference
                        1 Threads,    500 MiB Core
         ---------------------------------------------------------

  ==> Geometry <==

    Molecular point group: c1
    Full point group: C1

    Geometry (in Angstrom), charge = 0, multiplicity = 1:

       Center              X                  Y                   Z               Mass
    ------------   -----------------  -----------------  -----------------  -----------------
         C            3.684264646454    -2.343097717384     0.915909566276    12.000000000000
         C           -0.072735353546    -1.865097717384     0.808909566276    12.000000000000
         C            1.295264646454    -1.598097717384     0.882909566276    12.000000000000
         C           -0.519735353546    -3.162097717384     0.641909566276    12.000000000000
         C            2.221264646454    -2.626097717384     0.787909566276    12.000000000000
         C            0.392264646454    -4.189097717384     0.565909566276    12.000000000000
         C            1.762264646454    -3.926097717384     0.636909566276    12.000000000000
         H           -0.778735353546    -1.051097717384     0.884909566276     1.007825032230
         H            1.626264646454    -0.579097717384     1.029909566276     1.007825032230
         H           -1.573735353546    -3.374097717384     0.565909566276     1.007825032230
         H            0.055264646454    -5.207097717384     0.448909566276     1.007825032230
         H            4.246264646454    -3.277097717384     0.861909566276     1.007825032230
         H            3.865264646454    -1.921097717384     1.901909566276     1.007825032230
         H            2.464264646454    -4.747097717384     0.579909566276     1.007825032230
         H            4.076774646454    -1.647158717384     0.159859566276     1.007825032230
         C            1.475264646454     3.481902282616    -1.545090433724    12.000000000000
         C           -1.513735353546     1.140902282616    -1.068090433724    12.000000000000
         C           -0.291735353546     1.677902282616    -1.523090433724    12.000000000000
         C           -2.295735353546     1.877902282616    -0.191090433724    12.000000000000
         C            0.137264646454     2.939902282616    -1.114090433724    12.000000000000
         C           -1.887735353546     3.137902282616     0.212909566276    12.000000000000
         C           -0.667735353546     3.655902282616    -0.233090433724    12.000000000000
         O           -3.497735353546     1.389902282616     0.260909566276    15.994914619570
         H           -1.835735353546     0.162902282616    -1.395090433724     1.007825032230
         H            0.330264646454     1.102902282616    -2.196090433724     1.007825032230
         H           -3.772735353546     0.675902282616    -0.317090433724     1.007825032230
         H           -2.512735353546     3.710902282616     0.880909566276     1.007825032230
         H            1.459264646454     4.572902282616    -1.512090433724     1.007825032230
         H            1.676264646454     3.176902282616    -2.569090433724     1.007825032230
         H           -0.379735353546     4.643902282616     0.077909566276     1.007825032230
         H            2.287134646454     3.099722282616    -0.908840433724     1.007825032230

  Running in c1 symmetry.

  Rotational constants: A =      0.02846  B =      0.00873  C =      0.00710 [cm^-1]
  Rotational constants: A =    853.07985  B =    261.82842  C =    212.70658 [MHz]
  Nuclear repulsion =  863.425407004542535

  Charge       = 0
  Multiplicity = 1
  Electrons    = 108
  Nalpha       = 54
  Nbeta        = 54

  ==> Algorithm <==

  SCF Algorithm Type is PK.
  DIIS enabled.
  MOM disabled.
  Fractional occupation disabled.
  Guess Type is SAD.
  Energy threshold   = 1.00e-06
  Density threshold  = 1.00e-10
  Integral threshold = 0.00e+00

  ==> Primary Basis <==

  Basis Set: CC-PVDZ
    Blend: CC-PVDZ
    Number of shells: 138
    Number of basis function: 290
    Number of Cartesian functions: 305
    Spherical Harmonics?: true
    Max angular momentum: 2

  ==> Pre-Iterations <==

   -------------------------------------------------------
    Irrep   Nso     Nmo     Nalpha   Nbeta   Ndocc  Nsocc
   -------------------------------------------------------
     A        290     290       0       0       0       0
   -------------------------------------------------------
    Total     290     290      54      54      54       0
   -------------------------------------------------------

  ==> Integral Setup <==

  Using integral reordering PK algorithm.
  Sizing the integral batches needed.
  Building batch lookup table.
   Calculation information:
      Number of atoms:                  31
      Number of AO shells:             138
      Number of primitives:            410
      Number of atomic orbitals:       305
      Number of basis functions:       290

      Integral cutoff                 1.00e-12
      Number of threads:                 1

	Batch   1 pq = [       0,    9405] index = [             0,44231715] size =     44231715
	Batch   2 pq = [    9405,   13301] index = [      44231715,88464951] size =     44233236
	Batch   3 pq = [   13301,   16290] index = [      88464951,132690195] size =     44225244
	Batch   4 pq = [   16290,   18810] index = [     132690195,176917455] size =     44227260
	Batch   5 pq = [   18810,   21030] index = [     176917455,221140965] size =     44223510
	Batch   6 pq = [   21030,   23037] index = [     221140965,265363203] size =     44222238
	Batch   7 pq = [   23037,   24883] index = [     265363203,309594286] size =     44231083
	Batch   8 pq = [   24883,   26601] index = [     309594286,353819901] size =     44225615
	Batch   9 pq = [   26601,   28214] index = [     353819901,398029005] size =     44209104
	Batch  10 pq = [   28214,   29740] index = [     398029005,442248670] size =     44219665
	Batch  11 pq = [   29740,   31191] index = [     442248670,486454836] size =     44206166
	Batch  12 pq = [   31191,   32578] index = [     486454836,530679331] size =     44224495
	Batch  13 pq = [   32578,   33908] index = [     530679331,574893186] size =     44213855
	Batch  14 pq = [   33908,   35188] index = [     574893186,619115266] size =     44222080
	Batch  15 pq = [   35188,   36423] index = [     619115266,663335676] size =     44220410
	Batch  16 pq = [   36423,   37617] index = [     663335676,707538153] size =     44202477
	Batch  17 pq = [   37617,   38775] index = [     707538153,751769700] size =     44231547
	Batch  18 pq = [   38775,   39899] index = [     751769700,795985050] size =     44215350
	Batch  19 pq = [   39899,   40992] index = [     795985050,840192528] size =     44207478
	Batch  20 pq = [   40992,   42057] index = [     840192528,884416653] size =     44224125
	Batch  21 pq = [   42057,   42195] index = [     884416653,890230110] size =      5813457
  Task number: 81
  Buffer size: 11059200
  Buffer per thread: 2
  We computed 38441759 shell quartets total.
  Whereas there are 45998436 unique shell quartets.

  ==> DiskJK: Disk-Based J/K Matrices <==

    J tasked:                  Yes
    K tasked:                  Yes
    wK tasked:                  No
    Memory [MiB]:              375
    Schwarz Cutoff:          1E-12

    OpenMP threads:              1

  Minimum eigenvalue in the overlap matrix is 2.9418733526E-04.
  Using Symmetric Orthogonalization.

  SCF Guess: Superposition of Atomic Densities via on-the-fly atomic UHF.

  ==> Iterations <==

                        Total Energy        Delta E     RMS |[F,P]|

   @RHF iter SAD:  -613.24237078105944   -6.13242e+02   0.00000e+00
   @RHF iter   1:  -614.06220862797841   -8.19838e-01   2.38141e-03 DIIS
   @RHF iter   2:  -614.33849266653351   -2.76284e-01   9.94193e-04 DIIS
   @RHF iter   3:  -614.38055761986766   -4.20650e-02   2.35979e-04 DIIS
   @RHF iter   4:  -614.38414983390862   -3.59221e-03   9.32922e-05 DIIS
   @RHF iter   5:  -614.38457513895150   -4.25305e-04   1.73980e-05 DIIS
   @RHF iter   6:  -614.38459626066492   -2.11217e-05   5.55451e-06 DIIS
   @RHF iter   7:  -614.38459853253369   -2.27187e-06   1.64460e-06 DIIS
   @RHF iter   8:  -614.38459881477615   -2.82242e-07   6.02219e-07 DIIS
   @RHF iter   9:  -614.38459885780162   -4.30255e-08   2.52433e-07 DIIS
   @RHF iter  10:  -614.38459886639373   -8.59211e-09   9.94011e-08 DIIS
   @RHF iter  11:  -614.38459886889757   -2.50384e-09   4.44564e-08 DIIS
   @RHF iter  12:  -614.38459886939836   -5.00791e-10   2.16859e-08 DIIS
   @RHF iter  13:  -614.38459886948613   -8.77662e-11   6.48596e-09 DIIS
   @RHF iter  14:  -614.38459886949272   -6.59384e-12   2.02499e-09 DIIS
   @RHF iter  15:  -614.38459886949420   -1.47793e-12   7.29040e-10 DIIS
   @RHF iter  16:  -614.38459886949681   -2.61480e-12   3.32053e-10 DIIS
   @RHF iter  17:  -614.38459886949704   -2.27374e-13   1.71415e-10 DIIS
   @RHF iter  18:  -614.38459886949886   -1.81899e-12   6.81929e-11 DIIS
  Energy and wave function converged.

  ==> Post-Iterations <==

    Orbital Energies [Eh]
    ---------------------

    Doubly Occupied:

       1A    -20.583237     2A    -11.297604     3A    -11.241650
       4A    -11.238391     5A    -11.236887     6A    -11.236709
       7A    -11.235250     8A    -11.231800     9A    -11.231366
      10A    -11.230784    11A    -11.229978    12A    -11.228082
      13A    -11.227402    14A    -11.226639    15A    -11.226436
      16A     -1.398108    17A     -1.154401    18A     -1.151237
      19A     -1.047574    20A     -1.040381    21A     -1.015783
      22A     -1.008382    23A     -0.932008    24A     -0.928158
      25A     -0.846993    26A     -0.825135    27A     -0.799542
      28A     -0.793512    29A     -0.728453    30A     -0.691150
      31A     -0.668044    32A     -0.642749    33A     -0.631561
      34A     -0.627283    35A     -0.611933    36A     -0.585710
      37A     -0.585614    38A     -0.577904    39A     -0.576299
      40A     -0.574607    41A     -0.565495    42A     -0.565198
      43A     -0.533839    44A     -0.528044    45A     -0.499027
      46A     -0.487904    47A     -0.487065    48A     -0.483379
      49A     -0.479879    50A     -0.467625    51A     -0.337732
      52A     -0.327535    53A     -0.323750    54A     -0.306990

    Virtual:

      55A      0.124411    56A      0.137238    57A      0.144827
      58A      0.155406    59A      0.170181    60A      0.180531
      61A      0.194255    62A      0.207241    63A      0.215168
      64A      0.223857    65A      0.229723    66A      0.242648
      67A      0.255075    68A      0.260068    69A      0.266794
      70A      0.270243    71A      0.279753    72A      0.291956
      73A      0.298641    74A      0.302140    75A      0.366096
      76A      0.367913    77A      0.377553    78A      0.380471
      79A      0.428127    80A      0.452212    81A      0.456637
      82A      0.465690    83A      0.474512    84A      0.483708
      85A      0.493469    86A      0.502744    87A      0.510147
      88A      0.568697    89A      0.594992    90A      0.612505
      91A      0.624994    92A      0.633307    93A      0.646691
      94A      0.653923    95A      0.670363    96A      0.683881
      97A      0.693989    98A      0.696623    99A      0.701808
     100A      0.706050   101A      0.718848   102A      0.720868
     103A      0.733371   104A      0.737455   105A      0.746909
     106A      0.749610   107A      0.752669   108A      0.760231
     109A      0.764262   110A      0.769728   111A      0.778854
     112A      0.785991   113A      0.789345   114A      0.795268
     115A      0.801980   116A      0.816622   117A      0.836684
     118A      0.847191   119A      0.855832   120A      0.860428
     121A      0.873998   122A      0.878015   123A      0.883634
     124A      0.887422   125A      0.890578   126A      0.899983
     127A      0.902442   128A      0.909708   129A      0.917496
     130A      0.926838   131A      0.927503   132A      0.933813
     133A      0.941976   134A      0.944244   135A      0.954579
     136A      0.966508   137A      1.002962   138A      1.012971
     139A      1.018512   140A      1.035574   141A      1.054352
     142A      1.066238   143A      1.121512   144A      1.127917
     145A      1.134437   146A      1.140846   147A      1.146594
     148A      1.157229   149A      1.159891   150A      1.180405
     151A      1.199249   152A      1.202425   153A      1.224486
     154A      1.229458   155A      1.245692   156A      1.250125
     157A      1.256895   158A      1.261852   159A      1.270032
     160A      1.280089   161A      1.298411   162A      1.303158
     163A      1.305202   164A      1.308372   165A      1.314594
     166A      1.328608   167A      1.347009   168A      1.348764
     169A      1.371917   170A      1.381313   171A      1.419059
     172A      1.470626   173A      1.496734   174A      1.510455
     175A      1.526774   176A      1.535063   177A      1.557769
     178A      1.563663   179A      1.604039   180A      1.616788
     181A      1.622991   182A      1.669938   183A      1.677534
     184A      1.687970   185A      1.700916   186A      1.725422
     187A      1.738947   188A      1.739889   189A      1.747927
     190A      1.766221   191A      1.782265   192A      1.796525
     193A      1.799094   194A      1.807864   195A      1.822648
     196A      1.866786   197A      1.874865   198A      1.879229
     199A      1.885355   200A      1.896080   201A      1.903745
     202A      1.908271   203A      1.910229   204A      1.915175
     205A      1.922312   206A      1.930552   207A      1.934546
     208A      1.945259   209A      1.955846   210A      1.957575
     211A      1.960196   212A      1.971136   213A      1.977918
     214A      1.989703   215A      1.994373   216A      2.018510
     217A      2.035455   218A      2.039206   219A      2.049176
     220A      2.056893   221A      2.060945   222A      2.065342
     223A      2.069970   224A      2.086081   225A      2.112858
     226A      2.130559   227A      2.133418   228A      2.148741
     229A      2.154433   230A      2.163751   231A      2.175260
     232A      2.186092   233A      2.202777   234A      2.211656
     235A      2.225263   236A      2.254268   237A      2.262884
     238A      2.269651   239A      2.277094   240A      2.292975
     241A      2.295330   242A      2.311751   243A      2.326923
     244A      2.333569   245A      2.368567   246A      2.371144
     247A      2.417624   248A      2.446161   249A      2.452643
     250A      2.478122   251A      2.483261   252A      2.499687
     253A      2.522993   254A      2.534345   255A      2.544446
     256A      2.546320   257A      2.602931   258A      2.630727
     259A      2.644600   260A      2.734852   261A      2.750950
     262A      2.765684   263A      2.768865   264A      2.771993
     265A      2.785055   266A      2.801090   267A      2.810744
     268A      2.825218   269A      2.836597   270A      2.855982
     271A      2.871268   272A      2.903749   273A      2.957948
     274A      2.990584   275A      3.004837   276A      3.023159
     277A      3.049307   278A      3.080786   279A      3.107937
     280A      3.175792   281A      3.220055   282A      3.277095
     283A      3.280809   284A      3.313764   285A      3.344132
     286A      3.567863   287A      3.684721   288A      3.943862
     289A      3.992360   290A      4.178694

    Final Occupation by Irrep:
              A
    DOCC [    54 ]

  @RHF Final Energy:  -614.38459886949886

   => Energetics <=

    Nuclear Repulsion Energy =            863.4254070045425351
    One-Electron Energy =               -2546.1436085421719326
    Two-Electron Energy =                1068.3336026681304247
    Total Energy =                       -614.3845988694988591

Computation Completed

Properties will be evaluated at   0.000000,   0.000000,   0.000000 [a0]

Properties computed using the SCF density matrix

  Nuclear Dipole Moment: [e a0]
     X:    10.5144      Y:    -0.6100      Z:    -1.4108

  Electronic Dipole Moment: [e a0]
     X:   -10.1677      Y:     0.4461      Z:     0.9473

  Dipole Moment: [e a0]
     X:     0.3466      Y:    -0.1639      Z:    -0.4635     Total:     0.6016

  Dipole Moment: [D]
     X:     0.8811      Y:    -0.4165      Z:    -1.1782     Total:     1.5290

*** tstop() called on ds3 at Sun Apr 26 18:06:06 2020
Module time:
	user time   =     335.90 seconds =       5.60 minutes
	system time =     143.67 seconds =       2.39 minutes
	total time  =        475 seconds =       7.92 minutes
Total time:
	user time   =     335.90 seconds =       5.60 minutes
	system time =     143.67 seconds =       2.39 minutes
	total time  =        475 seconds =       7.92 minutes
                                     G D M A

                                 by Anthony Stone

                           version 2.2.06, 22 June 2011

               Distributed Multipoles from Gaussian wavefunctions

Starting at 18:6:6 on 26 Apr 2020

Using SCF density matrix from file ./SSI/SSI-017PHE-025TYR-1-dimer.test.4476.fchk

                         Distributed Multipole Analysis

Standard DMA

Positions and radii in angstrom
Multipole moments in atomic units, ea_0^k for rank k

C          x =  3.684265  y = -2.343098  z =  0.915910 angstrom
           Maximum rank =  0   Radius =  0.650 angstrom
                   Q00  =  -0.204303

C          x = -0.072735  y = -1.865098  z =  0.808910 angstrom
           Maximum rank =  0   Radius =  0.650 angstrom
                   Q00  =  -0.039723

C          x =  1.295265  y = -1.598098  z =  0.882910 angstrom
           Maximum rank =  0   Radius =  0.650 angstrom
                   Q00  =  -0.094121

C          x = -0.519735  y = -3.162098  z =  0.641910 angstrom
           Maximum rank =  0   Radius =  0.650 angstrom
                   Q00  =  -0.086444

C          x =  2.221265  y = -2.626098  z =  0.787910 angstrom
           Maximum rank =  0   Radius =  0.650 angstrom
                   Q00  =  -0.100782

C          x =  0.392265  y = -4.189098  z =  0.565910 angstrom
           Maximum rank =  0   Radius =  0.650 angstrom
                   Q00  =  -0.039078

C          x =  1.762265  y = -3.926098  z =  0.636910 angstrom
           Maximum rank =  0   Radius =  0.650 angstrom
                   Q00  =  -0.034283

H          x = -0.778735  y = -1.051098  z =  0.884910 angstrom
           Maximum rank =  0   Radius =  0.325 angstrom
                   Q00  =   0.068878

H          x =  1.626265  y = -0.579098  z =  1.029910 angstrom
           Maximum rank =  0   Radius =  0.325 angstrom
                   Q00  =   0.055829

H          x = -1.573735  y = -3.374098  z =  0.565910 angstrom
           Maximum rank =  0   Radius =  0.325 angstrom
                   Q00  =   0.053759

H          x =  0.055265  y = -5.207098  z =  0.448910 angstrom
           Maximum rank =  0   Radius =  0.325 angstrom
                   Q00  =   0.061689

H          x =  4.246265  y = -3.277098  z =  0.861910 angstrom
           Maximum rank =  0   Radius =  0.325 angstrom
                   Q00  =   0.095773

H          x =  3.865265  y = -1.921098  z =  1.901910 angstrom
           Maximum rank =  0   Radius =  0.325 angstrom
                   Q00  =   0.102600

H          x =  2.464265  y = -4.747098  z =  0.579910 angstrom
           Maximum rank =  0   Radius =  0.325 angstrom
                   Q00  =   0.057170

H          x =  4.076775  y = -1.647159  z =  0.159860 angstrom
           Maximum rank =  0   Radius =  0.325 angstrom
                   Q00  =   0.101366

C          x =  1.475265  y =  3.481902  z = -1.545090 angstrom
           Maximum rank =  0   Radius =  0.650 angstrom
                   Q00  =  -0.198615

C          x = -1.513735  y =  1.140902  z = -1.068090 angstrom
           Maximum rank =  0   Radius =  0.650 angstrom
                   Q00  =  -0.191422

C          x = -0.291735  y =  1.677902  z = -1.523090 angstrom
           Maximum rank =  0   Radius =  0.650 angstrom
                   Q00  =  -0.029913

C          x = -2.295735  y =  1.877902  z = -0.191090 angstrom
           Maximum rank =  0   Radius =  0.650 angstrom
                   Q00  =   0.306710

C          x =  0.137265  y =  2.939902  z = -1.114090 angstrom
           Maximum rank =  0   Radius =  0.650 angstrom
                   Q00  =  -0.131597

C          x = -1.887735  y =  3.137902  z =  0.212910 angstrom
           Maximum rank =  0   Radius =  0.650 angstrom
                   Q00  =  -0.109244

C          x = -0.667735  y =  3.655902  z = -0.233090 angstrom
           Maximum rank =  0   Radius =  0.650 angstrom
                   Q00  =   0.035797

O          x = -3.497735  y =  1.389902  z =  0.260910 angstrom
           Maximum rank =  0   Radius =  0.650 angstrom
                   Q00  =  -0.668102

H          x = -1.835735  y =  0.162902  z = -1.395090 angstrom
           Maximum rank =  0   Radius =  0.325 angstrom
                   Q00  =   0.075678

H          x =  0.330265  y =  1.102902  z = -2.196090 angstrom
           Maximum rank =  0   Radius =  0.325 angstrom
                   Q00  =   0.071441

H          x = -3.772735  y =  0.675902  z = -0.317090 angstrom
           Maximum rank =  0   Radius =  0.325 angstrom
                   Q00  =   0.400507

H          x = -2.512735  y =  3.710902  z =  0.880910 angstrom
           Maximum rank =  0   Radius =  0.325 angstrom
                   Q00  =   0.081277

H          x =  1.459265  y =  4.572902  z = -1.512090 angstrom
           Maximum rank =  0   Radius =  0.325 angstrom
                   Q00  =   0.097877

H          x =  1.676265  y =  3.176902  z = -2.569090 angstrom
           Maximum rank =  0   Radius =  0.325 angstrom
                   Q00  =   0.097850

H          x = -0.379735  y =  4.643902  z =  0.077910 angstrom
           Maximum rank =  0   Radius =  0.325 angstrom
                   Q00  =   0.063637

H          x =  2.287135  y =  3.099722  z = -0.908840 angstrom
           Maximum rank =  0   Radius =  0.325 angstrom
                   Q00  =   0.099789

Total multipoles referred to origin at
           x =   0.000000,  y =    0.000000,  z =    0.000000 angstrom
                   Q00  =  -0.000000

Finished at 18:6:6 on 26 Apr 2020

  DMA results are available in the Python driver through the
	  variable('DMA DISTRIBUTED MULTIPOLES')
  and
	  variable('DMA TOTAL MULTIPOLES')
  commands.

    Psi4 stopped on: Sunday, 26 April 2020 06:06PM
    Psi4 wall time for execution: 0:07:55.02

*** Psi4 exiting successfully. Buy a developer a beer!
