                               Psi4 1.3.2 release

  ==> Input File <==

--------------------------------------------------------------------------
import numpy as np
set {scf_type pk
basis cc-pvdz
d_convergence 10
gdma_switch   0
gdma_limit    0
gdma_origin   [ 0.0,  0.0,  0.0 ]
}
molecule test {
    units Angstrom
    0 1
    --
    0 1
    C               -1.069795550369188    -3.931854674654904    -1.036460136150445
    C               -1.188795550369188    -3.643854674654904    -2.545460136150445
    H               -0.029795550369188    -3.832854674654904    -0.723460136150445
    H               -1.680795550369188    -3.220854674654904    -0.479460136150445
    H               -1.414795550369188    -4.944854674654904    -0.825460136150445
    H               -2.234795550369189    -3.739854674654904    -2.840460136150445
    H               -0.591485550369188    -4.386154674654903    -3.095200136150445
    H               -0.880845550369188    -2.611154674654904    -2.766040136150445
    C                2.984204449630812     2.097145325345096     0.120539863849555
    C               -0.664795550369188     1.072145325345096     0.233539863849555
    C                0.712204449630812     0.757145325345096     0.448539863849555
    C                1.490204449630812     1.873145325345096    -0.045460136150445
    C                0.591204449630812     2.770145325345096    -0.532460136150445
    C               -1.362795550369188    -0.965854674654904     1.223539863849555
    C               -1.699795550369188     0.227145325345096     0.611539863849555
    C               -0.012795550369188    -1.313854674654904     1.452539863849555
    C                1.033204449630812    -0.466854674654904     1.074539863849555
    N               -0.697795550369188     2.302145325345095    -0.369460136150445
    H               -2.151795550369188    -1.637854674654904     1.525539863849555
    H               -2.724795550369188     0.519145325345096     0.420539863849555
    H                0.236204449630812    -2.252854674654904     1.931539863849555
    H                2.059204449630812    -0.759854674654904     1.282539863849555
    H               -1.542795550369188     2.794145325345096    -0.642460136150445
    H                0.949204449630812     3.703145325345096    -0.957460136150445
    H                3.330204449630812     2.668145325345096    -0.736460136150445
    H                3.469204449630812     1.116145325345096     0.112539863849555
    H                3.231984449630811     2.761445325345095     0.961539863849555

}
e, wfn = energy('scf', return_wfn=True)
gdma(wfn)
dmavals = variable('DMA DISTRIBUTED MULTIPOLES')
charges = np.array(dmavals)
print(charges)
np.save('SSI-113ALA-225TRP-1-dimer.npy', np.array(charges))--------------------------------------------------------------------------

*** tstart() called on ds3
*** at Mon Apr 27 07:51:37 2020

   => Loading Basis Set <=

    Name: CC-PVDZ
    Role: ORBITAL
    Keyword: BASIS
    atoms 1-2, 9-17  entry C          line   138 file /theoryfs2/ds/metcalf/miniconda2/envs/tf2gpu/share/psi4/basis/cc-pvdz.gbs
    atoms 3-8, 19-27 entry H          line    22 file /theoryfs2/ds/metcalf/miniconda2/envs/tf2gpu/share/psi4/basis/cc-pvdz.gbs
    atoms 18         entry N          line   168 file /theoryfs2/ds/metcalf/miniconda2/envs/tf2gpu/share/psi4/basis/cc-pvdz.gbs

         ---------------------------------------------------------
                                   SCF
               by Justin Turney, Rob Parrish, Andy Simmonett
                          and Daniel G. A. Smith
                              RHF Reference
                        1 Threads,    500 MiB Core
         ---------------------------------------------------------

  ==> Geometry <==

    Molecular point group: c1
    Full point group: C1

    Geometry (in Angstrom), charge = 0, multiplicity = 1:

       Center              X                  Y                   Z               Mass
    ------------   -----------------  -----------------  -----------------  -----------------
         C           -1.069795550369    -3.931854674655    -1.036460136150    12.000000000000
         C           -1.188795550369    -3.643854674655    -2.545460136150    12.000000000000
         H           -0.029795550369    -3.832854674655    -0.723460136150     1.007825032230
         H           -1.680795550369    -3.220854674655    -0.479460136150     1.007825032230
         H           -1.414795550369    -4.944854674655    -0.825460136150     1.007825032230
         H           -2.234795550369    -3.739854674655    -2.840460136150     1.007825032230
         H           -0.591485550369    -4.386154674655    -3.095200136150     1.007825032230
         H           -0.880845550369    -2.611154674655    -2.766040136150     1.007825032230
         C            2.984204449631     2.097145325345     0.120539863850    12.000000000000
         C           -0.664795550369     1.072145325345     0.233539863850    12.000000000000
         C            0.712204449631     0.757145325345     0.448539863850    12.000000000000
         C            1.490204449631     1.873145325345    -0.045460136150    12.000000000000
         C            0.591204449631     2.770145325345    -0.532460136150    12.000000000000
         C           -1.362795550369    -0.965854674655     1.223539863850    12.000000000000
         C           -1.699795550369     0.227145325345     0.611539863850    12.000000000000
         C           -0.012795550369    -1.313854674655     1.452539863850    12.000000000000
         C            1.033204449631    -0.466854674655     1.074539863850    12.000000000000
         N           -0.697795550369     2.302145325345    -0.369460136150    14.003074004430
         H           -2.151795550369    -1.637854674655     1.525539863850     1.007825032230
         H           -2.724795550369     0.519145325345     0.420539863850     1.007825032230
         H            0.236204449631    -2.252854674655     1.931539863850     1.007825032230
         H            2.059204449631    -0.759854674655     1.282539863850     1.007825032230
         H           -1.542795550369     2.794145325345    -0.642460136150     1.007825032230
         H            0.949204449631     3.703145325345    -0.957460136150     1.007825032230
         H            3.330204449631     2.668145325345    -0.736460136150     1.007825032230
         H            3.469204449631     1.116145325345     0.112539863850     1.007825032230
         H            3.231984449631     2.761445325345     0.961539863850     1.007825032230

  Running in c1 symmetry.

  Rotational constants: A =      0.04417  B =      0.01520  C =      0.01472 [cm^-1]
  Rotational constants: A =   1324.18467  B =    455.60293  C =    441.20512 [MHz]
  Nuclear repulsion =  647.074008007194038

  Charge       = 0
  Multiplicity = 1
  Electrons    = 88
  Nalpha       = 44
  Nbeta        = 44

  ==> Algorithm <==

  SCF Algorithm Type is PK.
  DIIS enabled.
  MOM disabled.
  Fractional occupation disabled.
  Guess Type is SAD.
  Energy threshold   = 1.00e-06
  Density threshold  = 1.00e-10
  Integral threshold = 0.00e+00

  ==> Primary Basis <==

  Basis Set: CC-PVDZ
    Blend: CC-PVDZ
    Number of shells: 117
    Number of basis function: 243
    Number of Cartesian functions: 255
    Spherical Harmonics?: true
    Max angular momentum: 2

  ==> Pre-Iterations <==

   -------------------------------------------------------
    Irrep   Nso     Nmo     Nalpha   Nbeta   Ndocc  Nsocc
   -------------------------------------------------------
     A        243     243       0       0       0       0
   -------------------------------------------------------
    Total     243     243      44      44      44       0
   -------------------------------------------------------

  ==> Integral Setup <==

  Using integral reordering PK algorithm.
  Sizing the integral batches needed.
  Building batch lookup table.
   Calculation information:
      Number of atoms:                  27
      Number of AO shells:             117
      Number of primitives:            339
      Number of atomic orbitals:       255
      Number of basis functions:       243

      Integral cutoff                 1.00e-12
      Number of threads:                 1

	Batch   1 pq = [       0,    9405] index = [             0,44231715] size =     44231715
	Batch   2 pq = [    9405,   13301] index = [      44231715,88464951] size =     44233236
	Batch   3 pq = [   13301,   16290] index = [      88464951,132690195] size =     44225244
	Batch   4 pq = [   16290,   18810] index = [     132690195,176917455] size =     44227260
	Batch   5 pq = [   18810,   21030] index = [     176917455,221140965] size =     44223510
	Batch   6 pq = [   21030,   23037] index = [     221140965,265363203] size =     44222238
	Batch   7 pq = [   23037,   24883] index = [     265363203,309594286] size =     44231083
	Batch   8 pq = [   24883,   26601] index = [     309594286,353819901] size =     44225615
	Batch   9 pq = [   26601,   28214] index = [     353819901,398029005] size =     44209104
	Batch  10 pq = [   28214,   29646] index = [     398029005,439457481] size =     41428476
  Task number: 40
  Buffer size: 11059200
  Buffer per thread: 2
  We computed 21930974 shell quartets total.
  Whereas there are 23829156 unique shell quartets.

  ==> DiskJK: Disk-Based J/K Matrices <==

    J tasked:                  Yes
    K tasked:                  Yes
    wK tasked:                  No
    Memory [MiB]:              375
    Schwarz Cutoff:          1E-12

    OpenMP threads:              1

  Minimum eigenvalue in the overlap matrix is 2.5699092752E-04.
  Using Symmetric Orthogonalization.

  SCF Guess: Superposition of Atomic Densities via on-the-fly atomic UHF.

  ==> Iterations <==

                        Total Energy        Delta E     RMS |[F,P]|

   @RHF iter SAD:  -478.88333934809208   -4.78883e+02   0.00000e+00
   @RHF iter   1:  -479.48568872070769   -6.02349e-01   2.58067e-03 DIIS
   @RHF iter   2:  -479.71488041663883   -2.29192e-01   1.14189e-03 DIIS
   @RHF iter   3:  -479.75571567758976   -4.08353e-02   2.99569e-04 DIIS
   @RHF iter   4:  -479.75945954155452   -3.74386e-03   1.37713e-04 DIIS
   @RHF iter   5:  -479.76009318030344   -6.33639e-04   2.01615e-05 DIIS
   @RHF iter   6:  -479.76012236564191   -2.91853e-05   9.23791e-06 DIIS
   @RHF iter   7:  -479.76012824716099   -5.88152e-06   3.80042e-06 DIIS
   @RHF iter   8:  -479.76012988611546   -1.63895e-06   1.48283e-06 DIIS
   @RHF iter   9:  -479.76013020909170   -3.22976e-07   6.62485e-07 DIIS
   @RHF iter  10:  -479.76013027388399   -6.47923e-08   3.07940e-07 DIIS
   @RHF iter  11:  -479.76013029057401   -1.66900e-08   1.20051e-07 DIIS
   @RHF iter  12:  -479.76013029310241   -2.52840e-09   4.13826e-08 DIIS
   @RHF iter  13:  -479.76013029329380   -1.91392e-10   1.24032e-08 DIIS
   @RHF iter  14:  -479.76013029330943   -1.56319e-11   5.32828e-09 DIIS
   @RHF iter  15:  -479.76013029331091   -1.47793e-12   2.18586e-09 DIIS
   @RHF iter  16:  -479.76013029330545    5.45697e-12   9.54618e-10 DIIS
   @RHF iter  17:  -479.76013029331330   -7.84439e-12   4.57087e-10 DIIS
   @RHF iter  18:  -479.76013029330778    5.51381e-12   1.72904e-10 DIIS
   @RHF iter  19:  -479.76013029330738    3.97904e-13   5.98437e-11 DIIS
  Energy and wave function converged.

  ==> Post-Iterations <==

    Orbital Energies [Eh]
    ---------------------

    Doubly Occupied:

       1A    -15.603815     2A    -11.265041     3A    -11.263650
       4A    -11.233818     5A    -11.231864     6A    -11.230607
       7A    -11.229861     8A    -11.224134     9A    -11.223076
      10A    -11.218791    11A    -11.211361    12A    -11.206618
      13A     -1.292735    14A     -1.124769    15A     -1.071167
      16A     -1.005575    17A     -0.996514    18A     -0.984345
      19A     -0.931167    20A     -0.836150    21A     -0.826525
      22A     -0.804386    23A     -0.750493    24A     -0.719512
      25A     -0.665089    26A     -0.637460    27A     -0.604239
      28A     -0.591534    29A     -0.590519    30A     -0.588612
      31A     -0.585073    32A     -0.569612    33A     -0.547628
      34A     -0.532815    35A     -0.526457    36A     -0.493218
      37A     -0.486199    38A     -0.480985    39A     -0.475144
      40A     -0.470969    41A     -0.457502    42A     -0.372796
      43A     -0.293095    44A     -0.275677

    Virtual:

      45A      0.124420    46A      0.166736    47A      0.179957
      48A      0.184692    49A      0.192276    50A      0.208158
      51A      0.215519    52A      0.225183    53A      0.229861
      54A      0.254251    55A      0.256381    56A      0.265394
      57A      0.274184    58A      0.279332    59A      0.294094
      60A      0.296783    61A      0.307118    62A      0.332506
      63A      0.367875    64A      0.381009    65A      0.397832
      66A      0.401985    67A      0.421286    68A      0.444003
      69A      0.465939    70A      0.475871    71A      0.500654
      72A      0.510167    73A      0.592983    74A      0.596671
      75A      0.602777    76A      0.608586    77A      0.618695
      78A      0.634902    79A      0.652420    80A      0.658360
      81A      0.659623    82A      0.687530    83A      0.688786
      84A      0.705879    85A      0.719618    86A      0.726418
      87A      0.730954    88A      0.738236    89A      0.749269
      90A      0.755715    91A      0.757139    92A      0.778668
      93A      0.785540    94A      0.796984    95A      0.837388
      96A      0.838907    97A      0.852919    98A      0.865417
      99A      0.875771   100A      0.886542   101A      0.887418
     102A      0.898332   103A      0.899760   104A      0.904528
     105A      0.907043   106A      0.915197   107A      0.927554
     108A      0.929846   109A      0.944374   110A      0.951959
     111A      0.956318   112A      0.964638   113A      0.976237
     114A      0.981599   115A      1.009681   116A      1.013179
     117A      1.053473   118A      1.072846   119A      1.094949
     120A      1.126255   121A      1.130783   122A      1.131211
     123A      1.139739   124A      1.146638   125A      1.164547
     126A      1.167184   127A      1.203011   128A      1.219175
     129A      1.231577   130A      1.240497   131A      1.243256
     132A      1.273859   133A      1.278307   134A      1.283657
     135A      1.303637   136A      1.330949   137A      1.336330
     138A      1.356117   139A      1.364044   140A      1.405425
     141A      1.438660   142A      1.488419   143A      1.493074
     144A      1.507412   145A      1.532112   146A      1.555719
     147A      1.577263   148A      1.597515   149A      1.620981
     150A      1.627612   151A      1.639686   152A      1.683454
     153A      1.687874   154A      1.693803   155A      1.697540
     156A      1.742792   157A      1.768262   158A      1.774643
     159A      1.791191   160A      1.810823   161A      1.827210
     162A      1.832055   163A      1.867498   164A      1.872117
     165A      1.880717   166A      1.887091   167A      1.890311
     168A      1.898911   169A      1.907338   170A      1.919278
     171A      1.931296   172A      1.937085   173A      1.941328
     174A      1.953052   175A      1.956958   176A      1.963100
     177A      1.967627   178A      1.972400   179A      1.982492
     180A      1.998176   181A      2.005227   182A      2.011266
     183A      2.043380   184A      2.058524   185A      2.066872
     186A      2.084771   187A      2.093654   188A      2.103985
     189A      2.113388   190A      2.118988   191A      2.127611
     192A      2.148184   193A      2.158727   194A      2.168874
     195A      2.178709   196A      2.228368   197A      2.251766
     198A      2.269230   199A      2.295214   200A      2.295959
     201A      2.315843   202A      2.320491   203A      2.339998
     204A      2.348971   205A      2.369339   206A      2.396786
     207A      2.436361   208A      2.450229   209A      2.458626
     210A      2.481355   211A      2.528564   212A      2.570968
     213A      2.572439   214A      2.581108   215A      2.587995
     216A      2.623713   217A      2.655329   218A      2.676256
     219A      2.713244   220A      2.762730   221A      2.765105
     222A      2.770484   223A      2.780788   224A      2.789379
     225A      2.808563   226A      2.828669   227A      2.842584
     228A      2.846075   229A      2.859065   230A      2.893999
     231A      2.908213   232A      2.955150   233A      2.964855
     234A      2.979998   235A      2.999437   236A      3.031510
     237A      3.063493   238A      3.097612   239A      3.195041
     240A      3.274630   241A      3.362925   242A      3.736874
     243A      3.930108

    Final Occupation by Irrep:
              A
    DOCC [    44 ]

  @RHF Final Energy:  -479.76013029330738

   => Energetics <=

    Nuclear Repulsion Energy =            647.0740080071940383
    One-Electron Energy =               -1932.2070861082536339
    Two-Electron Energy =                 805.3729478077523254
    Total Energy =                       -479.7601302933073839

Computation Completed

Properties will be evaluated at   0.000000,   0.000000,   0.000000 [a0]

Properties computed using the SCF density matrix

  Nuclear Dipole Moment: [e a0]
     X:     0.0246      Y:   -12.9664      Z:    -6.4039

  Electronic Dipole Moment: [e a0]
     X:    -0.2961      Y:    13.7413      Z:     6.1610

  Dipole Moment: [e a0]
     X:    -0.2715      Y:     0.7749      Z:    -0.2430     Total:     0.8563

  Dipole Moment: [D]
     X:    -0.6900      Y:     1.9697      Z:    -0.6176     Total:     2.1765

*** tstop() called on ds3 at Mon Apr 27 07:59:33 2020
Module time:
	user time   =     175.46 seconds =       2.92 minutes
	system time =      68.33 seconds =       1.14 minutes
	total time  =        476 seconds =       7.93 minutes
Total time:
	user time   =     175.46 seconds =       2.92 minutes
	system time =      68.33 seconds =       1.14 minutes
	total time  =        476 seconds =       7.93 minutes
                                     G D M A

                                 by Anthony Stone

                           version 2.2.06, 22 June 2011

               Distributed Multipoles from Gaussian wavefunctions

Starting at 7:59:33 on 27 Apr 2020

Using SCF density matrix from file ./SSI/SSI-113ALA-225TRP-1-dimer.test.328.fchk

                         Distributed Multipole Analysis

Standard DMA

Positions and radii in angstrom
Multipole moments in atomic units, ea_0^k for rank k

C          x = -1.069796  y = -3.931855  z = -1.036460 angstrom
           Maximum rank =  0   Radius =  0.650 angstrom
                   Q00  =  -0.232198

C          x = -1.188796  y = -3.643855  z = -2.545460 angstrom
           Maximum rank =  0   Radius =  0.650 angstrom
                   Q00  =  -0.239227

H          x = -0.029796  y = -3.832855  z = -0.723460 angstrom
           Maximum rank =  0   Radius =  0.325 angstrom
                   Q00  =   0.081847

H          x = -1.680796  y = -3.220855  z = -0.479460 angstrom
           Maximum rank =  0   Radius =  0.325 angstrom
                   Q00  =   0.085263

H          x = -1.414796  y = -4.944855  z = -0.825460 angstrom
           Maximum rank =  0   Radius =  0.325 angstrom
                   Q00  =   0.070835

H          x = -2.234796  y = -3.739855  z = -2.840460 angstrom
           Maximum rank =  0   Radius =  0.325 angstrom
                   Q00  =   0.073352

H          x = -0.591486  y = -4.386155  z = -3.095200 angstrom
           Maximum rank =  0   Radius =  0.325 angstrom
                   Q00  =   0.075765

H          x = -0.880846  y = -2.611155  z = -2.766040 angstrom
           Maximum rank =  0   Radius =  0.325 angstrom
                   Q00  =   0.085338

C          x =  2.984204  y =  2.097145  z =  0.120540 angstrom
           Maximum rank =  0   Radius =  0.650 angstrom
                   Q00  =  -0.184069

C          x = -0.664796  y =  1.072145  z =  0.233540 angstrom
           Maximum rank =  0   Radius =  0.650 angstrom
                   Q00  =   0.257110

C          x =  0.712204  y =  0.757145  z =  0.448540 angstrom
           Maximum rank =  0   Radius =  0.650 angstrom
                   Q00  =  -0.051525

C          x =  1.490204  y =  1.873145  z = -0.045460 angstrom
           Maximum rank =  0   Radius =  0.650 angstrom
                   Q00  =  -0.130373

C          x =  0.591204  y =  2.770145  z = -0.532460 angstrom
           Maximum rank =  0   Radius =  0.650 angstrom
                   Q00  =   0.076857

C          x = -1.362796  y = -0.965855  z =  1.223540 angstrom
           Maximum rank =  0   Radius =  0.650 angstrom
                   Q00  =  -0.081300

C          x = -1.699796  y =  0.227145  z =  0.611540 angstrom
           Maximum rank =  0   Radius =  0.650 angstrom
                   Q00  =  -0.119455

C          x = -0.012796  y = -1.313855  z =  1.452540 angstrom
           Maximum rank =  0   Radius =  0.650 angstrom
                   Q00  =  -0.056271

C          x =  1.033204  y = -0.466855  z =  1.074540 angstrom
           Maximum rank =  0   Radius =  0.650 angstrom
                   Q00  =  -0.091634

N          x = -0.697796  y =  2.302145  z = -0.369460 angstrom
           Maximum rank =  0   Radius =  0.650 angstrom
                   Q00  =  -0.499595

H          x = -2.151796  y = -1.637855  z =  1.525540 angstrom
           Maximum rank =  0   Radius =  0.325 angstrom
                   Q00  =   0.067215

H          x = -2.724796  y =  0.519145  z =  0.420540 angstrom
           Maximum rank =  0   Radius =  0.325 angstrom
                   Q00  =   0.074316

H          x =  0.236204  y = -2.252855  z =  1.931540 angstrom
           Maximum rank =  0   Radius =  0.325 angstrom
                   Q00  =   0.062908

H          x =  2.059204  y = -0.759855  z =  1.282540 angstrom
           Maximum rank =  0   Radius =  0.325 angstrom
                   Q00  =   0.070419

H          x = -1.542796  y =  2.794145  z = -0.642460 angstrom
           Maximum rank =  0   Radius =  0.325 angstrom
                   Q00  =   0.218199

H          x =  0.949204  y =  3.703145  z = -0.957460 angstrom
           Maximum rank =  0   Radius =  0.325 angstrom
                   Q00  =   0.101102

H          x =  3.330204  y =  2.668145  z = -0.736460 angstrom
           Maximum rank =  0   Radius =  0.325 angstrom
                   Q00  =   0.098765

H          x =  3.469204  y =  1.116145  z =  0.112540 angstrom
           Maximum rank =  0   Radius =  0.325 angstrom
                   Q00  =   0.095464

H          x =  3.231984  y =  2.761445  z =  0.961540 angstrom
           Maximum rank =  0   Radius =  0.325 angstrom
                   Q00  =   0.090891

Total multipoles referred to origin at
           x =   0.000000,  y =    0.000000,  z =    0.000000 angstrom
                   Q00  =  -0.000000

Finished at 7:59:34 on 27 Apr 2020

  DMA results are available in the Python driver through the
	  variable('DMA DISTRIBUTED MULTIPOLES')
  and
	  variable('DMA TOTAL MULTIPOLES')
  commands.

    Psi4 stopped on: Monday, 27 April 2020 07:59AM
    Psi4 wall time for execution: 0:07:56.62

*** Psi4 exiting successfully. Buy a developer a beer!
