                               Psi4 1.3.2 release

  ==> Input File <==

--------------------------------------------------------------------------
import numpy as np
set {scf_type pk
basis cc-pvdz
d_convergence 10
gdma_switch   0
gdma_limit    0
gdma_origin   [ 0.0,  0.0,  0.0 ]
}
molecule test {
    units Angstrom
    0 1
    --
    0 1
    C                0.164699770873922     1.284205657437850    -0.742394519116071
    C               -0.049300229126078     2.273205657437850    -1.874394519116071
    H               -0.764300229126078     0.750205657437850    -0.538394519116071
    H                0.934699770873922     0.564205657437849    -1.015394519116071
    H                0.491699770873922     1.799205657437849     0.160605480883929
    H                0.866699770873922     2.829205657437849    -1.996394519116071
    H               -0.846201229126078     3.001903657437850    -1.664759519116071
    H               -0.232087229126078     1.729160657437850    -2.812799519116071
    C                0.618699770873922    -1.854794342562151     0.962605480883929
    C               -0.740300229126078    -1.708794342562151     1.663605480883929
    H                1.051699770873922    -2.829794342562150     1.161605480883929
    H                0.476699770873922    -1.760794342562151    -0.114394519116071
    H                1.307699770873921    -1.078794342562150     1.290605480883929
    H               -1.206300229126079    -0.808794342562151     1.262605480883929
    H               -0.614837229126078    -1.564691342562151     2.746884480883929
    H               -1.391639229126079    -2.557465342562151     1.407645480883929

}
e, wfn = energy('scf', return_wfn=True)
gdma(wfn)
dmavals = variable('DMA DISTRIBUTED MULTIPOLES')
charges = np.array(dmavals)
print(charges)
np.save('SSI-023VAL-055LEU-1-dimer.npy', np.array(charges))--------------------------------------------------------------------------

*** tstart() called on ds3
*** at Sun Apr 26 20:08:59 2020

   => Loading Basis Set <=

    Name: CC-PVDZ
    Role: ORBITAL
    Keyword: BASIS
    atoms 1-2, 9-10  entry C          line   138 file /theoryfs2/ds/metcalf/miniconda2/envs/tf2gpu/share/psi4/basis/cc-pvdz.gbs
    atoms 3-8, 11-16 entry H          line    22 file /theoryfs2/ds/metcalf/miniconda2/envs/tf2gpu/share/psi4/basis/cc-pvdz.gbs

         ---------------------------------------------------------
                                   SCF
               by Justin Turney, Rob Parrish, Andy Simmonett
                          and Daniel G. A. Smith
                              RHF Reference
                        1 Threads,    500 MiB Core
         ---------------------------------------------------------

  ==> Geometry <==

    Molecular point group: c1
    Full point group: C1

    Geometry (in Angstrom), charge = 0, multiplicity = 1:

       Center              X                  Y                   Z               Mass
    ------------   -----------------  -----------------  -----------------  -----------------
         C            0.164699770874     1.284205657438    -0.742394519116    12.000000000000
         C           -0.049300229126     2.273205657438    -1.874394519116    12.000000000000
         H           -0.764300229126     0.750205657438    -0.538394519116     1.007825032230
         H            0.934699770874     0.564205657438    -1.015394519116     1.007825032230
         H            0.491699770874     1.799205657438     0.160605480884     1.007825032230
         H            0.866699770874     2.829205657438    -1.996394519116     1.007825032230
         H           -0.846201229126     3.001903657438    -1.664759519116     1.007825032230
         H           -0.232087229126     1.729160657438    -2.812799519116     1.007825032230
         C            0.618699770874    -1.854794342562     0.962605480884    12.000000000000
         C           -0.740300229126    -1.708794342562     1.663605480884    12.000000000000
         H            1.051699770874    -2.829794342562     1.161605480884     1.007825032230
         H            0.476699770874    -1.760794342562    -0.114394519116     1.007825032230
         H            1.307699770874    -1.078794342562     1.290605480884     1.007825032230
         H           -1.206300229126    -0.808794342562     1.262605480884     1.007825032230
         H           -0.614837229126    -1.564691342562     2.746884480884     1.007825032230
         H           -1.391639229126    -2.557465342562     1.407645480884     1.007825032230

  Running in c1 symmetry.

  Rotational constants: A =      0.52678  B =      0.05181  C =      0.04929 [cm^-1]
  Rotational constants: A =  15792.59126  B =   1553.34658  C =   1477.80826 [MHz]
  Nuclear repulsion =  123.887879129002243

  Charge       = 0
  Multiplicity = 1
  Electrons    = 36
  Nalpha       = 18
  Nbeta        = 18

  ==> Algorithm <==

  SCF Algorithm Type is PK.
  DIIS enabled.
  MOM disabled.
  Fractional occupation disabled.
  Guess Type is SAD.
  Energy threshold   = 1.00e-06
  Density threshold  = 1.00e-10
  Integral threshold = 0.00e+00

  ==> Primary Basis <==

  Basis Set: CC-PVDZ
    Blend: CC-PVDZ
    Number of shells: 60
    Number of basis function: 116
    Number of Cartesian functions: 120
    Spherical Harmonics?: true
    Max angular momentum: 2

  ==> Pre-Iterations <==

   -------------------------------------------------------
    Irrep   Nso     Nmo     Nalpha   Nbeta   Ndocc  Nsocc
   -------------------------------------------------------
     A        116     116       0       0       0       0
   -------------------------------------------------------
    Total     116     116      18      18      18       0
   -------------------------------------------------------

  ==> Integral Setup <==

  Using integral reordering PK algorithm.
  Sizing the integral batches needed.
  Building batch lookup table.
   Calculation information:
      Number of atoms:                  16
      Number of AO shells:              60
      Number of primitives:            148
      Number of atomic orbitals:       120
      Number of basis functions:       116

      Integral cutoff                 1.00e-12
      Number of threads:                 1

	Batch   1 pq = [       0,    6786] index = [             0,23028291] size =     23028291
  Task number: 3
  Buffer size: 11059200
  Buffer per thread: 2
  We computed 1472406 shell quartets total.
  Whereas there are 1675365 unique shell quartets.

  ==> DiskJK: Disk-Based J/K Matrices <==

    J tasked:                  Yes
    K tasked:                  Yes
    wK tasked:                  No
    Memory [MiB]:              375
    Schwarz Cutoff:          1E-12

    OpenMP threads:              1

  Minimum eigenvalue in the overlap matrix is 6.2387104788E-03.
  Using Symmetric Orthogonalization.

  SCF Guess: Superposition of Atomic Densities via on-the-fly atomic UHF.

  ==> Iterations <==

                        Total Energy        Delta E     RMS |[F,P]|

   @RHF iter SAD:  -157.37265362170319   -1.57373e+02   0.00000e+00
   @RHF iter   1:  -158.30510681006686   -9.32453e-01   4.22314e-03 DIIS
   @RHF iter   2:  -158.43919953418350   -1.34093e-01   1.79586e-03 DIIS
   @RHF iter   3:  -158.46261475506449   -2.34152e-02   3.49985e-04 DIIS
   @RHF iter   4:  -158.46444597103346   -1.83122e-03   3.85080e-05 DIIS
   @RHF iter   5:  -158.46446921894238   -2.32479e-05   6.37773e-06 DIIS
   @RHF iter   6:  -158.46446982198864   -6.03046e-07   1.05934e-06 DIIS
   @RHF iter   7:  -158.46446983297488   -1.09862e-08   3.04878e-07 DIIS
   @RHF iter   8:  -158.46446983378794   -8.13060e-10   3.95551e-08 DIIS
   @RHF iter   9:  -158.46446983380943   -2.14868e-11   8.31937e-09 DIIS
   @RHF iter  10:  -158.46446983381065   -1.22213e-12   2.14231e-09 DIIS
   @RHF iter  11:  -158.46446983381034    3.12639e-13   6.69615e-10 DIIS
   @RHF iter  12:  -158.46446983381105   -7.10543e-13   1.60128e-10 DIIS
   @RHF iter  13:  -158.46446983381080    2.55795e-13   1.95377e-11 DIIS
  Energy and wave function converged.

  ==> Post-Iterations <==

    Orbital Energies [Eh]
    ---------------------

    Doubly Occupied:

       1A    -11.218671     2A    -11.217391     3A    -11.216240
       4A    -11.215025     5A     -1.022088     6A     -1.015232
       7A     -0.838680     8A     -0.835436     9A     -0.602436
      10A     -0.599350    11A     -0.598736    12A     -0.592400
      13A     -0.505363    14A     -0.495734    15A     -0.490507
      16A     -0.489293    17A     -0.483477    18A     -0.476329

    Virtual:

      19A      0.175194    20A      0.196372    21A      0.226520
      22A      0.238124    23A      0.239553    24A      0.259391
      25A      0.265328    26A      0.281479    27A      0.284916
      28A      0.297889    29A      0.303804    30A      0.343501
      31A      0.396573    32A      0.400605    33A      0.560894
      34A      0.596109    35A      0.601128    36A      0.602265
      37A      0.609632    38A      0.641006    39A      0.684698
      40A      0.699428    41A      0.707933    42A      0.777462
      43A      0.841081    44A      0.857812    45A      0.887825
      46A      0.892195    47A      0.893418    48A      0.897241
      49A      0.909126    50A      0.912375    51A      0.917353
      52A      0.928253    53A      0.939692    54A      0.969381
      55A      0.973216    56A      1.014202    57A      1.124183
      58A      1.129415    59A      1.132685    60A      1.154642
      61A      1.214618    62A      1.275080    63A      1.461178
      64A      1.468849    65A      1.483316    66A      1.497095
      67A      1.588312    68A      1.593564    69A      1.678484
      70A      1.682440    71A      1.694095    72A      1.698818
      73A      1.850800    74A      1.866169    75A      1.874118
      76A      1.880650    77A      1.896756    78A      1.914120
      79A      1.937112    80A      1.942329    81A      1.945546
      82A      1.949600    83A      1.954964    84A      1.961629
      85A      1.967234    86A      1.977380    87A      1.992872
      88A      2.060500    89A      2.084378    90A      2.126055
      91A      2.130088    92A      2.147001    93A      2.285331
      94A      2.313073    95A      2.314648    96A      2.358554
      97A      2.437610    98A      2.453726    99A      2.465967
     100A      2.479199   101A      2.554489   102A      2.569175
     103A      2.577025   104A      2.592720   105A      2.766637
     106A      2.768320   107A      2.789632   108A      2.794744
     109A      2.845631   110A      2.861289   111A      2.864436
     112A      2.873843   113A      2.932175   114A      2.946934
     115A      2.974635   116A      2.983790

    Final Occupation by Irrep:
              A
    DOCC [    18 ]

  @RHF Final Energy:  -158.46446983381080

   => Energetics <=

    Nuclear Repulsion Energy =            123.8878791290022434
    One-Electron Energy =                -456.8799214574374332
    Two-Electron Energy =                 174.5275724946244225
    Total Energy =                       -158.4644698338107958

Computation Completed

Properties will be evaluated at   0.000000,   0.000000,   0.000000 [a0]

Properties computed using the SCF density matrix

  Nuclear Dipole Moment: [e a0]
     X:     0.0692      Y:     0.0690      Z:    -0.1052

  Electronic Dipole Moment: [e a0]
     X:    -0.0453      Y:    -0.0487      Z:     0.0885

  Dipole Moment: [e a0]
     X:     0.0239      Y:     0.0203      Z:    -0.0167     Total:     0.0355

  Dipole Moment: [D]
     X:     0.0608      Y:     0.0515      Z:    -0.0424     Total:     0.0903

*** tstop() called on ds3 at Sun Apr 26 20:09:11 2020
Module time:
	user time   =       8.31 seconds =       0.14 minutes
	system time =       2.83 seconds =       0.05 minutes
	total time  =         12 seconds =       0.20 minutes
Total time:
	user time   =       8.31 seconds =       0.14 minutes
	system time =       2.83 seconds =       0.05 minutes
	total time  =         12 seconds =       0.20 minutes
                                     G D M A

                                 by Anthony Stone

                           version 2.2.06, 22 June 2011

               Distributed Multipoles from Gaussian wavefunctions

Starting at 20:9:11 on 26 Apr 2020

Using SCF density matrix from file ./SSI/SSI-023VAL-055LEU-1-dimer.test.12745.fchk

                         Distributed Multipole Analysis

Standard DMA

Positions and radii in angstrom
Multipole moments in atomic units, ea_0^k for rank k

C          x =  0.164700  y =  1.284206  z = -0.742395 angstrom
           Maximum rank =  0   Radius =  0.650 angstrom
                   Q00  =  -0.242494

C          x = -0.049300  y =  2.273206  z = -1.874395 angstrom
           Maximum rank =  0   Radius =  0.650 angstrom
                   Q00  =  -0.229691

H          x = -0.764300  y =  0.750206  z = -0.538395 angstrom
           Maximum rank =  0   Radius =  0.325 angstrom
                   Q00  =   0.075728

H          x =  0.934700  y =  0.564206  z = -1.015395 angstrom
           Maximum rank =  0   Radius =  0.325 angstrom
                   Q00  =   0.080673

H          x =  0.491700  y =  1.799206  z =  0.160605 angstrom
           Maximum rank =  0   Radius =  0.325 angstrom
                   Q00  =   0.078456

H          x =  0.866700  y =  2.829206  z = -1.996395 angstrom
           Maximum rank =  0   Radius =  0.325 angstrom
                   Q00  =   0.076927

H          x = -0.846201  y =  3.001904  z = -1.664760 angstrom
           Maximum rank =  0   Radius =  0.325 angstrom
                   Q00  =   0.081116

H          x = -0.232087  y =  1.729161  z = -2.812800 angstrom
           Maximum rank =  0   Radius =  0.325 angstrom
                   Q00  =   0.078020

C          x =  0.618700  y = -1.854794  z =  0.962605 angstrom
           Maximum rank =  0   Radius =  0.650 angstrom
                   Q00  =  -0.239670

C          x = -0.740300  y = -1.708794  z =  1.663605 angstrom
           Maximum rank =  0   Radius =  0.650 angstrom
                   Q00  =  -0.234843

H          x =  1.051700  y = -2.829794  z =  1.161605 angstrom
           Maximum rank =  0   Radius =  0.325 angstrom
                   Q00  =   0.078665

H          x =  0.476700  y = -1.760794  z = -0.114395 angstrom
           Maximum rank =  0   Radius =  0.325 angstrom
                   Q00  =   0.077553

H          x =  1.307700  y = -1.078794  z =  1.290605 angstrom
           Maximum rank =  0   Radius =  0.325 angstrom
                   Q00  =   0.081215

H          x = -1.206300  y = -0.808794  z =  1.262605 angstrom
           Maximum rank =  0   Radius =  0.325 angstrom
                   Q00  =   0.076396

H          x = -0.614837  y = -1.564691  z =  2.746884 angstrom
           Maximum rank =  0   Radius =  0.325 angstrom
                   Q00  =   0.081493

H          x = -1.391639  y = -2.557465  z =  1.407645 angstrom
           Maximum rank =  0   Radius =  0.325 angstrom
                   Q00  =   0.080457

Total multipoles referred to origin at
           x =   0.000000,  y =    0.000000,  z =    0.000000 angstrom
                   Q00  =  -0.000000

Finished at 20:9:11 on 26 Apr 2020

  DMA results are available in the Python driver through the
	  variable('DMA DISTRIBUTED MULTIPOLES')
  and
	  variable('DMA TOTAL MULTIPOLES')
  commands.

    Psi4 stopped on: Sunday, 26 April 2020 08:09PM
    Psi4 wall time for execution: 0:00:11.62

*** Psi4 exiting successfully. Buy a developer a beer!
