                               Psi4 1.3.2 release

  ==> Input File <==

--------------------------------------------------------------------------
import numpy as np
set {scf_type pk
basis cc-pvdz
d_convergence 10
gdma_switch   0
gdma_limit    0
gdma_origin   [ 0.0,  0.0,  0.0 ]
}
molecule test {
    units Angstrom
    0 1
    --
    0 1
    C                0.338533621697416    -1.864401946767420    -0.953768534830864
    C                1.540533621697416    -2.793401946767420    -0.687768534830864
    C                0.491533621697416    -0.591401946767420    -0.183768534830864
    C                1.573533621697416     0.230598053232580    -0.449768534830864
    C               -0.323466378302584    -0.315401946767420     0.915231465169136
    C                1.789533621697416     1.387598053232580     0.337231465169136
    C               -0.117466378302584     0.820598053232580     1.690231465169136
    C                0.948533621697416     1.643598053232580     1.412231465169136
    O                1.100533621697416     2.768598053232580     2.179231465169136
    H                0.280533621697416    -1.637401946767420    -2.018768534830864
    H               -0.585466378302584    -2.366401946767421    -0.662768534830864
    H                2.437533621697416    -2.325401946767420    -1.097768534830864
    H                2.237533621697416     0.012598053232580    -1.276768534830864
    H               -1.138466378302584    -0.984401946767420     1.162231465169136
    H                2.614533621697416     2.052598053232580     0.116231465169136
    H               -0.769466378302584     1.044598053232580     2.523231465169136
    H                1.832533621697416     3.316598053232580     1.872231465169136
    H                1.374373621697416    -3.767780946767421    -1.170446534830864
    H                1.699303621697416    -2.952890946767420     0.388965465169136
    C               -2.785466378302584    -0.235401946767420    -2.177768534830864
    C               -4.042466378302584    -1.018401946767420    -1.788768534830864
    H               -2.162466378302584    -0.068401946767420    -1.299768534830864
    H               -2.223466378302584    -0.800401946767420    -2.920768534830864
    H               -3.068466378302584     0.728598053232580    -2.602768534830864
    H               -4.644466378302583    -1.144401946767420    -2.685768534830864
    H               -4.601306378302584    -0.453127946767420    -1.028399534830864
    H               -3.763736378302584    -2.016721946767420    -1.420442534830864

}
e, wfn = energy('scf', return_wfn=True)
gdma(wfn)
dmavals = variable('DMA DISTRIBUTED MULTIPOLES')
charges = np.array(dmavals)
print(charges)
np.save('SSI-044TYR-109LEU-1-dimer.npy', np.array(charges))--------------------------------------------------------------------------

*** tstart() called on ds3
*** at Mon Apr 27 14:26:41 2020

   => Loading Basis Set <=

    Name: CC-PVDZ
    Role: ORBITAL
    Keyword: BASIS
    atoms 1-8, 20-21   entry C          line   138 file /theoryfs2/ds/metcalf/miniconda2/envs/tf2gpu/share/psi4/basis/cc-pvdz.gbs
    atoms 9            entry O          line   198 file /theoryfs2/ds/metcalf/miniconda2/envs/tf2gpu/share/psi4/basis/cc-pvdz.gbs
    atoms 10-19, 22-27 entry H          line    22 file /theoryfs2/ds/metcalf/miniconda2/envs/tf2gpu/share/psi4/basis/cc-pvdz.gbs

         ---------------------------------------------------------
                                   SCF
               by Justin Turney, Rob Parrish, Andy Simmonett
                          and Daniel G. A. Smith
                              RHF Reference
                        1 Threads,    500 MiB Core
         ---------------------------------------------------------

  ==> Geometry <==

    Molecular point group: c1
    Full point group: C1

    Geometry (in Angstrom), charge = 0, multiplicity = 1:

       Center              X                  Y                   Z               Mass
    ------------   -----------------  -----------------  -----------------  -----------------
         C            0.338533621697    -1.864401946767    -0.953768534831    12.000000000000
         C            1.540533621697    -2.793401946767    -0.687768534831    12.000000000000
         C            0.491533621697    -0.591401946767    -0.183768534831    12.000000000000
         C            1.573533621697     0.230598053233    -0.449768534831    12.000000000000
         C           -0.323466378303    -0.315401946767     0.915231465169    12.000000000000
         C            1.789533621697     1.387598053233     0.337231465169    12.000000000000
         C           -0.117466378303     0.820598053233     1.690231465169    12.000000000000
         C            0.948533621697     1.643598053233     1.412231465169    12.000000000000
         O            1.100533621697     2.768598053233     2.179231465169    15.994914619570
         H            0.280533621697    -1.637401946767    -2.018768534831     1.007825032230
         H           -0.585466378303    -2.366401946767    -0.662768534831     1.007825032230
         H            2.437533621697    -2.325401946767    -1.097768534831     1.007825032230
         H            2.237533621697     0.012598053233    -1.276768534831     1.007825032230
         H           -1.138466378303    -0.984401946767     1.162231465169     1.007825032230
         H            2.614533621697     2.052598053233     0.116231465169     1.007825032230
         H           -0.769466378303     1.044598053233     2.523231465169     1.007825032230
         H            1.832533621697     3.316598053233     1.872231465169     1.007825032230
         H            1.374373621697    -3.767780946767    -1.170446534831     1.007825032230
         H            1.699303621697    -2.952890946767     0.388965465169     1.007825032230
         C           -2.785466378303    -0.235401946767    -2.177768534831    12.000000000000
         C           -4.042466378303    -1.018401946767    -1.788768534831    12.000000000000
         H           -2.162466378303    -0.068401946767    -1.299768534831     1.007825032230
         H           -2.223466378303    -0.800401946767    -2.920768534831     1.007825032230
         H           -3.068466378303     0.728598053233    -2.602768534831     1.007825032230
         H           -4.644466378303    -1.144401946767    -2.685768534831     1.007825032230
         H           -4.601306378303    -0.453127946767    -1.028399534831     1.007825032230
         H           -3.763736378303    -2.016721946767    -1.420442534831     1.007825032230

  Running in c1 symmetry.

  Rotational constants: A =      0.03848  B =      0.01922  C =      0.01456 [cm^-1]
  Rotational constants: A =   1153.73619  B =    576.19179  C =    436.42388 [MHz]
  Nuclear repulsion =  584.571861968786038

  Charge       = 0
  Multiplicity = 1
  Electrons    = 84
  Nalpha       = 42
  Nbeta        = 42

  ==> Algorithm <==

  SCF Algorithm Type is PK.
  DIIS enabled.
  MOM disabled.
  Fractional occupation disabled.
  Guess Type is SAD.
  Energy threshold   = 1.00e-06
  Density threshold  = 1.00e-10
  Integral threshold = 0.00e+00

  ==> Primary Basis <==

  Basis Set: CC-PVDZ
    Blend: CC-PVDZ
    Number of shells: 114
    Number of basis function: 234
    Number of Cartesian functions: 245
    Spherical Harmonics?: true
    Max angular momentum: 2

  ==> Pre-Iterations <==

   -------------------------------------------------------
    Irrep   Nso     Nmo     Nalpha   Nbeta   Ndocc  Nsocc
   -------------------------------------------------------
     A        234     234       0       0       0       0
   -------------------------------------------------------
    Total     234     234      42      42      42       0
   -------------------------------------------------------

  ==> Integral Setup <==

  Using integral reordering PK algorithm.
  Sizing the integral batches needed.
  Building batch lookup table.
   Calculation information:
      Number of atoms:                  27
      Number of AO shells:             114
      Number of primitives:            322
      Number of atomic orbitals:       245
      Number of basis functions:       234

      Integral cutoff                 1.00e-12
      Number of threads:                 1

	Batch   1 pq = [       0,    9405] index = [             0,44231715] size =     44231715
	Batch   2 pq = [    9405,   13301] index = [      44231715,88464951] size =     44233236
	Batch   3 pq = [   13301,   16290] index = [      88464951,132690195] size =     44225244
	Batch   4 pq = [   16290,   18810] index = [     132690195,176917455] size =     44227260
	Batch   5 pq = [   18810,   21030] index = [     176917455,221140965] size =     44223510
	Batch   6 pq = [   21030,   23037] index = [     221140965,265363203] size =     44222238
	Batch   7 pq = [   23037,   24883] index = [     265363203,309594286] size =     44231083
	Batch   8 pq = [   24883,   26601] index = [     309594286,353819901] size =     44225615
	Batch   9 pq = [   26601,   27495] index = [     353819901,378001260] size =     24181359
  Task number: 35
  Buffer size: 11059200
  Buffer per thread: 2
  We computed 19836536 shell quartets total.
  Whereas there are 21487290 unique shell quartets.

  ==> DiskJK: Disk-Based J/K Matrices <==

    J tasked:                  Yes
    K tasked:                  Yes
    wK tasked:                  No
    Memory [MiB]:              375
    Schwarz Cutoff:          1E-12

    OpenMP threads:              1

  Minimum eigenvalue in the overlap matrix is 3.3714276462E-04.
  Using Symmetric Orthogonalization.

  SCF Guess: Superposition of Atomic Densities via on-the-fly atomic UHF.

  ==> Iterations <==

                        Total Energy        Delta E     RMS |[F,P]|

   @RHF iter SAD:  -461.71129561300097   -4.61711e+02   0.00000e+00
   @RHF iter   1:  -462.60712643012232   -8.95831e-01   2.80565e-03 DIIS
   @RHF iter   2:  -462.84625835355246   -2.39132e-01   1.20014e-03 DIIS
   @RHF iter   3:  -462.88601589139409   -3.97575e-02   2.76407e-04 DIIS
   @RHF iter   4:  -462.88930185519723   -3.28596e-03   1.18348e-04 DIIS
   @RHF iter   5:  -462.88974805718942   -4.46202e-04   1.92443e-05 DIIS
   @RHF iter   6:  -462.88976764680825   -1.95896e-05   5.68720e-06 DIIS
   @RHF iter   7:  -462.88976928280033   -1.63599e-06   2.08426e-06 DIIS
   @RHF iter   8:  -462.88976954682926   -2.64029e-07   7.37520e-07 DIIS
   @RHF iter   9:  -462.88976959738227   -5.05530e-08   2.78096e-07 DIIS
   @RHF iter  10:  -462.88976960639434   -9.01207e-09   1.19829e-07 DIIS
   @RHF iter  11:  -462.88976960900817   -2.61383e-09   5.84049e-08 DIIS
   @RHF iter  12:  -462.88976960956313   -5.54962e-10   2.36059e-08 DIIS
   @RHF iter  13:  -462.88976960965101   -8.78799e-11   7.83302e-09 DIIS
   @RHF iter  14:  -462.88976960966318   -1.21645e-11   1.90366e-09 DIIS
   @RHF iter  15:  -462.88976960965800    5.17275e-12   6.49831e-10 DIIS
   @RHF iter  16:  -462.88976960966022   -2.21689e-12   2.37425e-10 DIIS
   @RHF iter  17:  -462.88976960965840    1.81899e-12   1.07378e-10 DIIS
   @RHF iter  18:  -462.88976960966147   -3.06954e-12   5.60455e-11 DIIS
  Energy and wave function converged.

  ==> Post-Iterations <==

    Orbital Energies [Eh]
    ---------------------

    Doubly Occupied:

       1A    -20.580730     2A    -11.296333     3A    -11.240712
       4A    -11.238009     5A    -11.236551     6A    -11.229295
       7A    -11.228065     8A    -11.227979     9A    -11.223292
      10A    -11.216602    11A    -11.210595    12A     -1.394942
      13A     -1.154307    14A     -1.061155    15A     -1.016343
      16A     -1.014359    17A     -0.974341    18A     -0.861013
      19A     -0.848383    20A     -0.831319    21A     -0.788785
      22A     -0.729194    23A     -0.671799    24A     -0.644575
      25A     -0.613531    26A     -0.597836    27A     -0.597262
      28A     -0.595006    29A     -0.584968    30A     -0.581934
      31A     -0.569515    32A     -0.541053    33A     -0.520889
      34A     -0.501929    35A     -0.492113    36A     -0.485409
      37A     -0.482123    38A     -0.480267    39A     -0.472191
      40A     -0.462191    41A     -0.336520    42A     -0.303525

    Virtual:

      43A      0.125990    44A      0.156087    45A      0.170953
      46A      0.181050    47A      0.193525    48A      0.210374
      49A      0.217752    50A      0.231305    51A      0.238665
      52A      0.254683    53A      0.258917    54A      0.267277
      55A      0.271053    56A      0.281909    57A      0.306993
      58A      0.314100    59A      0.321803    60A      0.325529
      61A      0.348763    62A      0.387935    63A      0.393068
      64A      0.417650    65A      0.425513    66A      0.467495
      67A      0.488535    68A      0.496159    69A      0.518598
      70A      0.575653    71A      0.594267    72A      0.605861
      73A      0.606946    74A      0.618107    75A      0.637071
      76A      0.646162    77A      0.660832    78A      0.669823
      79A      0.678378    80A      0.700461    81A      0.712368
      82A      0.724220    83A      0.732611    84A      0.742313
      85A      0.745670    86A      0.755220    87A      0.780495
      88A      0.796556    89A      0.820110    90A      0.831866
      91A      0.844832    92A      0.856905    93A      0.865048
      94A      0.872044    95A      0.880216    96A      0.883811
      97A      0.890895    98A      0.893109    99A      0.896870
     100A      0.902436   101A      0.905096   102A      0.915080
     103A      0.930554   104A      0.933072   105A      0.939552
     106A      0.950484   107A      0.967482   108A      0.976382
     109A      0.988272   110A      0.998965   111A      1.011893
     112A      1.025028   113A      1.051044   114A      1.079509
     115A      1.118987   116A      1.128641   117A      1.149452
     118A      1.153139   119A      1.158245   120A      1.180163
     121A      1.200204   122A      1.223753   123A      1.244476
     124A      1.255056   125A      1.284802   126A      1.286119
     127A      1.292013   128A      1.311942   129A      1.334977
     130A      1.351899   131A      1.373442   132A      1.385804
     133A      1.414452   134A      1.442339   135A      1.485001
     136A      1.489444   137A      1.501706   138A      1.507297
     139A      1.531810   140A      1.570514   141A      1.607472
     142A      1.618288   143A      1.632338   144A      1.670219
     145A      1.680607   146A      1.688315   147A      1.710964
     148A      1.718901   149A      1.746851   150A      1.773449
     151A      1.794830   152A      1.832354   153A      1.849185
     154A      1.860326   155A      1.873754   156A      1.885438
     157A      1.886898   158A      1.893056   159A      1.900194
     160A      1.905817   161A      1.912062   162A      1.917216
     163A      1.931488   164A      1.937754   165A      1.948320
     166A      1.953220   167A      1.959750   168A      1.965175
     169A      1.971684   170A      1.976271   171A      1.988233
     172A      1.998496   173A      2.007977   174A      2.026484
     175A      2.037618   176A      2.055093   177A      2.060466
     178A      2.081043   179A      2.093482   180A      2.105295
     181A      2.118170   182A      2.128867   183A      2.135594
     184A      2.156895   185A      2.179365   186A      2.196400
     187A      2.229348   188A      2.253435   189A      2.269365
     190A      2.287299   191A      2.303728   192A      2.316816
     193A      2.322257   194A      2.351241   195A      2.370122
     196A      2.421712   197A      2.455290   198A      2.459012
     199A      2.475549   200A      2.479512   201A      2.489090
     202A      2.523566   203A      2.531248   204A      2.552555
     205A      2.568777   206A      2.576002   207A      2.583835
     208A      2.637797   209A      2.648616   210A      2.753613
     211A      2.763649   212A      2.771170   213A      2.793767
     214A      2.810212   215A      2.811293   216A      2.844893
     217A      2.851095   218A      2.859358   219A      2.866638
     220A      2.907996   221A      2.949244   222A      2.964352
     223A      2.980578   224A      2.983141   225A      3.027714
     226A      3.092632   227A      3.161864   228A      3.248463
     229A      3.283314   230A      3.345927   231A      3.567762
     232A      3.683266   233A      3.956992   234A      4.199887

    Final Occupation by Irrep:
              A
    DOCC [    42 ]

  @RHF Final Energy:  -462.88976960966147

   => Energetics <=

    Nuclear Repulsion Energy =            584.5718619687860382
    One-Electron Energy =               -1786.6493820675823372
    Two-Electron Energy =                 739.1877504891349417
    Total Energy =                       -462.8897696096614709

Computation Completed

Properties will be evaluated at   0.000000,   0.000000,   0.000000 [a0]

Properties computed using the SCF density matrix

  Nuclear Dipole Moment: [e a0]
     X:    -9.8203      Y:   -10.6385      Z:   -11.3531

  Electronic Dipole Moment: [e a0]
     X:    10.2786      Y:    10.6337      Z:    10.9743

  Dipole Moment: [e a0]
     X:     0.4583      Y:    -0.0049      Z:    -0.3788     Total:     0.5946

  Dipole Moment: [D]
     X:     1.1650      Y:    -0.0123      Z:    -0.9628     Total:     1.5114

*** tstop() called on ds3 at Mon Apr 27 14:34:23 2020
Module time:
	user time   =     144.82 seconds =       2.41 minutes
	system time =      55.74 seconds =       0.93 minutes
	total time  =        462 seconds =       7.70 minutes
Total time:
	user time   =     144.82 seconds =       2.41 minutes
	system time =      55.74 seconds =       0.93 minutes
	total time  =        462 seconds =       7.70 minutes
                                     G D M A

                                 by Anthony Stone

                           version 2.2.06, 22 June 2011

               Distributed Multipoles from Gaussian wavefunctions

Starting at 14:34:23 on 27 Apr 2020

Using SCF density matrix from file ./SSI/SSI-044TYR-109LEU-1-dimer.test.9293.fchk

                         Distributed Multipole Analysis

Standard DMA

Positions and radii in angstrom
Multipole moments in atomic units, ea_0^k for rank k

C          x =  0.338534  y = -1.864402  z = -0.953769 angstrom
           Maximum rank =  0   Radius =  0.650 angstrom
                   Q00  =  -0.036080

C          x =  1.540534  y = -2.793402  z = -0.687769 angstrom
           Maximum rank =  0   Radius =  0.650 angstrom
                   Q00  =  -0.244289

C          x =  0.491534  y = -0.591402  z = -0.183769 angstrom
           Maximum rank =  0   Radius =  0.650 angstrom
                   Q00  =  -0.116359

C          x =  1.573534  y =  0.230598  z = -0.449769 angstrom
           Maximum rank =  0   Radius =  0.650 angstrom
                   Q00  =  -0.084793

C          x = -0.323466  y = -0.315402  z =  0.915231 angstrom
           Maximum rank =  0   Radius =  0.650 angstrom
                   Q00  =   0.016205

C          x =  1.789534  y =  1.387598  z =  0.337231 angstrom
           Maximum rank =  0   Radius =  0.650 angstrom
                   Q00  =  -0.194280

C          x = -0.117466  y =  0.820598  z =  1.690231 angstrom
           Maximum rank =  0   Radius =  0.650 angstrom
                   Q00  =  -0.107140

C          x =  0.948534  y =  1.643598  z =  1.412231 angstrom
           Maximum rank =  0   Radius =  0.650 angstrom
                   Q00  =   0.362949

O          x =  1.100534  y =  2.768598  z =  2.179231 angstrom
           Maximum rank =  0   Radius =  0.650 angstrom
                   Q00  =  -0.676518

H          x =  0.280534  y = -1.637402  z = -2.018769 angstrom
           Maximum rank =  0   Radius =  0.325 angstrom
                   Q00  =   0.071828

H          x = -0.585466  y = -2.366402  z = -0.662769 angstrom
           Maximum rank =  0   Radius =  0.325 angstrom
                   Q00  =   0.065825

H          x =  2.437534  y = -2.325402  z = -1.097769 angstrom
           Maximum rank =  0   Radius =  0.325 angstrom
                   Q00  =   0.078925

H          x =  2.237534  y =  0.012598  z = -1.276769 angstrom
           Maximum rank =  0   Radius =  0.325 angstrom
                   Q00  =   0.071229

H          x = -1.138466  y = -0.984402  z =  1.162231 angstrom
           Maximum rank =  0   Radius =  0.325 angstrom
                   Q00  =   0.064970

H          x =  2.614534  y =  2.052598  z =  0.116231 angstrom
           Maximum rank =  0   Radius =  0.325 angstrom
                   Q00  =   0.074864

H          x = -0.769466  y =  1.044598  z =  2.523231 angstrom
           Maximum rank =  0   Radius =  0.325 angstrom
                   Q00  =   0.082009

H          x =  1.832534  y =  3.316598  z =  1.872231 angstrom
           Maximum rank =  0   Radius =  0.325 angstrom
                   Q00  =   0.404264

H          x =  1.374374  y = -3.767781  z = -1.170447 angstrom
           Maximum rank =  0   Radius =  0.325 angstrom
                   Q00  =   0.081710

H          x =  1.699304  y = -2.952891  z =  0.388965 angstrom
           Maximum rank =  0   Radius =  0.325 angstrom
                   Q00  =   0.086624

C          x = -2.785466  y = -0.235402  z = -2.177769 angstrom
           Maximum rank =  0   Radius =  0.650 angstrom
                   Q00  =  -0.231059

C          x = -4.042466  y = -1.018402  z = -1.788769 angstrom
           Maximum rank =  0   Radius =  0.650 angstrom
                   Q00  =  -0.247330

H          x = -2.162466  y = -0.068402  z = -1.299769 angstrom
           Maximum rank =  0   Radius =  0.325 angstrom
                   Q00  =   0.093079

H          x = -2.223466  y = -0.800402  z = -2.920769 angstrom
           Maximum rank =  0   Radius =  0.325 angstrom
                   Q00  =   0.073885

H          x = -3.068466  y =  0.728598  z = -2.602769 angstrom
           Maximum rank =  0   Radius =  0.325 angstrom
                   Q00  =   0.078344

H          x = -4.644466  y = -1.144402  z = -2.685769 angstrom
           Maximum rank =  0   Radius =  0.325 angstrom
                   Q00  =   0.077656

H          x = -4.601306  y = -0.453128  z = -1.028400 angstrom
           Maximum rank =  0   Radius =  0.325 angstrom
                   Q00  =   0.079153

H          x = -3.763736  y = -2.016722  z = -1.420443 angstrom
           Maximum rank =  0   Radius =  0.325 angstrom
                   Q00  =   0.074331

Total multipoles referred to origin at
           x =   0.000000,  y =    0.000000,  z =    0.000000 angstrom
                   Q00  =  -0.000000

Finished at 14:34:23 on 27 Apr 2020

  DMA results are available in the Python driver through the
	  variable('DMA DISTRIBUTED MULTIPOLES')
  and
	  variable('DMA TOTAL MULTIPOLES')
  commands.

    Psi4 stopped on: Monday, 27 April 2020 02:34PM
    Psi4 wall time for execution: 0:07:41.60

*** Psi4 exiting successfully. Buy a developer a beer!
