                               Psi4 1.3.2 release

  ==> Input File <==

--------------------------------------------------------------------------
import numpy as np
set {scf_type pk
basis cc-pvdz
d_convergence 10
gdma_switch   0
gdma_limit    0
gdma_origin   [ 0.0,  0.0,  0.0 ]
}
molecule test {
    units Angstrom
    1 1
    --
    1 1
    C                0.889821407343301    -2.064894402777888    -0.626411707367860
    C                0.336821407343301    -0.758894402777888    -1.161411707367860
    O                0.236821407343301     0.230105597222112    -0.433411707367860
    N                0.035821407343301    -0.750894402777888    -2.441411707367860
    H                1.932821407343301    -2.148894402777888    -0.931411707367860
    H                0.334821407343301    -2.893894402777888    -1.069411707367860
    H               -0.309178592656699     0.106105597222112    -2.849411707367860
    H                0.154821407343301    -1.580894402777888    -3.005411707367860
    H                0.817292407343301    -2.125814402777888     0.469502292632140
    C               -0.698178592656699     1.081105597222112     2.829588292632140
    N               -0.676178592656699     1.949105597222112     1.612588292632140
    H                0.033821407343301     2.672105597222111     1.719588292632140
    H               -1.567178592656699     2.410105597222111     1.462588292632140
    H               -0.445178592656699     1.412105597222112     0.775588292632140
    H               -0.886178592656699     1.692105597222112     3.719588292632140
    H                0.270821407343301     0.584105597222112     2.953588292632140
    H               -1.490198592656699     0.322385597222112     2.745608292632140

}
e, wfn = energy('scf', return_wfn=True)
gdma(wfn)
dmavals = variable('DMA DISTRIBUTED MULTIPOLES')
charges = np.array(dmavals)
print(charges)
np.save('SSI-044GLN-061LYS-2-dimer.npy', np.array(charges))--------------------------------------------------------------------------

*** tstart() called on ds3
*** at Tue Apr 28 08:54:03 2020

   => Loading Basis Set <=

    Name: CC-PVDZ
    Role: ORBITAL
    Keyword: BASIS
    atoms 1-2, 10    entry C          line   138 file /theoryfs2/ds/metcalf/miniconda2/envs/tf2gpu/share/psi4/basis/cc-pvdz.gbs
    atoms 3          entry O          line   198 file /theoryfs2/ds/metcalf/miniconda2/envs/tf2gpu/share/psi4/basis/cc-pvdz.gbs
    atoms 4, 11      entry N          line   168 file /theoryfs2/ds/metcalf/miniconda2/envs/tf2gpu/share/psi4/basis/cc-pvdz.gbs
    atoms 5-9, 12-17 entry H          line    22 file /theoryfs2/ds/metcalf/miniconda2/envs/tf2gpu/share/psi4/basis/cc-pvdz.gbs

         ---------------------------------------------------------
                                   SCF
               by Justin Turney, Rob Parrish, Andy Simmonett
                          and Daniel G. A. Smith
                              RHF Reference
                        1 Threads,    500 MiB Core
         ---------------------------------------------------------

  ==> Geometry <==

    Molecular point group: c1
    Full point group: C1

    Geometry (in Angstrom), charge = 1, multiplicity = 1:

       Center              X                  Y                   Z               Mass
    ------------   -----------------  -----------------  -----------------  -----------------
         C            0.889821407343    -2.064894402778    -0.626411707368    12.000000000000
         C            0.336821407343    -0.758894402778    -1.161411707368    12.000000000000
         O            0.236821407343     0.230105597222    -0.433411707368    15.994914619570
         N            0.035821407343    -0.750894402778    -2.441411707368    14.003074004430
         H            1.932821407343    -2.148894402778    -0.931411707368     1.007825032230
         H            0.334821407343    -2.893894402778    -1.069411707368     1.007825032230
         H           -0.309178592657     0.106105597222    -2.849411707368     1.007825032230
         H            0.154821407343    -1.580894402778    -3.005411707368     1.007825032230
         H            0.817292407343    -2.125814402778     0.469502292632     1.007825032230
         C           -0.698178592657     1.081105597222     2.829588292632    12.000000000000
         N           -0.676178592657     1.949105597222     1.612588292632    14.003074004430
         H            0.033821407343     2.672105597222     1.719588292632     1.007825032230
         H           -1.567178592657     2.410105597222     1.462588292632     1.007825032230
         H           -0.445178592657     1.412105597222     0.775588292632     1.007825032230
         H           -0.886178592657     1.692105597222     3.719588292632     1.007825032230
         H            0.270821407343     0.584105597222     2.953588292632     1.007825032230
         H           -1.490198592657     0.322385597222     2.745608292632     1.007825032230

  Running in c1 symmetry.

  Rotational constants: A =      0.21468  B =      0.03899  C =      0.03411 [cm^-1]
  Rotational constants: A =   6435.83547  B =   1168.81507  C =   1022.58664 [MHz]
  Nuclear repulsion =  245.800245347963852

  Charge       = 1
  Multiplicity = 1
  Electrons    = 50
  Nalpha       = 25
  Nbeta        = 25

  ==> Algorithm <==

  SCF Algorithm Type is PK.
  DIIS enabled.
  MOM disabled.
  Fractional occupation disabled.
  Guess Type is SAD.
  Energy threshold   = 1.00e-06
  Density threshold  = 1.00e-10
  Integral threshold = 0.00e+00

  ==> Primary Basis <==

  Basis Set: CC-PVDZ
    Blend: CC-PVDZ
    Number of shells: 69
    Number of basis function: 139
    Number of Cartesian functions: 145
    Spherical Harmonics?: true
    Max angular momentum: 2

  ==> Pre-Iterations <==

   -------------------------------------------------------
    Irrep   Nso     Nmo     Nalpha   Nbeta   Ndocc  Nsocc
   -------------------------------------------------------
     A        139     139       0       0       0       0
   -------------------------------------------------------
    Total     139     139      25      25      25       0
   -------------------------------------------------------

  ==> Integral Setup <==

  Using integral reordering PK algorithm.
  Sizing the integral batches needed.
  Building batch lookup table.
   Calculation information:
      Number of atoms:                  17
      Number of AO shells:              69
      Number of primitives:            187
      Number of atomic orbitals:       145
      Number of basis functions:       139

      Integral cutoff                 1.00e-12
      Number of threads:                 1

	Batch   1 pq = [       0,    9730] index = [             0,47341315] size =     47341315
  Task number: 5
  Buffer size: 11059200
  Buffer per thread: 2
  We computed 2357682 shell quartets total.
  Whereas there are 2917320 unique shell quartets.

  ==> DiskJK: Disk-Based J/K Matrices <==

    J tasked:                  Yes
    K tasked:                  Yes
    wK tasked:                  No
    Memory [MiB]:              375
    Schwarz Cutoff:          1E-12

    OpenMP threads:              1

  Minimum eigenvalue in the overlap matrix is 4.6443106131E-03.
  Using Symmetric Orthogonalization.

  SCF Guess: Superposition of Atomic Densities via on-the-fly atomic UHF.

  ==> Iterations <==

                        Total Energy        Delta E     RMS |[F,P]|

   @RHF iter SAD:  -302.79845373181769   -3.02798e+02   0.00000e+00
   @RHF iter   1:  -303.44585868669702   -6.47405e-01   4.11192e-03 DIIS
   @RHF iter   2:  -303.59174987806455   -1.45891e-01   2.02818e-03 DIIS
   @RHF iter   3:  -303.62202775829394   -3.02779e-02   5.26608e-04 DIIS
   @RHF iter   4:  -303.62504418185227   -3.01642e-03   1.74680e-04 DIIS
   @RHF iter   5:  -303.62539559512646   -3.51413e-04   3.10329e-05 DIIS
   @RHF iter   6:  -303.62541521508081   -1.96200e-05   1.20075e-05 DIIS
   @RHF iter   7:  -303.62541730109268   -2.08601e-06   3.62660e-06 DIIS
   @RHF iter   8:  -303.62541769439827   -3.93306e-07   1.15141e-06 DIIS
   @RHF iter   9:  -303.62541773490130   -4.05030e-08   3.16151e-07 DIIS
   @RHF iter  10:  -303.62541773794175   -3.04044e-09   9.13222e-08 DIIS
   @RHF iter  11:  -303.62541773813388   -1.92131e-10   2.72391e-08 DIIS
   @RHF iter  12:  -303.62541773814729   -1.34150e-11   7.35283e-09 DIIS
   @RHF iter  13:  -303.62541773814877   -1.47793e-12   2.03052e-09 DIIS
   @RHF iter  14:  -303.62541773814786    9.09495e-13   8.10938e-10 DIIS
   @RHF iter  15:  -303.62541773814849   -6.25278e-13   2.50381e-10 DIIS
   @RHF iter  16:  -303.62541773814877   -2.84217e-13   1.13299e-10 DIIS
   @RHF iter  17:  -303.62541773814752    1.25056e-12   4.94598e-11 DIIS
  Energy and wave function converged.

  ==> Post-Iterations <==

    Orbital Energies [Eh]
    ---------------------

    Doubly Occupied:

       1A    -20.655223     2A    -15.862969     3A    -15.719114
       4A    -11.490935     5A    -11.462284     6A    -11.359312
       7A     -1.517029     8A     -1.480681     9A     -1.354841
      10A     -1.133255    11A     -1.121693    12A     -0.950614
      13A     -0.940300    14A     -0.923293    15A     -0.856029
      16A     -0.827941    17A     -0.798245    18A     -0.742419
      19A     -0.737669    20A     -0.735199    21A     -0.710149
      22A     -0.677173    23A     -0.651990    24A     -0.560354
      25A     -0.549779

    Virtual:

      26A     -0.015349    27A      0.041772    28A      0.048644
      29A      0.060332    30A      0.068836    31A      0.093777
      32A      0.104528    33A      0.107057    34A      0.126136
      35A      0.152761    36A      0.158443    37A      0.169726
      38A      0.197253    39A      0.262649    40A      0.360755
      41A      0.398462    42A      0.404327    43A      0.435328
      44A      0.451093    45A      0.508113    46A      0.523833
      47A      0.536615    48A      0.554026    49A      0.574211
      50A      0.603014    51A      0.615693    52A      0.622422
      53A      0.653283    54A      0.682507    55A      0.683543
      56A      0.714199    57A      0.723763    58A      0.750330
      59A      0.773098    60A      0.777910    61A      0.793695
      62A      0.805063    63A      0.842449    64A      0.859979
      65A      0.886467    66A      0.888915    67A      0.935052
      68A      0.944340    69A      0.961663    70A      1.010676
      71A      1.057473    72A      1.173852    73A      1.197119
      74A      1.209582    75A      1.245669    76A      1.270714
      77A      1.284108    78A      1.298174    79A      1.334349
      80A      1.346191    81A      1.407664    82A      1.486562
      83A      1.518563    84A      1.528819    85A      1.542380
      86A      1.593481    87A      1.659281    88A      1.684633
      89A      1.703270    90A      1.707207    91A      1.729231
      92A      1.731091    93A      1.756797    94A      1.764782
      95A      1.772017    96A      1.779948    97A      1.791423
      98A      1.843907    99A      1.851958   100A      1.914278
     101A      1.953833   102A      1.958636   103A      1.960368
     104A      1.977245   105A      1.985302   106A      2.042991
     107A      2.059174   108A      2.126761   109A      2.144492
     110A      2.172793   111A      2.269899   112A      2.278809
     113A      2.297817   114A      2.330517   115A      2.368665
     116A      2.420318   117A      2.450096   118A      2.471001
     119A      2.495605   120A      2.505815   121A      2.517787
     122A      2.553687   123A      2.596130   124A      2.630126
     125A      2.675601   126A      2.738329   127A      2.747977
     128A      2.761805   129A      2.794911   130A      2.865642
     131A      2.938948   132A      2.982879   133A      3.103888
     134A      3.118973   135A      3.159128   136A      3.372043
     137A      3.413878   138A      3.716093   139A      3.815185

    Final Occupation by Irrep:
              A
    DOCC [    25 ]

  @RHF Final Energy:  -303.62541773814752

   => Energetics <=

    Nuclear Repulsion Energy =            245.8002453479638518
    One-Electron Energy =                -891.2143464971281901
    Two-Electron Energy =                 341.7886834110168479
    Total Energy =                       -303.6254177381475188

Computation Completed

Properties will be evaluated at   0.000000,   0.000000,   0.000000 [a0]

Properties computed using the SCF density matrix

  Nuclear Dipole Moment: [e a0]
     X:    -1.0784      Y:     0.4190      Z:     5.6161

  Electronic Dipole Moment: [e a0]
     X:     0.0883      Y:     1.2200      Z:    -4.1823

  Dipole Moment: [e a0]
     X:    -0.9901      Y:     1.6390      Z:     1.4338     Total:     2.3921

  Dipole Moment: [D]
     X:    -2.5165      Y:     4.1659      Z:     3.6444     Total:     6.0802

*** tstop() called on ds3 at Tue Apr 28 08:54:27 2020
Module time:
	user time   =      16.51 seconds =       0.28 minutes
	system time =       9.05 seconds =       0.15 minutes
	total time  =         24 seconds =       0.40 minutes
Total time:
	user time   =      16.51 seconds =       0.28 minutes
	system time =       9.05 seconds =       0.15 minutes
	total time  =         24 seconds =       0.40 minutes
                                     G D M A

                                 by Anthony Stone

                           version 2.2.06, 22 June 2011

               Distributed Multipoles from Gaussian wavefunctions

Starting at 8:54:27 on 28 Apr 2020

Using SCF density matrix from file ./SSI/SSI-044GLN-061LYS-2-dimer.test.26985.fchk

                         Distributed Multipole Analysis

Standard DMA

Positions and radii in angstrom
Multipole moments in atomic units, ea_0^k for rank k

C          x =  0.889821  y = -2.064894  z = -0.626412 angstrom
           Maximum rank =  0   Radius =  0.650 angstrom
                   Q00  =  -0.262013

C          x =  0.336821  y = -0.758894  z = -1.161412 angstrom
           Maximum rank =  0   Radius =  0.650 angstrom
                   Q00  =   0.833061

O          x =  0.236821  y =  0.230106  z = -0.433412 angstrom
           Maximum rank =  0   Radius =  0.650 angstrom
                   Q00  =  -0.880715

N          x =  0.035821  y = -0.750894  z = -2.441412 angstrom
           Maximum rank =  0   Radius =  0.650 angstrom
                   Q00  =  -0.534045

H          x =  1.932821  y = -2.148894  z = -0.931412 angstrom
           Maximum rank =  0   Radius =  0.325 angstrom
                   Q00  =   0.144825

H          x =  0.334821  y = -2.893894  z = -1.069412 angstrom
           Maximum rank =  0   Radius =  0.325 angstrom
                   Q00  =   0.110167

H          x = -0.309179  y =  0.106106  z = -2.849412 angstrom
           Maximum rank =  0   Radius =  0.325 angstrom
                   Q00  =   0.233814

H          x =  0.154821  y = -1.580894  z = -3.005412 angstrom
           Maximum rank =  0   Radius =  0.325 angstrom
                   Q00  =   0.241600

H          x =  0.817292  y = -2.125814  z =  0.469502 angstrom
           Maximum rank =  0   Radius =  0.325 angstrom
                   Q00  =   0.125068

C          x = -0.698179  y =  1.081106  z =  2.829588 angstrom
           Maximum rank =  0   Radius =  0.650 angstrom
                   Q00  =  -0.139979

N          x = -0.676179  y =  1.949106  z =  1.612588 angstrom
           Maximum rank =  0   Radius =  0.650 angstrom
                   Q00  =  -0.159394

H          x =  0.033821  y =  2.672106  z =  1.719588 angstrom
           Maximum rank =  0   Radius =  0.325 angstrom
                   Q00  =   0.246184

H          x = -1.567179  y =  2.410106  z =  1.462588 angstrom
           Maximum rank =  0   Radius =  0.325 angstrom
                   Q00  =   0.244182

H          x = -0.445179  y =  1.412106  z =  0.775588 angstrom
           Maximum rank =  0   Radius =  0.325 angstrom
                   Q00  =   0.331210

H          x = -0.886179  y =  1.692106  z =  3.719588 angstrom
           Maximum rank =  0   Radius =  0.325 angstrom
                   Q00  =   0.148434

H          x =  0.270821  y =  0.584106  z =  2.953588 angstrom
           Maximum rank =  0   Radius =  0.325 angstrom
                   Q00  =   0.160464

H          x = -1.490199  y =  0.322386  z =  2.745608 angstrom
           Maximum rank =  0   Radius =  0.325 angstrom
                   Q00  =   0.157138

Total multipoles referred to origin at
           x =   0.000000,  y =    0.000000,  z =    0.000000 angstrom
                   Q00  =   1.000000

Finished at 8:54:27 on 28 Apr 2020

  DMA results are available in the Python driver through the
	  variable('DMA DISTRIBUTED MULTIPOLES')
  and
	  variable('DMA TOTAL MULTIPOLES')
  commands.

    Psi4 stopped on: Tuesday, 28 April 2020 08:54AM
    Psi4 wall time for execution: 0:00:24.66

*** Psi4 exiting successfully. Buy a developer a beer!
