                               Psi4 1.3.2 release

  ==> Input File <==

--------------------------------------------------------------------------
import numpy as np
set {scf_type pk
basis cc-pvdz
d_convergence 10
gdma_switch   0
gdma_limit    0
gdma_origin   [ 0.0,  0.0,  0.0 ]
}
molecule test {
    units Angstrom
    0 1
    --
    0 1
    C                1.034722771483741    -0.644670853110265    -0.065719518196575
    C                2.550722771483741    -0.603670853110265     0.277280481803425
    C                0.799722771483741    -1.287670853110265    -1.431719518196575
    C                0.227722771483741    -1.374670853110265     1.017280481803425
    H                0.669722771483741     0.380329146889735    -0.117719518196575
    H                2.644722771483742    -0.554670853110265     1.359280481803425
    H                1.012722771483741    -2.351670853110265    -1.416719518196574
    H               -0.239277228516259    -1.137670853110265    -1.729719518196575
    H                1.438722771483741    -0.840670853110265    -2.184719518196575
    H               -0.801277228516259    -1.449670853110265     0.668280481803425
    H                0.602722771483741    -2.369670853110266     1.186280481803426
    H                3.016412771483741     0.291089146889735    -0.161499518196575
    H                3.016742771483741    -1.563000853110265     0.008010481803425
    H                0.216932771483741    -0.844580853110265     1.981070481803425
    C               -1.535277228516259     2.153329146889734     0.318280481803425
    C               -2.928277228516259     1.671329146889735    -0.127719518196575
    H               -1.182277228516259     1.547329146889735     1.145280481803426
    H               -0.835277228516259     2.080329146889735    -0.514719518196575
    H               -1.588277228516259     3.192329146889735     0.645280481803425
    H               -2.838277228516259     0.648329146889735    -0.478719518196575
    H               -3.624807228516258     1.709469146889735     0.722800481803425
    H               -3.287357228516258     2.286689146889735    -0.965809518196575

}
e, wfn = energy('scf', return_wfn=True)
gdma(wfn)
dmavals = variable('DMA DISTRIBUTED MULTIPOLES')
charges = np.array(dmavals)
print(charges)
np.save('SSI-110ILE-151VAL-1-dimer.npy', np.array(charges))--------------------------------------------------------------------------

*** tstart() called on ds3
*** at Mon Apr 27 21:03:12 2020

   => Loading Basis Set <=

    Name: CC-PVDZ
    Role: ORBITAL
    Keyword: BASIS
    atoms 1-4, 15-16  entry C          line   138 file /theoryfs2/ds/metcalf/miniconda2/envs/tf2gpu/share/psi4/basis/cc-pvdz.gbs
    atoms 5-14, 17-22 entry H          line    22 file /theoryfs2/ds/metcalf/miniconda2/envs/tf2gpu/share/psi4/basis/cc-pvdz.gbs

         ---------------------------------------------------------
                                   SCF
               by Justin Turney, Rob Parrish, Andy Simmonett
                          and Daniel G. A. Smith
                              RHF Reference
                        1 Threads,    500 MiB Core
         ---------------------------------------------------------

  ==> Geometry <==

    Molecular point group: c1
    Full point group: C1

    Geometry (in Angstrom), charge = 0, multiplicity = 1:

       Center              X                  Y                   Z               Mass
    ------------   -----------------  -----------------  -----------------  -----------------
         C            1.034722771484    -0.644670853110    -0.065719518197    12.000000000000
         C            2.550722771484    -0.603670853110     0.277280481803    12.000000000000
         C            0.799722771484    -1.287670853110    -1.431719518197    12.000000000000
         C            0.227722771484    -1.374670853110     1.017280481803    12.000000000000
         H            0.669722771484     0.380329146890    -0.117719518197     1.007825032230
         H            2.644722771484    -0.554670853110     1.359280481803     1.007825032230
         H            1.012722771484    -2.351670853110    -1.416719518197     1.007825032230
         H           -0.239277228516    -1.137670853110    -1.729719518197     1.007825032230
         H            1.438722771484    -0.840670853110    -2.184719518197     1.007825032230
         H           -0.801277228516    -1.449670853110     0.668280481803     1.007825032230
         H            0.602722771484    -2.369670853110     1.186280481803     1.007825032230
         H            3.016412771484     0.291089146890    -0.161499518197     1.007825032230
         H            3.016742771484    -1.563000853110     0.008010481803     1.007825032230
         H            0.216932771484    -0.844580853110     1.981070481803     1.007825032230
         C           -1.535277228516     2.153329146890     0.318280481803    12.000000000000
         C           -2.928277228516     1.671329146890    -0.127719518197    12.000000000000
         H           -1.182277228516     1.547329146890     1.145280481803     1.007825032230
         H           -0.835277228516     2.080329146890    -0.514719518197     1.007825032230
         H           -1.588277228516     3.192329146890     0.645280481803     1.007825032230
         H           -2.838277228516     0.648329146890    -0.478719518197     1.007825032230
         H           -3.624807228516     1.709469146890     0.722800481803     1.007825032230
         H           -3.287357228516     2.286689146890    -0.965809518197     1.007825032230

  Running in c1 symmetry.

  Rotational constants: A =      0.14166  B =      0.03527  C =      0.03434 [cm^-1]
  Rotational constants: A =   4246.83520  B =   1057.48156  C =   1029.33891 [MHz]
  Nuclear repulsion =  246.643361416697218

  Charge       = 0
  Multiplicity = 1
  Electrons    = 52
  Nalpha       = 26
  Nbeta        = 26

  ==> Algorithm <==

  SCF Algorithm Type is PK.
  DIIS enabled.
  MOM disabled.
  Fractional occupation disabled.
  Guess Type is SAD.
  Energy threshold   = 1.00e-06
  Density threshold  = 1.00e-10
  Integral threshold = 0.00e+00

  ==> Primary Basis <==

  Basis Set: CC-PVDZ
    Blend: CC-PVDZ
    Number of shells: 84
    Number of basis function: 164
    Number of Cartesian functions: 170
    Spherical Harmonics?: true
    Max angular momentum: 2

  ==> Pre-Iterations <==

   -------------------------------------------------------
    Irrep   Nso     Nmo     Nalpha   Nbeta   Ndocc  Nsocc
   -------------------------------------------------------
     A        164     164       0       0       0       0
   -------------------------------------------------------
    Total     164     164      26      26      26       0
   -------------------------------------------------------

  ==> Integral Setup <==

  Using integral reordering PK algorithm.
  Sizing the integral batches needed.
  Building batch lookup table.
   Calculation information:
      Number of atoms:                  22
      Number of AO shells:              84
      Number of primitives:            212
      Number of atomic orbitals:       170
      Number of basis functions:       164

      Integral cutoff                 1.00e-12
      Number of threads:                 1

	Batch   1 pq = [       0,    9405] index = [             0,44231715] size =     44231715
	Batch   2 pq = [    9405,   13530] index = [      44231715,91537215] size =     47305500
  Task number: 9
  Buffer size: 11059200
  Buffer per thread: 2
  We computed 5886980 shell quartets total.
  Whereas there are 6374235 unique shell quartets.

  ==> DiskJK: Disk-Based J/K Matrices <==

    J tasked:                  Yes
    K tasked:                  Yes
    wK tasked:                  No
    Memory [MiB]:              375
    Schwarz Cutoff:          1E-12

    OpenMP threads:              1

  Minimum eigenvalue in the overlap matrix is 4.5143392558E-03.
  Using Symmetric Orthogonalization.

  SCF Guess: Superposition of Atomic Densities via on-the-fly atomic UHF.

  ==> Iterations <==

                        Total Energy        Delta E     RMS |[F,P]|

   @RHF iter SAD:  -235.36299782632511   -2.35363e+02   0.00000e+00
   @RHF iter   1:  -236.31245884518734   -9.49461e-01   3.50698e-03 DIIS
   @RHF iter   2:  -236.50117784733325   -1.88719e-01   1.50656e-03 DIIS
   @RHF iter   3:  -236.53402207550013   -3.28442e-02   3.10841e-04 DIIS
   @RHF iter   4:  -236.53662032932152   -2.59825e-03   6.91392e-05 DIIS
   @RHF iter   5:  -236.53670531755856   -8.49882e-05   1.58496e-05 DIIS
   @RHF iter   6:  -236.53671095512948   -5.63757e-06   2.57597e-06 DIIS
   @RHF iter   7:  -236.53671112780683   -1.72677e-07   6.42497e-07 DIIS
   @RHF iter   8:  -236.53671113967454   -1.18677e-08   1.61768e-07 DIIS
   @RHF iter   9:  -236.53671114046392   -7.89385e-10   4.61164e-08 DIIS
   @RHF iter  10:  -236.53671114053714   -7.32143e-11   1.05420e-08 DIIS
   @RHF iter  11:  -236.53671114054231   -5.17275e-12   2.14393e-09 DIIS
   @RHF iter  12:  -236.53671114054220    1.13687e-13   4.31930e-10 DIIS
   @RHF iter  13:  -236.53671114054231   -1.13687e-13   8.50845e-11 DIIS
  Energy and wave function converged.

  ==> Post-Iterations <==

    Orbital Energies [Eh]
    ---------------------

    Doubly Occupied:

       1A    -11.223795     2A    -11.220722     3A    -11.217799
       4A    -11.215793     5A    -11.213510     6A    -11.212061
       7A     -1.076890     8A     -1.017362     9A     -0.926852
      10A     -0.924713    11A     -0.838908    12A     -0.765018
      13A     -0.628482    14A     -0.600700    15A     -0.597020
      16A     -0.588565    17A     -0.581106    18A     -0.542353
      19A     -0.536961    20A     -0.504846    21A     -0.497421
      22A     -0.491791    23A     -0.487593    24A     -0.457204
      25A     -0.456357    26A     -0.449832

    Virtual:

      27A      0.158799    28A      0.197378    29A      0.213591
      30A      0.216676    31A      0.230806    32A      0.243348
      33A      0.253644    34A      0.263867    35A      0.265181
      36A      0.270203    37A      0.286486    38A      0.300183
      39A      0.314420    40A      0.319500    41A      0.324014
      42A      0.341433    43A      0.375448    44A      0.395091
      45A      0.404971    46A      0.422472    47A      0.573317
      48A      0.585578    49A      0.590667    50A      0.601198
      51A      0.611697    52A      0.616930    53A      0.634567
      54A      0.644346    55A      0.687719    56A      0.741392
      57A      0.768163    58A      0.775200    59A      0.810865
      60A      0.828713    61A      0.841337    62A      0.855296
      63A      0.875744    64A      0.878482    65A      0.888559
      66A      0.892145    67A      0.893802    68A      0.900589
      69A      0.907333    70A      0.910544    71A      0.913684
      72A      0.925774    73A      0.930877    74A      0.951039
      75A      0.954538    76A      0.971655    77A      0.983258
      78A      0.993822    79A      1.009359    80A      1.016287
      81A      1.119816    82A      1.121913    83A      1.124782
      84A      1.159264    85A      1.241373    86A      1.248350
      87A      1.374130    88A      1.389314    89A      1.396222
      90A      1.470848    91A      1.485435    92A      1.514589
      93A      1.565933    94A      1.568808    95A      1.642266
      96A      1.670316    97A      1.672387    98A      1.682665
      99A      1.694657   100A      1.699195   101A      1.709602
     102A      1.722716   103A      1.751568   104A      1.829648
     105A      1.839996   106A      1.854479   107A      1.883638
     108A      1.885915   109A      1.902760   110A      1.922758
     111A      1.930871   112A      1.938359   113A      1.942493
     114A      1.948362   115A      1.958289   116A      1.960897
     117A      1.963182   118A      1.980725   119A      1.992751
     120A      1.999170   121A      2.016586   122A      2.026408
     123A      2.054536   124A      2.066563   125A      2.103466
     126A      2.113676   127A      2.118634   128A      2.142200
     129A      2.164761   130A      2.197106   131A      2.254025
     132A      2.287265   133A      2.306049   134A      2.309316
     135A      2.327397   136A      2.348737   137A      2.355108
     138A      2.383519   139A      2.462789   140A      2.466729
     141A      2.471820   142A      2.558743   143A      2.566449
     144A      2.572938   145A      2.602547   146A      2.633468
     147A      2.701350   148A      2.729659   149A      2.765180
     150A      2.772375   151A      2.782116   152A      2.796041
     153A      2.804645   154A      2.809825   155A      2.840668
     156A      2.850265   157A      2.851958   158A      2.857383
     159A      2.864585   160A      2.952415   161A      2.977811
     162A      3.006409   163A      3.017454   164A      3.121608

    Final Occupation by Irrep:
              A
    DOCC [    26 ]

  @RHF Final Energy:  -236.53671114054231

   => Energetics <=

    Nuclear Repulsion Energy =            246.6433614166972177
    One-Electron Energy =                -805.8128407827781530
    Two-Electron Energy =                 322.6327682255386549
    Total Energy =                       -236.5367111405423088

Computation Completed

Properties will be evaluated at   0.000000,   0.000000,   0.000000 [a0]

Properties computed using the SCF density matrix

  Nuclear Dipole Moment: [e a0]
     X:    -1.6669      Y:     0.9602      Z:     0.1375

  Electronic Dipole Moment: [e a0]
     X:     1.6412      Y:    -0.9135      Z:    -0.1264

  Dipole Moment: [e a0]
     X:    -0.0257      Y:     0.0467      Z:     0.0111     Total:     0.0544

  Dipole Moment: [D]
     X:    -0.0653      Y:     0.1187      Z:     0.0282     Total:     0.1384

*** tstop() called on ds3 at Mon Apr 27 21:04:21 2020
Module time:
	user time   =      29.84 seconds =       0.50 minutes
	system time =      10.15 seconds =       0.17 minutes
	total time  =         69 seconds =       1.15 minutes
Total time:
	user time   =      29.84 seconds =       0.50 minutes
	system time =      10.15 seconds =       0.17 minutes
	total time  =         69 seconds =       1.15 minutes
                                     G D M A

                                 by Anthony Stone

                           version 2.2.06, 22 June 2011

               Distributed Multipoles from Gaussian wavefunctions

Starting at 21:4:21 on 27 Apr 2020

Using SCF density matrix from file ./SSI/SSI-110ILE-151VAL-1-dimer.test.22270.fchk

                         Distributed Multipole Analysis

Standard DMA

Positions and radii in angstrom
Multipole moments in atomic units, ea_0^k for rank k

C          x =  1.034723  y = -0.644671  z = -0.065720 angstrom
           Maximum rank =  0   Radius =  0.650 angstrom
                   Q00  =   0.011197

C          x =  2.550723  y = -0.603671  z =  0.277280 angstrom
           Maximum rank =  0   Radius =  0.650 angstrom
                   Q00  =  -0.225704

C          x =  0.799723  y = -1.287671  z = -1.431720 angstrom
           Maximum rank =  0   Radius =  0.650 angstrom
                   Q00  =  -0.245940

C          x =  0.227723  y = -1.374671  z =  1.017280 angstrom
           Maximum rank =  0   Radius =  0.650 angstrom
                   Q00  =  -0.254982

H          x =  0.669723  y =  0.380329  z = -0.117720 angstrom
           Maximum rank =  0   Radius =  0.325 angstrom
                   Q00  =   0.024068

H          x =  2.644723  y = -0.554671  z =  1.359280 angstrom
           Maximum rank =  0   Radius =  0.325 angstrom
                   Q00  =   0.075970

H          x =  1.012723  y = -2.351671  z = -1.416720 angstrom
           Maximum rank =  0   Radius =  0.325 angstrom
                   Q00  =   0.078246

H          x = -0.239277  y = -1.137671  z = -1.729720 angstrom
           Maximum rank =  0   Radius =  0.325 angstrom
                   Q00  =   0.077101

H          x =  1.438723  y = -0.840671  z = -2.184720 angstrom
           Maximum rank =  0   Radius =  0.325 angstrom
                   Q00  =   0.080891

H          x = -0.801277  y = -1.449671  z =  0.668280 angstrom
           Maximum rank =  0   Radius =  0.325 angstrom
                   Q00  =   0.076262

H          x =  0.602723  y = -2.369671  z =  1.186280 angstrom
           Maximum rank =  0   Radius =  0.325 angstrom
                   Q00  =   0.079551

H          x =  3.016413  y =  0.291089  z = -0.161500 angstrom
           Maximum rank =  0   Radius =  0.325 angstrom
                   Q00  =   0.075706

H          x =  3.016743  y = -1.563001  z =  0.008010 angstrom
           Maximum rank =  0   Radius =  0.325 angstrom
                   Q00  =   0.065252

H          x =  0.216933  y = -0.844581  z =  1.981070 angstrom
           Maximum rank =  0   Radius =  0.325 angstrom
                   Q00  =   0.082055

C          x = -1.535277  y =  2.153329  z =  0.318280 angstrom
           Maximum rank =  0   Radius =  0.650 angstrom
                   Q00  =  -0.238110

C          x = -2.928277  y =  1.671329  z = -0.127720 angstrom
           Maximum rank =  0   Radius =  0.650 angstrom
                   Q00  =  -0.242500

H          x = -1.182277  y =  1.547329  z =  1.145280 angstrom
           Maximum rank =  0   Radius =  0.325 angstrom
                   Q00  =   0.082424

H          x = -0.835277  y =  2.080329  z = -0.514720 angstrom
           Maximum rank =  0   Radius =  0.325 angstrom
                   Q00  =   0.079037

H          x = -1.588277  y =  3.192329  z =  0.645280 angstrom
           Maximum rank =  0   Radius =  0.325 angstrom
                   Q00  =   0.079363

H          x = -2.838277  y =  0.648329  z = -0.478720 angstrom
           Maximum rank =  0   Radius =  0.325 angstrom
                   Q00  =   0.079110

H          x = -3.624807  y =  1.709469  z =  0.722800 angstrom
           Maximum rank =  0   Radius =  0.325 angstrom
                   Q00  =   0.081015

H          x = -3.287357  y =  2.286689  z = -0.965810 angstrom
           Maximum rank =  0   Radius =  0.325 angstrom
                   Q00  =   0.079987

Total multipoles referred to origin at
           x =   0.000000,  y =    0.000000,  z =    0.000000 angstrom
                   Q00  =  -0.000000

Finished at 21:4:21 on 27 Apr 2020

  DMA results are available in the Python driver through the
	  variable('DMA DISTRIBUTED MULTIPOLES')
  and
	  variable('DMA TOTAL MULTIPOLES')
  commands.

    Psi4 stopped on: Monday, 27 April 2020 09:04PM
    Psi4 wall time for execution: 0:01:08.77

*** Psi4 exiting successfully. Buy a developer a beer!
