                               Psi4 1.3.2 release

  ==> Input File <==

--------------------------------------------------------------------------
import numpy as np
set {scf_type pk
basis cc-pvdz
d_convergence 10
gdma_switch   0
gdma_limit    0
gdma_origin   [ 0.0,  0.0,  0.0 ]
}
molecule test {
    units Angstrom
    -1 1
    --
    -1 1
    C               -1.349899168189090     3.729231861168850    -0.038942036758650
    C                0.684100831810911     0.672231861168850     0.702057963241350
    C               -0.538899168189090     1.391231861168850     0.796057963241350
    C               -0.378899168189090     2.609231861168850     0.050057963241350
    C                0.882100831810910     2.583231861168851    -0.457942036758650
    C                0.878100831810910    -0.558768138831150     1.321057963241350
    C               -0.175899168189090    -1.088768138831150     2.049057963241351
    C               -1.396899168189090    -0.405768138831150     2.160057963241350
    C               -1.589899168189089     0.834231861168850     1.541057963241350
    N                1.524100831810910     1.431231861168850    -0.069942036758650
    H                1.812100831810910    -1.091768138831150     1.219057963241350
    H               -0.062899168189090    -2.052768138831150     2.523057963241350
    H                2.473100831810910     1.192231861168850    -0.322942036758650
    H               -2.204899168189090    -0.881768138831150     2.693057963241350
    H                1.322100831810910     3.380231861168850    -1.045942036758650
    H               -2.535899168189090     1.350231861168850     1.618057963241350
    H               -0.757899168189089     4.638231861168850    -0.039942036758650
    H               -1.926899168189090     3.722231861168850     0.887057963241350
    H               -2.034089168189090     3.753671861168850    -0.899922036758650
    C               -0.689899168189090    -1.639768138831150    -2.222942036758650
    C                0.369100831810910    -2.615768138831150    -1.718942036758650
    O                0.066100831810910    -3.822768138831150    -1.603942036758650
    O                1.507100831810910    -2.183768138831150    -1.443942036758650
    H               -0.894899168189090    -1.837768138831150    -3.277942036758650
    H               -0.334899168189090    -0.608768138831150    -2.136942036758650
    H               -1.624579168189090    -1.735118138831150    -1.650862036758650

}
e, wfn = energy('scf', return_wfn=True)
gdma(wfn)
dmavals = variable('DMA DISTRIBUTED MULTIPOLES')
charges = np.array(dmavals)
print(charges)
np.save('SSI-071TRP-078GLU-1-dimer.npy', np.array(charges))--------------------------------------------------------------------------

*** tstart() called on ds3
*** at Sun Apr 26 17:24:39 2020

   => Loading Basis Set <=

    Name: CC-PVDZ
    Role: ORBITAL
    Keyword: BASIS
    atoms 1-9, 20-21   entry C          line   138 file /theoryfs2/ds/metcalf/miniconda2/envs/tf2gpu/share/psi4/basis/cc-pvdz.gbs
    atoms 10           entry N          line   168 file /theoryfs2/ds/metcalf/miniconda2/envs/tf2gpu/share/psi4/basis/cc-pvdz.gbs
    atoms 11-19, 24-26 entry H          line    22 file /theoryfs2/ds/metcalf/miniconda2/envs/tf2gpu/share/psi4/basis/cc-pvdz.gbs
    atoms 22-23        entry O          line   198 file /theoryfs2/ds/metcalf/miniconda2/envs/tf2gpu/share/psi4/basis/cc-pvdz.gbs

         ---------------------------------------------------------
                                   SCF
               by Justin Turney, Rob Parrish, Andy Simmonett
                          and Daniel G. A. Smith
                              RHF Reference
                        1 Threads,    500 MiB Core
         ---------------------------------------------------------

  ==> Geometry <==

    Molecular point group: c1
    Full point group: C1

    Geometry (in Angstrom), charge = -1, multiplicity = 1:

       Center              X                  Y                   Z               Mass
    ------------   -----------------  -----------------  -----------------  -----------------
         C           -1.349899168189     3.729231861169    -0.038942036759    12.000000000000
         C            0.684100831811     0.672231861169     0.702057963241    12.000000000000
         C           -0.538899168189     1.391231861169     0.796057963241    12.000000000000
         C           -0.378899168189     2.609231861169     0.050057963241    12.000000000000
         C            0.882100831811     2.583231861169    -0.457942036759    12.000000000000
         C            0.878100831811    -0.558768138831     1.321057963241    12.000000000000
         C           -0.175899168189    -1.088768138831     2.049057963241    12.000000000000
         C           -1.396899168189    -0.405768138831     2.160057963241    12.000000000000
         C           -1.589899168189     0.834231861169     1.541057963241    12.000000000000
         N            1.524100831811     1.431231861169    -0.069942036759    14.003074004430
         H            1.812100831811    -1.091768138831     1.219057963241     1.007825032230
         H           -0.062899168189    -2.052768138831     2.523057963241     1.007825032230
         H            2.473100831811     1.192231861169    -0.322942036759     1.007825032230
         H           -2.204899168189    -0.881768138831     2.693057963241     1.007825032230
         H            1.322100831811     3.380231861169    -1.045942036759     1.007825032230
         H           -2.535899168189     1.350231861169     1.618057963241     1.007825032230
         H           -0.757899168189     4.638231861169    -0.039942036759     1.007825032230
         H           -1.926899168189     3.722231861169     0.887057963241     1.007825032230
         H           -2.034089168189     3.753671861169    -0.899922036759     1.007825032230
         C           -0.689899168189    -1.639768138831    -2.222942036759    12.000000000000
         C            0.369100831811    -2.615768138831    -1.718942036759    12.000000000000
         O            0.066100831811    -3.822768138831    -1.603942036759    15.994914619570
         O            1.507100831811    -2.183768138831    -1.443942036759    15.994914619570
         H           -0.894899168189    -1.837768138831    -3.277942036759     1.007825032230
         H           -0.334899168189    -0.608768138831    -2.136942036759     1.007825032230
         H           -1.624579168189    -1.735118138831    -1.650862036759     1.007825032230

  Running in c1 symmetry.

  Rotational constants: A =      0.03366  B =      0.01419  C =      0.01261 [cm^-1]
  Rotational constants: A =   1008.96114  B =    425.43939  C =    378.04743 [MHz]
  Nuclear repulsion =  833.669365010392653

  Charge       = -1
  Multiplicity = 1
  Electrons    = 102
  Nalpha       = 51
  Nbeta        = 51

  ==> Algorithm <==

  SCF Algorithm Type is PK.
  DIIS enabled.
  MOM disabled.
  Fractional occupation disabled.
  Guess Type is SAD.
  Energy threshold   = 1.00e-06
  Density threshold  = 1.00e-10
  Integral threshold = 0.00e+00

  ==> Primary Basis <==

  Basis Set: CC-PVDZ
    Blend: CC-PVDZ
    Number of shells: 120
    Number of basis function: 256
    Number of Cartesian functions: 270
    Spherical Harmonics?: true
    Max angular momentum: 2

  ==> Pre-Iterations <==

   -------------------------------------------------------
    Irrep   Nso     Nmo     Nalpha   Nbeta   Ndocc  Nsocc
   -------------------------------------------------------
     A        256     256       0       0       0       0
   -------------------------------------------------------
    Total     256     256      51      51      51       0
   -------------------------------------------------------

  ==> Integral Setup <==

  Using integral reordering PK algorithm.
  Sizing the integral batches needed.
  Building batch lookup table.
   Calculation information:
      Number of atoms:                  26
      Number of AO shells:             120
      Number of primitives:            368
      Number of atomic orbitals:       270
      Number of basis functions:       256

      Integral cutoff                 1.00e-12
      Number of threads:                 1

	Batch   1 pq = [       0,    9405] index = [             0,44231715] size =     44231715
	Batch   2 pq = [    9405,   13301] index = [      44231715,88464951] size =     44233236
	Batch   3 pq = [   13301,   16290] index = [      88464951,132690195] size =     44225244
	Batch   4 pq = [   16290,   18810] index = [     132690195,176917455] size =     44227260
	Batch   5 pq = [   18810,   21030] index = [     176917455,221140965] size =     44223510
	Batch   6 pq = [   21030,   23037] index = [     221140965,265363203] size =     44222238
	Batch   7 pq = [   23037,   24883] index = [     265363203,309594286] size =     44231083
	Batch   8 pq = [   24883,   26601] index = [     309594286,353819901] size =     44225615
	Batch   9 pq = [   26601,   28214] index = [     353819901,398029005] size =     44209104
	Batch  10 pq = [   28214,   29740] index = [     398029005,442248670] size =     44219665
	Batch  11 pq = [   29740,   31191] index = [     442248670,486454836] size =     44206166
	Batch  12 pq = [   31191,   32578] index = [     486454836,530679331] size =     44224495
	Batch  13 pq = [   32578,   32896] index = [     530679331,541089856] size =     10410525
  Task number: 49
  Buffer size: 11059200
  Buffer per thread: 2
  We computed 27362450 shell quartets total.
  Whereas there are 26357430 unique shell quartets.
     3.81 percent of shell quartets recomputed by reordering.

  ==> DiskJK: Disk-Based J/K Matrices <==

    J tasked:                  Yes
    K tasked:                  Yes
    wK tasked:                  No
    Memory [MiB]:              375
    Schwarz Cutoff:          1E-12

    OpenMP threads:              1

  Minimum eigenvalue in the overlap matrix is 2.4208365313E-04.
  Using Symmetric Orthogonalization.

  SCF Guess: Superposition of Atomic Densities via on-the-fly atomic UHF.

  ==> Iterations <==

                        Total Energy        Delta E     RMS |[F,P]|

   @RHF iter SAD:  -626.52880474908363   -6.26529e+02   0.00000e+00
   @RHF iter   1:  -627.39036135756817   -8.61557e-01   3.24791e-03 DIIS
   @RHF iter   2:  -627.69275427164143   -3.02393e-01   1.72335e-03 DIIS
   @RHF iter   3:  -627.76937289056059   -7.66186e-02   3.09444e-04 DIIS
   @RHF iter   4:  -627.77357095502498   -4.19806e-03   1.18548e-04 DIIS
   @RHF iter   5:  -627.77415617107113   -5.85216e-04   2.16844e-05 DIIS
   @RHF iter   6:  -627.77418497766087   -2.88066e-05   1.15466e-05 DIIS
   @RHF iter   7:  -627.77419184815301   -6.87049e-06   3.06485e-06 DIIS
   @RHF iter   8:  -627.77419298371933   -1.13557e-06   1.21221e-06 DIIS
   @RHF iter   9:  -627.77419314989970   -1.66180e-07   4.77842e-07 DIIS
   @RHF iter  10:  -627.77419317409760   -2.41979e-08   1.78113e-07 DIIS
   @RHF iter  11:  -627.77419317855208   -4.45448e-09   9.09469e-08 DIIS
   @RHF iter  12:  -627.77419317973192   -1.17984e-09   4.77673e-08 DIIS
   @RHF iter  13:  -627.77419318017212   -4.40195e-10   1.76717e-08 DIIS
   @RHF iter  14:  -627.77419318022476   -5.26370e-11   4.78948e-09 DIIS
   @RHF iter  15:  -627.77419318022567   -9.09495e-13   1.50536e-09 DIIS
   @RHF iter  16:  -627.77419318022862   -2.95586e-12   6.55866e-10 DIIS
   @RHF iter  17:  -627.77419318022407    4.54747e-12   2.81941e-10 DIIS
   @RHF iter  18:  -627.77419318022601   -1.93268e-12   1.06158e-10 DIIS
   @RHF iter  19:  -627.77419318022510    9.09495e-13   4.20393e-11 DIIS
  Energy and wave function converged.

  ==> Post-Iterations <==

    Orbital Energies [Eh]
    ---------------------

    Doubly Occupied:

       1A    -20.253622     2A    -20.247214     3A    -15.496964
       4A    -11.167443     5A    -11.155320     6A    -11.143041
       7A    -11.128565     8A    -11.120507     9A    -11.119839
      10A    -11.118257    11A    -11.117782    12A    -11.116724
      13A    -11.108144    14A    -11.041517    15A     -1.190903
      16A     -1.142814    17A     -1.027434    18A     -1.020076
      19A     -0.977413    20A     -0.891832    21A     -0.884902
      22A     -0.838942    23A     -0.785874    24A     -0.735297
      25A     -0.698971    26A     -0.651310    27A     -0.615830
      28A     -0.561388    29A     -0.540209    30A     -0.502749
      31A     -0.496802    32A     -0.492369    33A     -0.482559
      34A     -0.471680    35A     -0.459692    36A     -0.445669
      37A     -0.426899    38A     -0.402028    39A     -0.397084
      40A     -0.396311    41A     -0.393624    42A     -0.366850
      43A     -0.353972    44A     -0.333193    45A     -0.298301
      46A     -0.267557    47A     -0.189011    48A     -0.176651
      49A     -0.172395    50A     -0.162896    51A     -0.152078

    Virtual:

      52A      0.229866    53A      0.269307    54A      0.274955
      55A      0.288043    56A      0.303801    57A      0.309383
      58A      0.324740    59A      0.337619    60A      0.352932
      61A      0.363198    62A      0.374984    63A      0.385513
      64A      0.390955    65A      0.405978    66A      0.425159
      67A      0.462412    68A      0.486530    69A      0.495342
      70A      0.503584    71A      0.530316    72A      0.544984
      73A      0.572658    74A      0.578963    75A      0.584321
      76A      0.612097    77A      0.623216    78A      0.682806
      79A      0.693308    80A      0.703216    81A      0.718529
      82A      0.735933    83A      0.743017    84A      0.771762
      85A      0.775442    86A      0.795340    87A      0.817800
      88A      0.825419    89A      0.833375    90A      0.839396
      91A      0.842103    92A      0.850944    93A      0.863590
      94A      0.868118    95A      0.873508    96A      0.882152
      97A      0.892223    98A      0.895724    99A      0.921253
     100A      0.950782   101A      0.955798   102A      0.961102
     103A      0.962902   104A      0.983393   105A      0.992046
     106A      0.997201   107A      1.003175   108A      1.007075
     109A      1.018789   110A      1.033980   111A      1.048597
     112A      1.053527   113A      1.057703   114A      1.062337
     115A      1.074297   116A      1.080900   117A      1.097643
     118A      1.108493   119A      1.120612   120A      1.146702
     121A      1.169188   122A      1.184185   123A      1.196472
     124A      1.232413   125A      1.237894   126A      1.246448
     127A      1.251081   128A      1.262919   129A      1.279699
     130A      1.305377   131A      1.323142   132A      1.334244
     133A      1.338336   134A      1.340970   135A      1.352856
     136A      1.358427   137A      1.381219   138A      1.384492
     139A      1.395972   140A      1.410848   141A      1.434063
     142A      1.438524   143A      1.463635   144A      1.473185
     145A      1.523529   146A      1.540853   147A      1.565264
     148A      1.579081   149A      1.594186   150A      1.603949
     151A      1.619186   152A      1.636907   153A      1.663042
     154A      1.682312   155A      1.692509   156A      1.696814
     157A      1.737738   158A      1.744349   159A      1.749300
     160A      1.760183   161A      1.782752   162A      1.797078
     163A      1.841843   164A      1.850613   165A      1.861674
     166A      1.869047   167A      1.887959   168A      1.896752
     169A      1.917777   170A      1.927298   171A      1.936084
     172A      1.987776   173A      1.994086   174A      1.996426
     175A      2.007369   176A      2.014936   177A      2.041658
     178A      2.046072   179A      2.051103   180A      2.069497
     181A      2.074616   182A      2.096059   183A      2.097212
     184A      2.109156   185A      2.114157   186A      2.120882
     187A      2.144293   188A      2.147991   189A      2.179379
     190A      2.191365   191A      2.197632   192A      2.206884
     193A      2.213635   194A      2.226780   195A      2.240273
     196A      2.247077   197A      2.267541   198A      2.274747
     199A      2.280406   200A      2.296200   201A      2.326784
     202A      2.340272   203A      2.361732   204A      2.387611
     205A      2.405749   206A      2.417256   207A      2.430221
     208A      2.442739   209A      2.446749   210A      2.480031
     211A      2.495111   212A      2.504442   213A      2.557325
     214A      2.561984   215A      2.587568   216A      2.646915
     217A      2.661816   218A      2.695668   219A      2.704832
     220A      2.721140   221A      2.734899   222A      2.770580
     223A      2.785634   224A      2.804820   225A      2.814462
     226A      2.854137   227A      2.874442   228A      2.892118
     229A      2.906071   230A      2.929457   231A      2.935170
     232A      2.945297   233A      2.975046   234A      2.980422
     235A      3.010884   236A      3.017475   237A      3.071343
     238A      3.129221   239A      3.161358   240A      3.177635
     241A      3.226238   242A      3.250039   243A      3.287114
     244A      3.299827   245A      3.309622   246A      3.371062
     247A      3.404025   248A      3.484767   249A      3.650012
     250A      3.787108   251A      3.838288   252A      3.849953
     253A      4.051314   254A      4.070260   255A      4.087703
     256A      4.207669

    Final Occupation by Irrep:
              A
    DOCC [    51 ]

  @RHF Final Energy:  -627.77419318022510

   => Energetics <=

    Nuclear Repulsion Energy =            833.6693650103926529
    One-Electron Energy =               -2525.4101008140951308
    Two-Electron Energy =                1063.9665426234773804
    Total Energy =                       -627.7741931802252111

Computation Completed

Properties will be evaluated at   0.000000,   0.000000,   0.000000 [a0]

Properties computed using the SCF density matrix

  Nuclear Dipole Moment: [e a0]
     X:    -6.3432      Y:     9.1812      Z:    -0.4215

  Electronic Dipole Moment: [e a0]
     X:     5.7713      Y:    -3.8069      Z:     2.5915

  Dipole Moment: [e a0]
     X:    -0.5719      Y:     5.3743      Z:     2.1700     Total:     5.8240

  Dipole Moment: [D]
     X:    -1.4536      Y:    13.6602      Z:     5.5155     Total:    14.8032

*** tstop() called on ds3 at Sun Apr 26 17:31:37 2020
Module time:
	user time   =     255.54 seconds =       4.26 minutes
	system time =      94.20 seconds =       1.57 minutes
	total time  =        418 seconds =       6.97 minutes
Total time:
	user time   =     255.54 seconds =       4.26 minutes
	system time =      94.20 seconds =       1.57 minutes
	total time  =        418 seconds =       6.97 minutes
                                     G D M A

                                 by Anthony Stone

                           version 2.2.06, 22 June 2011

               Distributed Multipoles from Gaussian wavefunctions

Starting at 17:31:37 on 26 Apr 2020

Using SCF density matrix from file ./SSI/SSI-071TRP-078GLU-1-dimer.test.18459.fchk

                         Distributed Multipole Analysis

Standard DMA

Positions and radii in angstrom
Multipole moments in atomic units, ea_0^k for rank k

C          x = -1.349899  y =  3.729232  z = -0.038942 angstrom
           Maximum rank =  0   Radius =  0.650 angstrom
                   Q00  =  -0.209668

C          x =  0.684101  y =  0.672232  z =  0.702058 angstrom
           Maximum rank =  0   Radius =  0.650 angstrom
                   Q00  =   0.304352

C          x = -0.538899  y =  1.391232  z =  0.796058 angstrom
           Maximum rank =  0   Radius =  0.650 angstrom
                   Q00  =  -0.055657

C          x = -0.378899  y =  2.609232  z =  0.050058 angstrom
           Maximum rank =  0   Radius =  0.650 angstrom
                   Q00  =  -0.125560

C          x =  0.882101  y =  2.583232  z = -0.457942 angstrom
           Maximum rank =  0   Radius =  0.650 angstrom
                   Q00  =   0.086547

C          x =  0.878101  y = -0.558768  z =  1.321058 angstrom
           Maximum rank =  0   Radius =  0.650 angstrom
                   Q00  =  -0.074198

C          x = -0.175899  y = -1.088768  z =  2.049058 angstrom
           Maximum rank =  0   Radius =  0.650 angstrom
                   Q00  =  -0.070074

C          x = -1.396899  y = -0.405768  z =  2.160058 angstrom
           Maximum rank =  0   Radius =  0.650 angstrom
                   Q00  =  -0.075287

C          x = -1.589899  y =  0.834232  z =  1.541058 angstrom
           Maximum rank =  0   Radius =  0.650 angstrom
                   Q00  =  -0.119819

N          x =  1.524101  y =  1.431232  z = -0.069942 angstrom
           Maximum rank =  0   Radius =  0.650 angstrom
                   Q00  =  -0.488929

H          x =  1.812101  y = -1.091768  z =  1.219058 angstrom
           Maximum rank =  0   Radius =  0.325 angstrom
                   Q00  =   0.096996

H          x = -0.062899  y = -2.052768  z =  2.523058 angstrom
           Maximum rank =  0   Radius =  0.325 angstrom
                   Q00  =   0.061647

H          x =  2.473101  y =  1.192232  z = -0.322942 angstrom
           Maximum rank =  0   Radius =  0.325 angstrom
                   Q00  =   0.222852

H          x = -2.204899  y = -0.881768  z =  2.693058 angstrom
           Maximum rank =  0   Radius =  0.325 angstrom
                   Q00  =   0.042361

H          x =  1.322101  y =  3.380232  z = -1.045942 angstrom
           Maximum rank =  0   Radius =  0.325 angstrom
                   Q00  =   0.082735

H          x = -2.535899  y =  1.350232  z =  1.618058 angstrom
           Maximum rank =  0   Radius =  0.325 angstrom
                   Q00  =   0.047872

H          x = -0.757899  y =  4.638232  z = -0.039942 angstrom
           Maximum rank =  0   Radius =  0.325 angstrom
                   Q00  =   0.084364

H          x = -1.926899  y =  3.722232  z =  0.887058 angstrom
           Maximum rank =  0   Radius =  0.325 angstrom
                   Q00  =   0.092916

H          x = -2.034089  y =  3.753672  z = -0.899922 angstrom
           Maximum rank =  0   Radius =  0.325 angstrom
                   Q00  =   0.090745

C          x = -0.689899  y = -1.639768  z = -2.222942 angstrom
           Maximum rank =  0   Radius =  0.650 angstrom
                   Q00  =  -0.284800

C          x =  0.369101  y = -2.615768  z = -1.718942 angstrom
           Maximum rank =  0   Radius =  0.650 angstrom
                   Q00  =   0.975312

O          x =  0.066101  y = -3.822768  z = -1.603942 angstrom
           Maximum rank =  0   Radius =  0.650 angstrom
                   Q00  =  -0.935715

O          x =  1.507101  y = -2.183768  z = -1.443942 angstrom
           Maximum rank =  0   Radius =  0.650 angstrom
                   Q00  =  -0.939067

H          x = -0.894899  y = -1.837768  z = -3.277942 angstrom
           Maximum rank =  0   Radius =  0.325 angstrom
                   Q00  =   0.066175

H          x = -0.334899  y = -0.608768  z = -2.136942 angstrom
           Maximum rank =  0   Radius =  0.325 angstrom
                   Q00  =   0.053205

H          x = -1.624579  y = -1.735118  z = -1.650862 angstrom
           Maximum rank =  0   Radius =  0.325 angstrom
                   Q00  =   0.070694

Total multipoles referred to origin at
           x =   0.000000,  y =    0.000000,  z =    0.000000 angstrom
                   Q00  =  -1.000000

Finished at 17:31:37 on 26 Apr 2020

  DMA results are available in the Python driver through the
	  variable('DMA DISTRIBUTED MULTIPOLES')
  and
	  variable('DMA TOTAL MULTIPOLES')
  commands.

    Psi4 stopped on: Sunday, 26 April 2020 05:31PM
    Psi4 wall time for execution: 0:06:58.59

*** Psi4 exiting successfully. Buy a developer a beer!
