                               Psi4 1.3.2 release

  ==> Input File <==

--------------------------------------------------------------------------
import numpy as np
set {scf_type pk
basis cc-pvdz
d_convergence 10
gdma_switch   0
gdma_limit    0
gdma_origin   [ 0.0,  0.0,  0.0 ]
}
molecule test {
    units Angstrom
    -1 1
    --
    -1 1
    C               -2.051401356663137    -1.040321242455974     0.489982835621819
    C               -1.696401356663137    -2.498321242455974     0.572982835621819
    H               -3.131401356663136    -0.920321242455974     0.413982835621819
    H               -1.630401356663137    -0.527321242455974     1.326982835621819
    H               -1.632401356663137    -0.651321242455974    -0.436017164378181
    H               -1.846401356663137    -2.925321242455974    -0.420017164378181
    H               -0.640261356663137    -2.628373242455974     0.851665835621819
    H               -2.375171356663136    -3.027139242455974     1.258272835621819
    C                0.910598643336863     1.261678757544026    -1.656017164378181
    C                0.952598643336863     0.869678757544026    -0.191017164378181
    O               -0.098401356663137     0.955678757544026     0.489982835621819
    O                2.048598643336863     0.516678757544026     0.291982835621819
    H                1.052598643336863     0.369678757544026    -2.270017164378181
    H                1.729598643336863     1.954678757544026    -1.864017164378181
    H               -0.037531356663137     1.744358757544026    -1.935427164378181

}
e, wfn = energy('scf', return_wfn=True)
gdma(wfn)
dmavals = variable('DMA DISTRIBUTED MULTIPOLES')
charges = np.array(dmavals)
print(charges)
np.save('SSI-028VAL-085GLU-1-dimer.npy', np.array(charges))--------------------------------------------------------------------------

*** tstart() called on ds3
*** at Mon Apr 27 01:19:14 2020

   => Loading Basis Set <=

    Name: CC-PVDZ
    Role: ORBITAL
    Keyword: BASIS
    atoms 1-2, 9-10  entry C          line   138 file /theoryfs2/ds/metcalf/miniconda2/envs/tf2gpu/share/psi4/basis/cc-pvdz.gbs
    atoms 3-8, 13-15 entry H          line    22 file /theoryfs2/ds/metcalf/miniconda2/envs/tf2gpu/share/psi4/basis/cc-pvdz.gbs
    atoms 11-12      entry O          line   198 file /theoryfs2/ds/metcalf/miniconda2/envs/tf2gpu/share/psi4/basis/cc-pvdz.gbs

         ---------------------------------------------------------
                                   SCF
               by Justin Turney, Rob Parrish, Andy Simmonett
                          and Daniel G. A. Smith
                              RHF Reference
                        1 Threads,    500 MiB Core
         ---------------------------------------------------------

  ==> Geometry <==

    Molecular point group: c1
    Full point group: C1

    Geometry (in Angstrom), charge = -1, multiplicity = 1:

       Center              X                  Y                   Z               Mass
    ------------   -----------------  -----------------  -----------------  -----------------
         C           -2.051401356663    -1.040321242456     0.489982835622    12.000000000000
         C           -1.696401356663    -2.498321242456     0.572982835622    12.000000000000
         H           -3.131401356663    -0.920321242456     0.413982835622     1.007825032230
         H           -1.630401356663    -0.527321242456     1.326982835622     1.007825032230
         H           -1.632401356663    -0.651321242456    -0.436017164378     1.007825032230
         H           -1.846401356663    -2.925321242456    -0.420017164378     1.007825032230
         H           -0.640261356663    -2.628373242456     0.851665835622     1.007825032230
         H           -2.375171356663    -3.027139242456     1.258272835622     1.007825032230
         C            0.910598643337     1.261678757544    -1.656017164378    12.000000000000
         C            0.952598643337     0.869678757544    -0.191017164378    12.000000000000
         O           -0.098401356663     0.955678757544     0.489982835622    15.994914619570
         O            2.048598643337     0.516678757544     0.291982835622    15.994914619570
         H            1.052598643337     0.369678757544    -2.270017164378     1.007825032230
         H            1.729598643337     1.954678757544    -1.864017164378     1.007825032230
         H           -0.037531356663     1.744358757544    -1.935427164378     1.007825032230

  Running in c1 symmetry.

  Rotational constants: A =      0.18662  B =      0.04456  C =      0.04244 [cm^-1]
  Rotational constants: A =   5594.64643  B =   1335.80987  C =   1272.33893 [MHz]
  Nuclear repulsion =  228.002083782797968

  Charge       = -1
  Multiplicity = 1
  Electrons    = 50
  Nalpha       = 25
  Nbeta        = 25

  ==> Algorithm <==

  SCF Algorithm Type is PK.
  DIIS enabled.
  MOM disabled.
  Fractional occupation disabled.
  Guess Type is SAD.
  Energy threshold   = 1.00e-06
  Density threshold  = 1.00e-10
  Integral threshold = 0.00e+00

  ==> Primary Basis <==

  Basis Set: CC-PVDZ
    Blend: CC-PVDZ
    Number of shells: 63
    Number of basis function: 129
    Number of Cartesian functions: 135
    Spherical Harmonics?: true
    Max angular momentum: 2

  ==> Pre-Iterations <==

   -------------------------------------------------------
    Irrep   Nso     Nmo     Nalpha   Nbeta   Ndocc  Nsocc
   -------------------------------------------------------
     A        129     129       0       0       0       0
   -------------------------------------------------------
    Total     129     129      25      25      25       0
   -------------------------------------------------------

  ==> Integral Setup <==

  Using integral reordering PK algorithm.
  Sizing the integral batches needed.
  Building batch lookup table.
   Calculation information:
      Number of atoms:                  15
      Number of AO shells:              63
      Number of primitives:            177
      Number of atomic orbitals:       135
      Number of basis functions:       129

      Integral cutoff                 1.00e-12
      Number of threads:                 1

	Batch   1 pq = [       0,    8385] index = [             0,35158305] size =     35158305
  Task number: 4
  Buffer size: 11059200
  Buffer per thread: 2
  We computed 1791526 shell quartets total.
  Whereas there are 2033136 unique shell quartets.

  ==> DiskJK: Disk-Based J/K Matrices <==

    J tasked:                  Yes
    K tasked:                  Yes
    wK tasked:                  No
    Memory [MiB]:              375
    Schwarz Cutoff:          1E-12

    OpenMP threads:              1

  Minimum eigenvalue in the overlap matrix is 5.4402560780E-03.
  Using Symmetric Orthogonalization.

  SCF Guess: Superposition of Atomic Densities via on-the-fly atomic UHF.

  ==> Iterations <==

                        Total Energy        Delta E     RMS |[F,P]|

   @RHF iter SAD:  -304.93628782714256   -3.04936e+02   0.00000e+00
   @RHF iter   1:  -306.19644192693181   -1.26015e+00   5.69669e-03 DIIS
   @RHF iter   2:  -306.40177209897092   -2.05330e-01   3.19681e-03 DIIS
   @RHF iter   3:  -306.46462415202370   -6.28521e-02   4.79383e-04 DIIS
   @RHF iter   4:  -306.46722137399541   -2.59722e-03   1.80932e-04 DIIS
   @RHF iter   5:  -306.46761512390481   -3.93750e-04   2.74282e-05 DIIS
   @RHF iter   6:  -306.46762596818201   -1.08443e-05   8.45677e-06 DIIS
   @RHF iter   7:  -306.46762674875060   -7.80569e-07   3.56154e-06 DIIS
   @RHF iter   8:  -306.46762686267198   -1.13921e-07   8.25965e-07 DIIS
   @RHF iter   9:  -306.46762687727778   -1.46058e-08   3.99589e-07 DIIS
   @RHF iter  10:  -306.46762688076387   -3.48609e-09   1.34451e-07 DIIS
   @RHF iter  11:  -306.46762688136914   -6.05269e-10   3.22054e-08 DIIS
   @RHF iter  12:  -306.46762688139768   -2.85354e-11   7.22368e-09 DIIS
   @RHF iter  13:  -306.46762688139830   -6.25278e-13   2.18771e-09 DIIS
   @RHF iter  14:  -306.46762688139847   -1.70530e-13   6.75454e-10 DIIS
   @RHF iter  15:  -306.46762688139944   -9.66338e-13   2.47088e-10 DIIS
   @RHF iter  16:  -306.46762688139933    1.13687e-13   8.99971e-11 DIIS
  Energy and wave function converged.

  ==> Post-Iterations <==

    Orbital Energies [Eh]
    ---------------------

    Doubly Occupied:

       1A    -20.258174     2A    -20.255083     3A    -11.114355
       4A    -11.087315     5A    -11.056510     6A    -11.050830
       7A     -1.147312     8A     -1.033884     9A     -0.885549
      10A     -0.797005    11A     -0.692391    12A     -0.501901
      13A     -0.466481    14A     -0.462032    15A     -0.412379
      16A     -0.407344    17A     -0.403268    18A     -0.362531
      19A     -0.351855    20A     -0.336875    21A     -0.331656
      22A     -0.298835    23A     -0.182254    24A     -0.169773
      25A     -0.157391

    Virtual:

      26A      0.310809    27A      0.347599    28A      0.367791
      29A      0.377942    30A      0.394185    31A      0.401651
      32A      0.415050    33A      0.436458    34A      0.454642
      35A      0.493298    36A      0.540208    37A      0.578760
      38A      0.687147    39A      0.716317    40A      0.735880
      41A      0.743024    42A      0.760694    43A      0.801142
      44A      0.830181    45A      0.863768    46A      0.900798
      47A      0.969155    48A      0.975710    49A      1.001103
      50A      1.011481    51A      1.018262    52A      1.032887
      53A      1.035852    54A      1.043132    55A      1.057106
      56A      1.064376    57A      1.077809    58A      1.107069
      59A      1.141798    60A      1.163105    61A      1.228228
      62A      1.235523    63A      1.259020    64A      1.346910
      65A      1.347707    66A      1.375701    67A      1.441210
      68A      1.552587    69A      1.574070    70A      1.588629
      71A      1.605001    72A      1.624805    73A      1.651196
      74A      1.671959    75A      1.693755    76A      1.740639
      77A      1.805073    78A      1.837611    79A      1.850110
      80A      1.862528    81A      1.879176    82A      1.997611
      83A      2.023582    84A      2.042799    85A      2.058770
      86A      2.078197    87A      2.086322    88A      2.094886
      89A      2.102600    90A      2.113772    91A      2.130036
      92A      2.140757    93A      2.177784    94A      2.219523
      95A      2.267904    96A      2.272619    97A      2.320481
      98A      2.340771    99A      2.419536   100A      2.434166
     101A      2.448254   102A      2.464154   103A      2.579298
     104A      2.585936   105A      2.622979   106A      2.657587
     107A      2.715233   108A      2.739008   109A      2.752899
     110A      2.786378   111A      2.890799   112A      2.914922
     113A      2.962999   114A      2.977231   115A      2.979072
     116A      2.987479   117A      3.004073   118A      3.116965
     119A      3.129975   120A      3.248581   121A      3.283537
     122A      3.299094   123A      3.371857   124A      3.637184
     125A      3.792663   126A      3.832865   127A      4.069024
     128A      4.093673   129A      4.197801

    Final Occupation by Irrep:
              A
    DOCC [    25 ]

  @RHF Final Energy:  -306.46762688139933

   => Energetics <=

    Nuclear Repulsion Energy =            228.0020837827979676
    One-Electron Energy =                -880.4934563699750925
    Two-Electron Energy =                 346.0237457057777988
    Total Energy =                       -306.4676268813993261

Computation Completed

Properties will be evaluated at   0.000000,   0.000000,   0.000000 [a0]

Properties computed using the SCF density matrix

  Nuclear Dipole Moment: [e a0]
     X:    -7.9698      Y:    -6.1906      Z:    -2.8786

  Electronic Dipole Moment: [e a0]
     X:     6.5359      Y:     5.2645      Z:     1.9021

  Dipole Moment: [e a0]
     X:    -1.4339      Y:    -0.9261      Z:    -0.9765     Total:     1.9665

  Dipole Moment: [D]
     X:    -3.6447      Y:    -2.3539      Z:    -2.4820     Total:     4.9985

*** tstop() called on ds3 at Mon Apr 27 01:19:31 2020
Module time:
	user time   =      12.17 seconds =       0.20 minutes
	system time =       4.61 seconds =       0.08 minutes
	total time  =         17 seconds =       0.28 minutes
Total time:
	user time   =      12.17 seconds =       0.20 minutes
	system time =       4.61 seconds =       0.08 minutes
	total time  =         17 seconds =       0.28 minutes
                                     G D M A

                                 by Anthony Stone

                           version 2.2.06, 22 June 2011

               Distributed Multipoles from Gaussian wavefunctions

Starting at 1:19:31 on 27 Apr 2020

Using SCF density matrix from file ./SSI/SSI-028VAL-085GLU-1-dimer.test.12329.fchk

                         Distributed Multipole Analysis

Standard DMA

Positions and radii in angstrom
Multipole moments in atomic units, ea_0^k for rank k

C          x = -2.051401  y = -1.040321  z =  0.489983 angstrom
           Maximum rank =  0   Radius =  0.650 angstrom
                   Q00  =  -0.154771

C          x = -1.696401  y = -2.498321  z =  0.572983 angstrom
           Maximum rank =  0   Radius =  0.650 angstrom
                   Q00  =  -0.242876

H          x = -3.131401  y = -0.920321  z =  0.413983 angstrom
           Maximum rank =  0   Radius =  0.325 angstrom
                   Q00  =   0.005047

H          x = -1.630401  y = -0.527321  z =  1.326983 angstrom
           Maximum rank =  0   Radius =  0.325 angstrom
                   Q00  =   0.107720

H          x = -1.632401  y = -0.651321  z = -0.436017 angstrom
           Maximum rank =  0   Radius =  0.325 angstrom
                   Q00  =   0.086887

H          x = -1.846401  y = -2.925321  z = -0.420017 angstrom
           Maximum rank =  0   Radius =  0.325 angstrom
                   Q00  =   0.042637

H          x = -0.640261  y = -2.628373  z =  0.851666 angstrom
           Maximum rank =  0   Radius =  0.325 angstrom
                   Q00  =   0.089476

H          x = -2.375171  y = -3.027139  z =  1.258273 angstrom
           Maximum rank =  0   Radius =  0.325 angstrom
                   Q00  =   0.033287

C          x =  0.910599  y =  1.261679  z = -1.656017 angstrom
           Maximum rank =  0   Radius =  0.650 angstrom
                   Q00  =  -0.280280

C          x =  0.952599  y =  0.869679  z = -0.191017 angstrom
           Maximum rank =  0   Radius =  0.650 angstrom
                   Q00  =   0.974090

O          x = -0.098401  y =  0.955679  z =  0.489983 angstrom
           Maximum rank =  0   Radius =  0.650 angstrom
                   Q00  =  -0.917144

O          x =  2.048599  y =  0.516679  z =  0.291983 angstrom
           Maximum rank =  0   Radius =  0.650 angstrom
                   Q00  =  -0.929855

H          x =  1.052599  y =  0.369679  z = -2.270017 angstrom
           Maximum rank =  0   Radius =  0.325 angstrom
                   Q00  =   0.071179

H          x =  1.729599  y =  1.954679  z = -1.864017 angstrom
           Maximum rank =  0   Radius =  0.325 angstrom
                   Q00  =   0.065382

H          x = -0.037531  y =  1.744359  z = -1.935427 angstrom
           Maximum rank =  0   Radius =  0.325 angstrom
                   Q00  =   0.049221

Total multipoles referred to origin at
           x =   0.000000,  y =    0.000000,  z =    0.000000 angstrom
                   Q00  =  -1.000000

Finished at 1:19:31 on 27 Apr 2020

  DMA results are available in the Python driver through the
	  variable('DMA DISTRIBUTED MULTIPOLES')
  and
	  variable('DMA TOTAL MULTIPOLES')
  commands.

    Psi4 stopped on: Monday, 27 April 2020 01:19AM
    Psi4 wall time for execution: 0:00:16.79

*** Psi4 exiting successfully. Buy a developer a beer!
