                               Psi4 1.3.2 release

  ==> Input File <==

--------------------------------------------------------------------------
import numpy as np
set {scf_type pk
basis cc-pvdz
d_convergence 10
gdma_switch   0
gdma_limit    0
gdma_origin   [ 0.0,  0.0,  0.0 ]
}
molecule test {
    units Angstrom
    0 1
    --
    0 1
    C               -2.595618549624292    -0.548594144816264     0.860176438664889
    C               -0.670618549624292    -0.256594144816264    -0.683823561335111
    C               -1.185618549624291    -0.863594144816264     0.434176438664889
    C                0.602381450375708    -0.537594144816264    -1.138823561335111
    C                1.412381450375709    -1.386594144816264    -0.420823561335111
    C               -0.361618549624292    -1.705594144816264     1.182176438664889
    C                0.942381450375708    -1.974594144816264     0.748176438664889
    H               -1.285618549624292     0.430405855183736    -1.248823561335111
    H                0.974381450375708    -0.070594144816264    -2.039823561335111
    H               -3.096618549624292    -1.478594144816264     1.132176438664890
    H               -3.140618549624292    -0.120594144816264     0.017176438664889
    H                2.414381450375708    -1.598594144816264    -0.767823561335111
    H               -0.736618549624292    -2.186594144816264     2.074176438664889
    H                1.573381450375709    -2.646594144816264     1.310176438664890
    H               -2.642718549624292     0.149889855183736     1.708646438664889
    C                0.843381450375708     3.246405855183736    -1.227823561335111
    C                1.034381450375708     3.071405855183736     0.298176438664889
    H                1.092381450375709     4.265405855183736    -1.525823561335111
    H                1.496381450375708     2.551405855183736    -1.755823561335111
    H               -0.184618549624292     3.022405855183736    -1.510823561335110
    H                0.666381450375708     2.084405855183736     0.588176438664889
    H                0.505561450375708     3.842695855183736     0.877363438664889
    H                2.108761450375709     3.130106555183736     0.526800438664889

}
e, wfn = energy('scf', return_wfn=True)
gdma(wfn)
dmavals = variable('DMA DISTRIBUTED MULTIPOLES')
charges = np.array(dmavals)
print(charges)
np.save('SSI-006PHE-039THR-2-dimer.npy', np.array(charges))--------------------------------------------------------------------------

*** tstart() called on ds3
*** at Mon Apr 27 18:36:20 2020

   => Loading Basis Set <=

    Name: CC-PVDZ
    Role: ORBITAL
    Keyword: BASIS
    atoms 1-7, 16-17  entry C          line   138 file /theoryfs2/ds/metcalf/miniconda2/envs/tf2gpu/share/psi4/basis/cc-pvdz.gbs
    atoms 8-15, 18-23 entry H          line    22 file /theoryfs2/ds/metcalf/miniconda2/envs/tf2gpu/share/psi4/basis/cc-pvdz.gbs

         ---------------------------------------------------------
                                   SCF
               by Justin Turney, Rob Parrish, Andy Simmonett
                          and Daniel G. A. Smith
                              RHF Reference
                        1 Threads,    500 MiB Core
         ---------------------------------------------------------

  ==> Geometry <==

    Molecular point group: c1
    Full point group: C1

    Geometry (in Angstrom), charge = 0, multiplicity = 1:

       Center              X                  Y                   Z               Mass
    ------------   -----------------  -----------------  -----------------  -----------------
         C           -2.595618549624    -0.548594144816     0.860176438665    12.000000000000
         C           -0.670618549624    -0.256594144816    -0.683823561335    12.000000000000
         C           -1.185618549624    -0.863594144816     0.434176438665    12.000000000000
         C            0.602381450376    -0.537594144816    -1.138823561335    12.000000000000
         C            1.412381450376    -1.386594144816    -0.420823561335    12.000000000000
         C           -0.361618549624    -1.705594144816     1.182176438665    12.000000000000
         C            0.942381450376    -1.974594144816     0.748176438665    12.000000000000
         H           -1.285618549624     0.430405855184    -1.248823561335     1.007825032230
         H            0.974381450376    -0.070594144816    -2.039823561335     1.007825032230
         H           -3.096618549624    -1.478594144816     1.132176438665     1.007825032230
         H           -3.140618549624    -0.120594144816     0.017176438665     1.007825032230
         H            2.414381450376    -1.598594144816    -0.767823561335     1.007825032230
         H           -0.736618549624    -2.186594144816     2.074176438665     1.007825032230
         H            1.573381450376    -2.646594144816     1.310176438665     1.007825032230
         H           -2.642718549624     0.149889855184     1.708646438665     1.007825032230
         C            0.843381450376     3.246405855184    -1.227823561335    12.000000000000
         C            1.034381450376     3.071405855184     0.298176438665    12.000000000000
         H            1.092381450376     4.265405855184    -1.525823561335     1.007825032230
         H            1.496381450376     2.551405855184    -1.755823561335     1.007825032230
         H           -0.184618549624     3.022405855184    -1.510823561335     1.007825032230
         H            0.666381450376     2.084405855184     0.588176438665     1.007825032230
         H            0.505561450376     3.842695855184     0.877363438665     1.007825032230
         H            2.108761450376     3.130106555184     0.526800438665     1.007825032230

  Running in c1 symmetry.

  Rotational constants: A =      0.06383  B =      0.03013  C =      0.02448 [cm^-1]
  Rotational constants: A =   1913.66919  B =    903.28193  C =    733.78453 [MHz]
  Nuclear repulsion =  414.329890253270889

  Charge       = 0
  Multiplicity = 1
  Electrons    = 68
  Nalpha       = 34
  Nbeta        = 34

  ==> Algorithm <==

  SCF Algorithm Type is PK.
  DIIS enabled.
  MOM disabled.
  Fractional occupation disabled.
  Guess Type is SAD.
  Energy threshold   = 1.00e-06
  Density threshold  = 1.00e-10
  Integral threshold = 0.00e+00

  ==> Primary Basis <==

  Basis Set: CC-PVDZ
    Blend: CC-PVDZ
    Number of shells: 96
    Number of basis function: 196
    Number of Cartesian functions: 205
    Spherical Harmonics?: true
    Max angular momentum: 2

  ==> Pre-Iterations <==

   -------------------------------------------------------
    Irrep   Nso     Nmo     Nalpha   Nbeta   Ndocc  Nsocc
   -------------------------------------------------------
     A        196     196       0       0       0       0
   -------------------------------------------------------
    Total     196     196      34      34      34       0
   -------------------------------------------------------

  ==> Integral Setup <==

  Using integral reordering PK algorithm.
  Sizing the integral batches needed.
  Building batch lookup table.
   Calculation information:
      Number of atoms:                  23
      Number of AO shells:              96
      Number of primitives:            268
      Number of atomic orbitals:       205
      Number of basis functions:       196

      Integral cutoff                 1.00e-12
      Number of threads:                 1

	Batch   1 pq = [       0,    9405] index = [             0,44231715] size =     44231715
	Batch   2 pq = [    9405,   13301] index = [      44231715,88464951] size =     44233236
	Batch   3 pq = [   13301,   16290] index = [      88464951,132690195] size =     44225244
	Batch   4 pq = [   16290,   18810] index = [     132690195,176917455] size =     44227260
	Batch   5 pq = [   18810,   19306] index = [     176917455,186370471] size =      9453016
  Task number: 17
  Buffer size: 11059200
  Buffer per thread: 2
  We computed 10251052 shell quartets total.
  Whereas there are 10841496 unique shell quartets.

  ==> DiskJK: Disk-Based J/K Matrices <==

    J tasked:                  Yes
    K tasked:                  Yes
    wK tasked:                  No
    Memory [MiB]:              375
    Schwarz Cutoff:          1E-12

    OpenMP threads:              1

  Minimum eigenvalue in the overlap matrix is 3.0214283308E-04.
  Using Symmetric Orthogonalization.

  SCF Guess: Superposition of Atomic Densities via on-the-fly atomic UHF.

  ==> Iterations <==

                        Total Energy        Delta E     RMS |[F,P]|

   @RHF iter SAD:  -347.90943265098338   -3.47909e+02   0.00000e+00
   @RHF iter   1:  -348.76653724225849   -8.57105e-01   2.90043e-03 DIIS
   @RHF iter   2:  -348.95904159586325   -1.92504e-01   1.21281e-03 DIIS
   @RHF iter   3:  -348.98973668166849   -3.06951e-02   2.61030e-04 DIIS
   @RHF iter   4:  -348.99220745774301   -2.47078e-03   6.00844e-05 DIIS
   @RHF iter   5:  -348.99229805988375   -9.06021e-05   1.94252e-05 DIIS
   @RHF iter   6:  -348.99230755209601   -9.49221e-06   4.99435e-06 DIIS
   @RHF iter   7:  -348.99230829865570   -7.46560e-07   1.25870e-06 DIIS
   @RHF iter   8:  -348.99230837156847   -7.29128e-08   4.16386e-07 DIIS
   @RHF iter   9:  -348.99230838840379   -1.68353e-08   2.15383e-07 DIIS
   @RHF iter  10:  -348.99230839320904   -4.80526e-09   1.02383e-07 DIIS
   @RHF iter  11:  -348.99230839453384   -1.32479e-09   3.37107e-08 DIIS
   @RHF iter  12:  -348.99230839464559   -1.11754e-10   1.41192e-08 DIIS
   @RHF iter  13:  -348.99230839465844   -1.28466e-11   3.70772e-09 DIIS
   @RHF iter  14:  -348.99230839465906   -6.25278e-13   1.11490e-09 DIIS
   @RHF iter  15:  -348.99230839465798    1.08002e-12   5.04036e-10 DIIS
   @RHF iter  16:  -348.99230839465764    3.41061e-13   2.23564e-10 DIIS
   @RHF iter  17:  -348.99230839465849   -8.52651e-13   8.49105e-11 DIIS
  Energy and wave function converged.

  ==> Post-Iterations <==

    Orbital Energies [Eh]
    ---------------------

    Doubly Occupied:

       1A    -11.238462     2A    -11.236544     3A    -11.232494
       4A    -11.231699     5A    -11.229691     6A    -11.229344
       7A    -11.225908     8A    -11.215501     9A    -11.213725
      10A     -1.157585    11A     -1.047113    12A     -1.013459
      13A     -1.007833    14A     -0.932506    15A     -0.833481
      16A     -0.827262    17A     -0.796645    18A     -0.692946
      19A     -0.633576    20A     -0.629661    21A     -0.593798
      22A     -0.589337    23A     -0.581978    24A     -0.577381
      25A     -0.563479    26A     -0.534912    27A     -0.492871
      28A     -0.491742    29A     -0.486587    30A     -0.481357
      31A     -0.480408    32A     -0.480080    33A     -0.332565
      34A     -0.325220

    Virtual:

      35A      0.134343    36A      0.142850    37A      0.172344
      38A      0.196952    39A      0.203334    40A      0.217088
      41A      0.232889    42A      0.241568    43A      0.255439
      44A      0.260691    45A      0.267854    46A      0.275050
      47A      0.278661    48A      0.302982    49A      0.308964
      50A      0.343843    51A      0.373103    52A      0.381575
      53A      0.396682    54A      0.457392    55A      0.462835
      56A      0.478454    57A      0.494744    58A      0.561228
      59A      0.581682    60A      0.594642    61A      0.608409
      62A      0.614934    63A      0.636969    64A      0.673266
      65A      0.679774    66A      0.692064    67A      0.696717
      68A      0.704429    69A      0.727429    70A      0.740721
      71A      0.749761    72A      0.756193    73A      0.761330
      74A      0.776705    75A      0.781288    76A      0.820612
      77A      0.831366    78A      0.844907    79A      0.855044
      80A      0.863227    81A      0.868529    82A      0.881786
      83A      0.891772    84A      0.897124    85A      0.900963
      86A      0.915245    87A      0.919200    88A      0.924150
      89A      0.938929    90A      0.942932    91A      0.963940
      92A      0.992054    93A      0.998719    94A      1.010348
      95A      1.033944    96A      1.053520    97A      1.114557
      98A      1.126171    99A      1.127651   100A      1.146297
     101A      1.156015   102A      1.168385   103A      1.195225
     104A      1.227036   105A      1.238340   106A      1.253777
     107A      1.261452   108A      1.277828   109A      1.303347
     110A      1.307245   111A      1.328253   112A      1.338045
     113A      1.413378   114A      1.466417   115A      1.476868
     116A      1.508811   117A      1.520301   118A      1.559881
     119A      1.585917   120A      1.602744   121A      1.671693
     122A      1.685883   123A      1.694220   124A      1.701250
     125A      1.736977   126A      1.748540   127A      1.768473
     128A      1.798939   129A      1.826453   130A      1.859565
     131A      1.867576   132A      1.873786   133A      1.879456
     134A      1.894922   135A      1.903435   136A      1.908316
     137A      1.921667   138A      1.932926   139A      1.939405
     140A      1.942038   141A      1.948967   142A      1.955323
     143A      1.960833   144A      1.962479   145A      1.976370
     146A      1.988581   147A      1.999009   148A      2.008604
     149A      2.047277   150A      2.058869   151A      2.078350
     152A      2.113353   153A      2.122301   154A      2.132763
     155A      2.140948   156A      2.162967   157A      2.172354
     158A      2.179519   159A      2.191873   160A      2.250693
     161A      2.278996   162A      2.294019   163A      2.299789
     164A      2.305209   165A      2.315639   166A      2.327642
     167A      2.341572   168A      2.452054   169A      2.456623
     170A      2.458788   171A      2.482672   172A      2.514955
     173A      2.549666   174A      2.569636   175A      2.581249
     176A      2.632636   177A      2.739668   178A      2.756047
     179A      2.768100   180A      2.775239   181A      2.793768
     182A      2.795639   183A      2.819694   184A      2.846621
     185A      2.848679   186A      2.862614   187A      2.882350
     188A      2.954656   189A      2.959345   190A      2.993585
     191A      3.016407   192A      3.035280   193A      3.166850
     194A      3.214391   195A      3.311891   196A      3.984689

    Final Occupation by Irrep:
              A
    DOCC [    34 ]

  @RHF Final Energy:  -348.99230839465849

   => Energetics <=

    Nuclear Repulsion Energy =            414.3298902532708894
    One-Electron Energy =               -1291.3701007422444036
    Two-Electron Energy =                 528.0479020943150772
    Total Energy =                       -348.9923083946584939

Computation Completed

Properties will be evaluated at   0.000000,   0.000000,   0.000000 [a0]

Properties computed using the SCF density matrix

  Nuclear Dipole Moment: [e a0]
     X:    -0.2392      Y:    10.6639      Z:    -0.5758

  Electronic Dipole Moment: [e a0]
     X:     0.1255      Y:   -10.7159      Z:     0.6337

  Dipole Moment: [e a0]
     X:    -0.1138      Y:    -0.0520      Z:     0.0578     Total:     0.1378

  Dipole Moment: [D]
     X:    -0.2892      Y:    -0.1323      Z:     0.1470     Total:     0.3503

*** tstop() called on ds3 at Mon Apr 27 18:37:56 2020
Module time:
	user time   =      70.39 seconds =       1.17 minutes
	system time =      28.83 seconds =       0.48 minutes
	total time  =         96 seconds =       1.60 minutes
Total time:
	user time   =      70.39 seconds =       1.17 minutes
	system time =      28.83 seconds =       0.48 minutes
	total time  =         96 seconds =       1.60 minutes
                                     G D M A

                                 by Anthony Stone

                           version 2.2.06, 22 June 2011

               Distributed Multipoles from Gaussian wavefunctions

Starting at 18:37:56 on 27 Apr 2020

Using SCF density matrix from file ./SSI/SSI-006PHE-039THR-2-dimer.test.25730.fchk

                         Distributed Multipole Analysis

Standard DMA

Positions and radii in angstrom
Multipole moments in atomic units, ea_0^k for rank k

C          x = -2.595619  y = -0.548594  z =  0.860176 angstrom
           Maximum rank =  0   Radius =  0.650 angstrom
                   Q00  =  -0.208919

C          x = -0.670619  y = -0.256594  z = -0.683824 angstrom
           Maximum rank =  0   Radius =  0.650 angstrom
                   Q00  =   0.013174

C          x = -1.185619  y = -0.863594  z =  0.434176 angstrom
           Maximum rank =  0   Radius =  0.650 angstrom
                   Q00  =  -0.096140

C          x =  0.602381  y = -0.537594  z = -1.138824 angstrom
           Maximum rank =  0   Radius =  0.650 angstrom
                   Q00  =  -0.075397

C          x =  1.412381  y = -1.386594  z = -0.420824 angstrom
           Maximum rank =  0   Radius =  0.650 angstrom
                   Q00  =  -0.086222

C          x = -0.361619  y = -1.705594  z =  1.182176 angstrom
           Maximum rank =  0   Radius =  0.650 angstrom
                   Q00  =  -0.096672

C          x =  0.942381  y = -1.974594  z =  0.748176 angstrom
           Maximum rank =  0   Radius =  0.650 angstrom
                   Q00  =  -0.052351

H          x = -1.285619  y =  0.430406  z = -1.248824 angstrom
           Maximum rank =  0   Radius =  0.325 angstrom
                   Q00  =   0.053336

H          x =  0.974381  y = -0.070594  z = -2.039824 angstrom
           Maximum rank =  0   Radius =  0.325 angstrom
                   Q00  =   0.064102

H          x = -3.096619  y = -1.478594  z =  1.132176 angstrom
           Maximum rank =  0   Radius =  0.325 angstrom
                   Q00  =   0.100004

H          x = -3.140619  y = -0.120594  z =  0.017176 angstrom
           Maximum rank =  0   Radius =  0.325 angstrom
                   Q00  =   0.097174

H          x =  2.414381  y = -1.598594  z = -0.767824 angstrom
           Maximum rank =  0   Radius =  0.325 angstrom
                   Q00  =   0.059177

H          x = -0.736619  y = -2.186594  z =  2.074176 angstrom
           Maximum rank =  0   Radius =  0.325 angstrom
                   Q00  =   0.058034

H          x =  1.573381  y = -2.646594  z =  1.310176 angstrom
           Maximum rank =  0   Radius =  0.325 angstrom
                   Q00  =   0.065998

H          x = -2.642719  y =  0.149890  z =  1.708646 angstrom
           Maximum rank =  0   Radius =  0.325 angstrom
                   Q00  =   0.104679

C          x =  0.843381  y =  3.246406  z = -1.227824 angstrom
           Maximum rank =  0   Radius =  0.650 angstrom
                   Q00  =  -0.238793

C          x =  1.034381  y =  3.071406  z =  0.298176 angstrom
           Maximum rank =  0   Radius =  0.650 angstrom
                   Q00  =  -0.244387

H          x =  1.092381  y =  4.265406  z = -1.525824 angstrom
           Maximum rank =  0   Radius =  0.325 angstrom
                   Q00  =   0.079477

H          x =  1.496381  y =  2.551406  z = -1.755824 angstrom
           Maximum rank =  0   Radius =  0.325 angstrom
                   Q00  =   0.078391

H          x = -0.184619  y =  3.022406  z = -1.510824 angstrom
           Maximum rank =  0   Radius =  0.325 angstrom
                   Q00  =   0.076204

H          x =  0.666381  y =  2.084406  z =  0.588176 angstrom
           Maximum rank =  0   Radius =  0.325 angstrom
                   Q00  =   0.095448

H          x =  0.505561  y =  3.842696  z =  0.877363 angstrom
           Maximum rank =  0   Radius =  0.325 angstrom
                   Q00  =   0.077235

H          x =  2.108761  y =  3.130107  z =  0.526800 angstrom
           Maximum rank =  0   Radius =  0.325 angstrom
                   Q00  =   0.076444

Total multipoles referred to origin at
           x =   0.000000,  y =    0.000000,  z =    0.000000 angstrom
                   Q00  =  -0.000000

Finished at 18:37:56 on 27 Apr 2020

  DMA results are available in the Python driver through the
	  variable('DMA DISTRIBUTED MULTIPOLES')
  and
	  variable('DMA TOTAL MULTIPOLES')
  commands.

    Psi4 stopped on: Monday, 27 April 2020 06:37PM
    Psi4 wall time for execution: 0:01:36.45

*** Psi4 exiting successfully. Buy a developer a beer!
