                               Psi4 1.3.2 release

  ==> Input File <==

--------------------------------------------------------------------------
import numpy as np
set {scf_type pk
basis cc-pvdz
d_convergence 10
gdma_switch   0
gdma_limit    0
gdma_origin   [ 0.0,  0.0,  0.0 ]
}
molecule test {
    units Angstrom
    0 1
    --
    0 1
    C                0.551656954273665    -1.732480420670127     1.783887640993827
    C               -0.571343045726335    -2.676480420670127     1.367887640993827
    H                1.390656954273665    -1.769480420670127     1.085887640993827
    H                0.179656954273665    -0.705480420670127     1.791887640993827
    H                0.895656954273665    -1.962480420670127     2.794887640993827
    H               -0.777343045726335    -2.530480420670127     0.310887640993827
    H               -0.282064045726335    -3.723496420670127     1.541307640993827
    H               -1.485388045726334    -2.450317420670127     1.936547640993827
    C                0.163656954273665     1.145519579329873    -0.638112359006173
    C               -0.077343045726335     2.643519579329873    -0.485112359006173
    C               -0.048343045726335     0.691519579329873    -2.077112359006173
    H                1.176656954273666     0.896519579329873    -0.318112359006173
    H               -0.536343045726335     0.615519579329873     0.004887640993827
    H                0.126656954273665     2.911519579329873     0.546887640993827
    H               -1.130343045726335     2.853519579329873    -0.679112359006173
    H               -1.064343045726335     0.947519579329873    -2.382112359006173
    H                0.654656954273665     1.186519579329873    -2.743112359006173
    H                0.539537954273665     3.273339579329873    -1.142972359006173
    H                0.094630954273665    -0.395225420670127    -2.169542359006173

}
e, wfn = energy('scf', return_wfn=True)
gdma(wfn)
dmavals = variable('DMA DISTRIBUTED MULTIPOLES')
charges = np.array(dmavals)
print(charges)
np.save('SSI-001LEU-071LYS-1-dimer.npy', np.array(charges))--------------------------------------------------------------------------

*** tstart() called on ds3
*** at Mon Apr 27 09:13:50 2020

   => Loading Basis Set <=

    Name: CC-PVDZ
    Role: ORBITAL
    Keyword: BASIS
    atoms 1-2, 9-11  entry C          line   138 file /theoryfs2/ds/metcalf/miniconda2/envs/tf2gpu/share/psi4/basis/cc-pvdz.gbs
    atoms 3-8, 12-19 entry H          line    22 file /theoryfs2/ds/metcalf/miniconda2/envs/tf2gpu/share/psi4/basis/cc-pvdz.gbs

         ---------------------------------------------------------
                                   SCF
               by Justin Turney, Rob Parrish, Andy Simmonett
                          and Daniel G. A. Smith
                              RHF Reference
                        1 Threads,    500 MiB Core
         ---------------------------------------------------------

  ==> Geometry <==

    Molecular point group: c1
    Full point group: C1

    Geometry (in Angstrom), charge = 0, multiplicity = 1:

       Center              X                  Y                   Z               Mass
    ------------   -----------------  -----------------  -----------------  -----------------
         C            0.551656954274    -1.732480420670     1.783887640994    12.000000000000
         C           -0.571343045726    -2.676480420670     1.367887640994    12.000000000000
         H            1.390656954274    -1.769480420670     1.085887640994     1.007825032230
         H            0.179656954274    -0.705480420670     1.791887640994     1.007825032230
         H            0.895656954274    -1.962480420670     2.794887640994     1.007825032230
         H           -0.777343045726    -2.530480420670     0.310887640994     1.007825032230
         H           -0.282064045726    -3.723496420670     1.541307640994     1.007825032230
         H           -1.485388045726    -2.450317420670     1.936547640994     1.007825032230
         C            0.163656954274     1.145519579330    -0.638112359006    12.000000000000
         C           -0.077343045726     2.643519579330    -0.485112359006    12.000000000000
         C           -0.048343045726     0.691519579330    -2.077112359006    12.000000000000
         H            1.176656954274     0.896519579330    -0.318112359006     1.007825032230
         H           -0.536343045726     0.615519579330     0.004887640994     1.007825032230
         H            0.126656954274     2.911519579330     0.546887640994     1.007825032230
         H           -1.130343045726     2.853519579330    -0.679112359006     1.007825032230
         H           -1.064343045726     0.947519579330    -2.382112359006     1.007825032230
         H            0.654656954274     1.186519579330    -2.743112359006     1.007825032230
         H            0.539537954274     3.273339579330    -1.142972359006     1.007825032230
         H            0.094630954274    -0.395225420670    -2.169542359006     1.007825032230

  Running in c1 symmetry.

  Rotational constants: A =      0.21457  B =      0.04126  C =      0.03722 [cm^-1]
  Rotational constants: A =   6432.55825  B =   1236.85961  C =   1115.82586 [MHz]
  Nuclear repulsion =  178.294261790480618

  Charge       = 0
  Multiplicity = 1
  Electrons    = 44
  Nalpha       = 22
  Nbeta        = 22

  ==> Algorithm <==

  SCF Algorithm Type is PK.
  DIIS enabled.
  MOM disabled.
  Fractional occupation disabled.
  Guess Type is SAD.
  Energy threshold   = 1.00e-06
  Density threshold  = 1.00e-10
  Integral threshold = 0.00e+00

  ==> Primary Basis <==

  Basis Set: CC-PVDZ
    Blend: CC-PVDZ
    Number of shells: 72
    Number of basis function: 140
    Number of Cartesian functions: 145
    Spherical Harmonics?: true
    Max angular momentum: 2

  ==> Pre-Iterations <==

   -------------------------------------------------------
    Irrep   Nso     Nmo     Nalpha   Nbeta   Ndocc  Nsocc
   -------------------------------------------------------
     A        140     140       0       0       0       0
   -------------------------------------------------------
    Total     140     140      22      22      22       0
   -------------------------------------------------------

  ==> Integral Setup <==

  Using integral reordering PK algorithm.
  Sizing the integral batches needed.
  Building batch lookup table.
   Calculation information:
      Number of atoms:                  19
      Number of AO shells:              72
      Number of primitives:            180
      Number of atomic orbitals:       145
      Number of basis functions:       140

      Integral cutoff                 1.00e-12
      Number of threads:                 1

	Batch   1 pq = [       0,    9405] index = [             0,44231715] size =     44231715
	Batch   2 pq = [    9405,    9870] index = [      44231715,48713385] size =      4481670
  Task number: 5
  Buffer size: 11059200
  Buffer per thread: 2
  We computed 2891904 shell quartets total.
  Whereas there are 3454506 unique shell quartets.

  ==> DiskJK: Disk-Based J/K Matrices <==

    J tasked:                  Yes
    K tasked:                  Yes
    wK tasked:                  No
    Memory [MiB]:              375
    Schwarz Cutoff:          1E-12

    OpenMP threads:              1

  Minimum eigenvalue in the overlap matrix is 5.3654356106E-03.
  Using Symmetric Orthogonalization.

  SCF Guess: Superposition of Atomic Densities via on-the-fly atomic UHF.

  ==> Iterations <==

                        Total Energy        Delta E     RMS |[F,P]|

   @RHF iter SAD:  -196.38112734604346   -1.96381e+02   0.00000e+00
   @RHF iter   1:  -197.31102706916582   -9.29900e-01   3.82428e-03 DIIS
   @RHF iter   2:  -197.47197210637026   -1.60945e-01   1.66119e-03 DIIS
   @RHF iter   3:  -197.50101507919416   -2.90430e-02   3.26642e-04 DIIS
   @RHF iter   4:  -197.50324925144605   -2.23417e-03   4.84279e-05 DIIS
   @RHF iter   5:  -197.50328771400868   -3.84626e-05   1.48236e-05 DIIS
   @RHF iter   6:  -197.50329101345125   -3.29944e-06   2.38135e-06 DIIS
   @RHF iter   7:  -197.50329111456668   -1.01115e-07   4.27004e-07 DIIS
   @RHF iter   8:  -197.50329111813230   -3.56562e-09   1.06557e-07 DIIS
   @RHF iter   9:  -197.50329111833940   -2.07109e-10   3.24694e-08 DIIS
   @RHF iter  10:  -197.50329111836257   -2.31637e-11   7.43585e-09 DIIS
   @RHF iter  11:  -197.50329111836376   -1.19371e-12   1.48264e-09 DIIS
   @RHF iter  12:  -197.50329111836265    1.10845e-12   2.94725e-10 DIIS
   @RHF iter  13:  -197.50329111836331   -6.53699e-13   6.22575e-11 DIIS
  Energy and wave function converged.

  ==> Post-Iterations <==

    Orbital Energies [Eh]
    ---------------------

    Doubly Occupied:

       1A    -11.219245     2A    -11.219156     3A    -11.216480
       4A    -11.215322     5A    -11.215151     6A     -1.055745
       7A     -1.018536     8A     -0.924476     9A     -0.837033
      10A     -0.797623    11A     -0.627699    12A     -0.601545
      13A     -0.596841    14A     -0.591823    15A     -0.550334
      16A     -0.531336    17A     -0.503057    18A     -0.487659
      19A     -0.485553    20A     -0.470509    21A     -0.469174
      22A     -0.466548

    Virtual:

      23A      0.164394    24A      0.196565    25A      0.211475
      26A      0.216677    27A      0.237993    28A      0.246662
      29A      0.260358    30A      0.267707    31A      0.273041
      32A      0.281434    33A      0.295642    34A      0.307332
      35A      0.323016    36A      0.345067    37A      0.373746
      38A      0.399006    39A      0.428091    40A      0.576645
      41A      0.579619    42A      0.596743    43A      0.605767
      44A      0.607472    45A      0.614689    46A      0.630996
      47A      0.647314    48A      0.688027    49A      0.772722
      50A      0.798599    51A      0.814957    52A      0.847490
      53A      0.862696    54A      0.866746    55A      0.888148
      56A      0.891400    57A      0.892072    58A      0.897419
      59A      0.899760    60A      0.907521    61A      0.913221
      62A      0.921870    63A      0.927873    64A      0.942124
      65A      0.958881    66A      0.972283    67A      0.986512
      68A      1.003656    69A      1.123603    70A      1.125615
      71A      1.132903    72A      1.152506    73A      1.202595
      74A      1.247191    75A      1.385077    76A      1.463432
      77A      1.473909    78A      1.475842    79A      1.485535
      80A      1.517938    81A      1.589221    82A      1.632192
      83A      1.680050    84A      1.686391    85A      1.690008
      86A      1.695758    87A      1.723581    88A      1.857470
      89A      1.864175    90A      1.868465    91A      1.883752
      92A      1.899413    93A      1.904083    94A      1.912416
      95A      1.934429    96A      1.937746    97A      1.942987
      98A      1.944919    99A      1.951185   100A      1.957243
     101A      1.963103   102A      1.976884   103A      1.980961
     104A      1.988308   105A      2.012916   106A      2.028580
     107A      2.057780   108A      2.116616   109A      2.125412
     110A      2.137130   111A      2.150250   112A      2.296390
     113A      2.300978   114A      2.317385   115A      2.320134
     116A      2.338696   117A      2.349044   118A      2.443060
     119A      2.453166   120A      2.501831   121A      2.532180
     122A      2.567451   123A      2.577594   124A      2.579840
     125A      2.610668   126A      2.622099   127A      2.753453
     128A      2.763867   129A      2.771603   130A      2.786623
     131A      2.792383   132A      2.833252   133A      2.852678
     134A      2.863782   135A      2.907236   136A      2.947550
     137A      2.961290   138A      2.984018   139A      2.988962
     140A      3.066625

    Final Occupation by Irrep:
              A
    DOCC [    22 ]

  @RHF Final Energy:  -197.50329111836331

   => Energetics <=

    Nuclear Repulsion Energy =            178.2942617904806184
    One-Electron Energy =                -617.3934165868033688
    Two-Electron Energy =                 241.5958636779594428
    Total Energy =                       -197.5032911183633075

Computation Completed

Properties will be evaluated at   0.000000,   0.000000,   0.000000 [a0]

Properties computed using the SCF density matrix

  Nuclear Dipole Moment: [e a0]
     X:    -0.2041      Y:    -0.7992      Z:     0.5421

  Electronic Dipole Moment: [e a0]
     X:     0.2086      Y:     0.8009      Z:    -0.5141

  Dipole Moment: [e a0]
     X:     0.0045      Y:     0.0017      Z:     0.0280     Total:     0.0284

  Dipole Moment: [D]
     X:     0.0114      Y:     0.0044      Z:     0.0711     Total:     0.0721

*** tstop() called on ds3 at Mon Apr 27 09:15:01 2020
Module time:
	user time   =      14.55 seconds =       0.24 minutes
	system time =       5.26 seconds =       0.09 minutes
	total time  =         71 seconds =       1.18 minutes
Total time:
	user time   =      14.55 seconds =       0.24 minutes
	system time =       5.26 seconds =       0.09 minutes
	total time  =         71 seconds =       1.18 minutes
                                     G D M A

                                 by Anthony Stone

                           version 2.2.06, 22 June 2011

               Distributed Multipoles from Gaussian wavefunctions

Starting at 9:15:1 on 27 Apr 2020

Using SCF density matrix from file ./SSI/SSI-001LEU-071LYS-1-dimer.test.1543.fchk

                         Distributed Multipole Analysis

Standard DMA

Positions and radii in angstrom
Multipole moments in atomic units, ea_0^k for rank k

C          x =  0.551657  y = -1.732480  z =  1.783888 angstrom
           Maximum rank =  0   Radius =  0.650 angstrom
                   Q00  =  -0.242576

C          x = -0.571343  y = -2.676480  z =  1.367888 angstrom
           Maximum rank =  0   Radius =  0.650 angstrom
                   Q00  =  -0.229680

H          x =  1.390657  y = -1.769480  z =  1.085888 angstrom
           Maximum rank =  0   Radius =  0.325 angstrom
                   Q00  =   0.079712

H          x =  0.179657  y = -0.705480  z =  1.791888 angstrom
           Maximum rank =  0   Radius =  0.325 angstrom
                   Q00  =   0.077995

H          x =  0.895657  y = -1.962480  z =  2.794888 angstrom
           Maximum rank =  0   Radius =  0.325 angstrom
                   Q00  =   0.078170

H          x = -0.777343  y = -2.530480  z =  0.310888 angstrom
           Maximum rank =  0   Radius =  0.325 angstrom
                   Q00  =   0.079115

H          x = -0.282064  y = -3.723496  z =  1.541308 angstrom
           Maximum rank =  0   Radius =  0.325 angstrom
                   Q00  =   0.079141

H          x = -1.485388  y = -2.450317  z =  1.936548 angstrom
           Maximum rank =  0   Radius =  0.325 angstrom
                   Q00  =   0.077918

C          x =  0.163657  y =  1.145520  z = -0.638112 angstrom
           Maximum rank =  0   Radius =  0.650 angstrom
                   Q00  =  -0.084129

C          x = -0.077343  y =  2.643520  z = -0.485112 angstrom
           Maximum rank =  0   Radius =  0.650 angstrom
                   Q00  =  -0.250272

C          x = -0.048343  y =  0.691520  z = -2.077112 angstrom
           Maximum rank =  0   Radius =  0.650 angstrom
                   Q00  =  -0.230363

H          x =  1.176657  y =  0.896520  z = -0.318112 angstrom
           Maximum rank =  0   Radius =  0.325 angstrom
                   Q00  =   0.048503

H          x = -0.536343  y =  0.615520  z =  0.004888 angstrom
           Maximum rank =  0   Radius =  0.325 angstrom
                   Q00  =   0.047960

H          x =  0.126657  y =  2.911520  z =  0.546888 angstrom
           Maximum rank =  0   Radius =  0.325 angstrom
                   Q00  =   0.081501

H          x = -1.130343  y =  2.853520  z = -0.679112 angstrom
           Maximum rank =  0   Radius =  0.325 angstrom
                   Q00  =   0.074884

H          x = -1.064343  y =  0.947520  z = -2.382112 angstrom
           Maximum rank =  0   Radius =  0.325 angstrom
                   Q00  =   0.074561

H          x =  0.654657  y =  1.186520  z = -2.743112 angstrom
           Maximum rank =  0   Radius =  0.325 angstrom
                   Q00  =   0.078091

H          x =  0.539538  y =  3.273340  z = -1.142972 angstrom
           Maximum rank =  0   Radius =  0.325 angstrom
                   Q00  =   0.079042

H          x =  0.094631  y = -0.395225  z = -2.169542 angstrom
           Maximum rank =  0   Radius =  0.325 angstrom
                   Q00  =   0.080425

Total multipoles referred to origin at
           x =   0.000000,  y =    0.000000,  z =    0.000000 angstrom
                   Q00  =  -0.000000

Finished at 9:15:1 on 27 Apr 2020

  DMA results are available in the Python driver through the
	  variable('DMA DISTRIBUTED MULTIPOLES')
  and
	  variable('DMA TOTAL MULTIPOLES')
  commands.

    Psi4 stopped on: Monday, 27 April 2020 09:15AM
    Psi4 wall time for execution: 0:01:11.24

*** Psi4 exiting successfully. Buy a developer a beer!
