                               Psi4 1.3.2 release

  ==> Input File <==

--------------------------------------------------------------------------
import numpy as np
set {scf_type pk
basis cc-pvdz
d_convergence 10
gdma_switch   0
gdma_limit    0
gdma_origin   [ 0.0,  0.0,  0.0 ]
}
molecule test {
    units Angstrom
    -1 1
    --
    -1 1
    C                1.348974562304892     0.776954723142404    -1.614183181797912
    C                2.452974562304892     1.347954723142404    -2.459183181797913
    H                1.458974562304892    -0.302045276857596    -1.517183181797912
    H                1.377974562304892     1.227954723142404    -0.622183181797913
    H                0.386974562304892     1.000954723142404    -2.074183181797912
    H                2.315974562304892     2.428954723142404    -2.496183181797913
    H                2.394776562304892     0.949294723142404    -3.482743181797912
    H                3.429001562304892     1.138084723142404    -1.997313181797913
    C               -0.490025437695108    -1.460045276857596     0.606816818202088
    C                0.453974562304892    -1.666045276857596     1.772816818202088
    C               -1.125025437695108    -0.067045276857596     0.600816818202088
    O               -1.103025437695108     0.625954723142404     1.641816818202088
    O               -1.646025437695108     0.329954723142404    -0.468183181797913
    H                0.039974562304892    -1.616045276857596    -0.331183181797913
    H               -1.296025437695108    -2.194045276857596     0.663816818202088
    H               -0.110025437695108    -1.594045276857596     2.704816818202088
    H                1.195974562304892    -0.865045276857596     1.764816818202087
    H                0.991437562304892    -2.625805276857596     1.774266818202088

}
e, wfn = energy('scf', return_wfn=True)
gdma(wfn)
dmavals = variable('DMA DISTRIBUTED MULTIPOLES')
charges = np.array(dmavals)
print(charges)
np.save('SSI-006VAL-055GLU-1-dimer.npy', np.array(charges))--------------------------------------------------------------------------

*** tstart() called on ds3
*** at Tue Apr 28 09:20:39 2020

   => Loading Basis Set <=

    Name: CC-PVDZ
    Role: ORBITAL
    Keyword: BASIS
    atoms 1-2, 9-11  entry C          line   138 file /theoryfs2/ds/metcalf/miniconda2/envs/tf2gpu/share/psi4/basis/cc-pvdz.gbs
    atoms 3-8, 14-18 entry H          line    22 file /theoryfs2/ds/metcalf/miniconda2/envs/tf2gpu/share/psi4/basis/cc-pvdz.gbs
    atoms 12-13      entry O          line   198 file /theoryfs2/ds/metcalf/miniconda2/envs/tf2gpu/share/psi4/basis/cc-pvdz.gbs

         ---------------------------------------------------------
                                   SCF
               by Justin Turney, Rob Parrish, Andy Simmonett
                          and Daniel G. A. Smith
                              RHF Reference
                        1 Threads,    500 MiB Core
         ---------------------------------------------------------

  ==> Geometry <==

    Molecular point group: c1
    Full point group: C1

    Geometry (in Angstrom), charge = -1, multiplicity = 1:

       Center              X                  Y                   Z               Mass
    ------------   -----------------  -----------------  -----------------  -----------------
         C            1.348974562305     0.776954723142    -1.614183181798    12.000000000000
         C            2.452974562305     1.347954723142    -2.459183181798    12.000000000000
         H            1.458974562305    -0.302045276858    -1.517183181798     1.007825032230
         H            1.377974562305     1.227954723142    -0.622183181798     1.007825032230
         H            0.386974562305     1.000954723142    -2.074183181798     1.007825032230
         H            2.315974562305     2.428954723142    -2.496183181798     1.007825032230
         H            2.394776562305     0.949294723142    -3.482743181798     1.007825032230
         H            3.429001562305     1.138084723142    -1.997313181798     1.007825032230
         C           -0.490025437695    -1.460045276858     0.606816818202    12.000000000000
         C            0.453974562305    -1.666045276858     1.772816818202    12.000000000000
         C           -1.125025437695    -0.067045276858     0.600816818202    12.000000000000
         O           -1.103025437695     0.625954723142     1.641816818202    15.994914619570
         O           -1.646025437695     0.329954723142    -0.468183181798    15.994914619570
         H            0.039974562305    -1.616045276858    -0.331183181798     1.007825032230
         H           -1.296025437695    -2.194045276858     0.663816818202     1.007825032230
         H           -0.110025437695    -1.594045276858     2.704816818202     1.007825032230
         H            1.195974562305    -0.865045276858     1.764816818202     1.007825032230
         H            0.991437562305    -2.625805276858     1.774266818202     1.007825032230

  Running in c1 symmetry.

  Rotational constants: A =      0.10398  B =      0.03707  C =      0.03174 [cm^-1]
  Rotational constants: A =   3117.24631  B =   1111.24412  C =    951.48821 [MHz]
  Nuclear repulsion =  298.041340387692344

  Charge       = -1
  Multiplicity = 1
  Electrons    = 58
  Nalpha       = 29
  Nbeta        = 29

  ==> Algorithm <==

  SCF Algorithm Type is PK.
  DIIS enabled.
  MOM disabled.
  Fractional occupation disabled.
  Guess Type is SAD.
  Energy threshold   = 1.00e-06
  Density threshold  = 1.00e-10
  Integral threshold = 0.00e+00

  ==> Primary Basis <==

  Basis Set: CC-PVDZ
    Blend: CC-PVDZ
    Number of shells: 75
    Number of basis function: 153
    Number of Cartesian functions: 160
    Spherical Harmonics?: true
    Max angular momentum: 2

  ==> Pre-Iterations <==

   -------------------------------------------------------
    Irrep   Nso     Nmo     Nalpha   Nbeta   Ndocc  Nsocc
   -------------------------------------------------------
     A        153     153       0       0       0       0
   -------------------------------------------------------
    Total     153     153      29      29      29       0
   -------------------------------------------------------

  ==> Integral Setup <==

  Using integral reordering PK algorithm.
  Sizing the integral batches needed.
  Building batch lookup table.
   Calculation information:
      Number of atoms:                  18
      Number of AO shells:              75
      Number of primitives:            209
      Number of atomic orbitals:       160
      Number of basis functions:       153

      Integral cutoff                 1.00e-12
      Number of threads:                 1

	Batch   1 pq = [       0,    9405] index = [             0,44231715] size =     44231715
	Batch   2 pq = [    9405,   11781] index = [      44231715,69401871] size =     25170156
  Task number: 7
  Buffer size: 11059200
  Buffer per thread: 2
  We computed 3608630 shell quartets total.
  Whereas there are 4062675 unique shell quartets.

  ==> DiskJK: Disk-Based J/K Matrices <==

    J tasked:                  Yes
    K tasked:                  Yes
    wK tasked:                  No
    Memory [MiB]:              375
    Schwarz Cutoff:          1E-12

    OpenMP threads:              1

  Minimum eigenvalue in the overlap matrix is 3.6848154716E-03.
  Using Symmetric Orthogonalization.

  SCF Guess: Superposition of Atomic Densities via on-the-fly atomic UHF.

  ==> Iterations <==

                        Total Energy        Delta E     RMS |[F,P]|

   @RHF iter SAD:  -343.92656489406335   -3.43927e+02   0.00000e+00
   @RHF iter   1:  -345.21640996285771   -1.28985e+00   4.94155e-03 DIIS
   @RHF iter   2:  -345.44296544245304   -2.26555e-01   2.71861e-03 DIIS
   @RHF iter   3:  -345.50820348564309   -6.52380e-02   4.28863e-04 DIIS
   @RHF iter   4:  -345.51120636711784   -3.00288e-03   1.70395e-04 DIIS
   @RHF iter   5:  -345.51165542126432   -4.49054e-04   2.45708e-05 DIIS
   @RHF iter   6:  -345.51166885837722   -1.34371e-05   6.04575e-06 DIIS
   @RHF iter   7:  -345.51166950509986   -6.46723e-07   2.39282e-06 DIIS
   @RHF iter   8:  -345.51166959003984   -8.49400e-08   8.57394e-07 DIIS
   @RHF iter   9:  -345.51166960143956   -1.13997e-08   2.49884e-07 DIIS
   @RHF iter  10:  -345.51166960346967   -2.03011e-09   8.69870e-08 DIIS
   @RHF iter  11:  -345.51166960374690   -2.77225e-10   2.54277e-08 DIIS
   @RHF iter  12:  -345.51166960377157   -2.46700e-11   8.58000e-09 DIIS
   @RHF iter  13:  -345.51166960377543   -3.86535e-12   2.80851e-09 DIIS
   @RHF iter  14:  -345.51166960377424    1.19371e-12   7.85582e-10 DIIS
   @RHF iter  15:  -345.51166960377668   -2.44427e-12   3.00193e-10 DIIS
   @RHF iter  16:  -345.51166960377674   -5.68434e-14   9.62674e-11 DIIS
  Energy and wave function converged.

  ==> Post-Iterations <==

    Orbital Energies [Eh]
    ---------------------

    Doubly Occupied:

       1A    -20.262330     2A    -20.255890     3A    -11.114392
       4A    -11.107526     5A    -11.078767     6A    -11.068088
       7A    -11.052169     8A     -1.148485     9A     -1.034488
      10A     -0.904300    11A     -0.871295    12A     -0.710363
      13A     -0.699365    14A     -0.505070    15A     -0.483291
      16A     -0.481764    17A     -0.458443    18A     -0.431253
      19A     -0.391649    20A     -0.381733    21A     -0.362861
      22A     -0.361369    23A     -0.356542    24A     -0.349232
      25A     -0.324603    26A     -0.297849    27A     -0.181698
      28A     -0.170874    29A     -0.159446

    Virtual:

      30A      0.294632    31A      0.328251    32A      0.356659
      33A      0.363085    34A      0.370341    35A      0.383003
      36A      0.385118    37A      0.409763    38A      0.425096
      39A      0.448307    40A      0.456652    41A      0.509164
      42A      0.527342    43A      0.561918    44A      0.604196
      45A      0.674299    46A      0.711472    47A      0.719432
      48A      0.723044    49A      0.747755    50A      0.774409
      51A      0.806066    52A      0.813268    53A      0.833431
      54A      0.932796    55A      0.943743    56A      0.970007
      57A      0.995629    58A      0.999387    59A      1.007409
      60A      1.011803    61A      1.025723    62A      1.035810
      63A      1.042118    64A      1.044036    65A      1.052342
      66A      1.060408    67A      1.077497    68A      1.082275
      69A      1.090197    70A      1.109740    71A      1.136373
      72A      1.189940    73A      1.244871    74A      1.254435
      75A      1.270821    76A      1.313866    77A      1.317115
      78A      1.384562    79A      1.403634    80A      1.466419
      81A      1.502675    82A      1.570966    83A      1.597446
      84A      1.600120    85A      1.626054    86A      1.641089
      87A      1.649569    88A      1.676355    89A      1.708114
      90A      1.732319    91A      1.782235    92A      1.817058
      93A      1.830435    94A      1.842744    95A      1.875357
      96A      1.933465    97A      1.973145    98A      1.992149
      99A      2.016427   100A      2.042844   101A      2.055514
     102A      2.070817   103A      2.079513   104A      2.083010
     105A      2.101306   106A      2.108083   107A      2.111626
     108A      2.146971   109A      2.166288   110A      2.175556
     111A      2.185799   112A      2.211187   113A      2.211964
     114A      2.230836   115A      2.240360   116A      2.266618
     117A      2.352895   118A      2.411497   119A      2.437221
     120A      2.469583   121A      2.494605   122A      2.528984
     123A      2.554563   124A      2.584691   125A      2.595378
     126A      2.615678   127A      2.666481   128A      2.689509
     129A      2.706877   130A      2.726672   131A      2.767679
     132A      2.829614   133A      2.872655   134A      2.913644
     135A      2.932846   136A      2.973162   137A      2.981292
     138A      3.008827   139A      3.021875   140A      3.074447
     141A      3.087771   142A      3.099803   143A      3.129987
     144A      3.247791   145A      3.291899   146A      3.304058
     147A      3.366530   148A      3.641270   149A      3.780777
     150A      3.830765   151A      4.061935   152A      4.082122
     153A      4.205116

    Final Occupation by Irrep:
              A
    DOCC [    29 ]

  @RHF Final Energy:  -345.51166960377674

   => Energetics <=

    Nuclear Repulsion Energy =            298.0413403876923439
    One-Electron Energy =               -1073.0957527794328144
    Two-Electron Energy =                 429.5427427879637321
    Total Energy =                       -345.5116696037767383

Computation Completed

Properties will be evaluated at   0.000000,   0.000000,   0.000000 [a0]

Properties computed using the SCF density matrix

  Nuclear Dipole Moment: [e a0]
     X:    11.4099      Y:    -2.2939      Z:    -5.2566

  Electronic Dipole Moment: [e a0]
     X:    -9.2327      Y:     1.2929      Z:     4.3095

  Dipole Moment: [e a0]
     X:     2.1771      Y:    -1.0009      Z:    -0.9471     Total:     2.5766

  Dipole Moment: [D]
     X:     5.5337      Y:    -2.5441      Z:    -2.4073     Total:     6.5490

*** tstop() called on ds3 at Tue Apr 28 09:21:13 2020
Module time:
	user time   =      24.35 seconds =       0.41 minutes
	system time =      10.19 seconds =       0.17 minutes
	total time  =         34 seconds =       0.57 minutes
Total time:
	user time   =      24.35 seconds =       0.41 minutes
	system time =      10.19 seconds =       0.17 minutes
	total time  =         34 seconds =       0.57 minutes
                                     G D M A

                                 by Anthony Stone

                           version 2.2.06, 22 June 2011

               Distributed Multipoles from Gaussian wavefunctions

Starting at 9:21:13 on 28 Apr 2020

Using SCF density matrix from file ./SSI/SSI-006VAL-055GLU-1-dimer.test.10243.fchk

                         Distributed Multipole Analysis

Standard DMA

Positions and radii in angstrom
Multipole moments in atomic units, ea_0^k for rank k

C          x =  1.348975  y =  0.776955  z = -1.614183 angstrom
           Maximum rank =  0   Radius =  0.650 angstrom
                   Q00  =  -0.163440

C          x =  2.452975  y =  1.347955  z = -2.459183 angstrom
           Maximum rank =  0   Radius =  0.650 angstrom
                   Q00  =  -0.250404

H          x =  1.458975  y = -0.302045  z = -1.517183 angstrom
           Maximum rank =  0   Radius =  0.325 angstrom
                   Q00  =   0.055645

H          x =  1.377975  y =  1.227955  z = -0.622183 angstrom
           Maximum rank =  0   Radius =  0.325 angstrom
                   Q00  =   0.083254

H          x =  0.386975  y =  1.000955  z = -2.074183 angstrom
           Maximum rank =  0   Radius =  0.325 angstrom
                   Q00  =   0.097141

H          x =  2.315975  y =  2.428955  z = -2.496183 angstrom
           Maximum rank =  0   Radius =  0.325 angstrom
                   Q00  =   0.062128

H          x =  2.394777  y =  0.949295  z = -3.482743 angstrom
           Maximum rank =  0   Radius =  0.325 angstrom
                   Q00  =   0.054973

H          x =  3.429002  y =  1.138085  z = -1.997313 angstrom
           Maximum rank =  0   Radius =  0.325 angstrom
                   Q00  =   0.053582

C          x = -0.490025  y = -1.460045  z =  0.606817 angstrom
           Maximum rank =  0   Radius =  0.650 angstrom
                   Q00  =  -0.160532

C          x =  0.453975  y = -1.666045  z =  1.772817 angstrom
           Maximum rank =  0   Radius =  0.650 angstrom
                   Q00  =  -0.217949

C          x = -1.125025  y = -0.067045  z =  0.600817 angstrom
           Maximum rank =  0   Radius =  0.650 angstrom
                   Q00  =   1.017928

O          x = -1.103025  y =  0.625955  z =  1.641817 angstrom
           Maximum rank =  0   Radius =  0.650 angstrom
                   Q00  =  -0.963230

O          x = -1.646025  y =  0.329955  z = -0.468183 angstrom
           Maximum rank =  0   Radius =  0.650 angstrom
                   Q00  =  -0.932731

H          x =  0.039975  y = -1.616045  z = -0.331183 angstrom
           Maximum rank =  0   Radius =  0.325 angstrom
                   Q00  =   0.037958

H          x = -1.296025  y = -2.194045  z =  0.663817 angstrom
           Maximum rank =  0   Radius =  0.325 angstrom
                   Q00  =   0.050379

H          x = -0.110025  y = -1.594045  z =  2.704817 angstrom
           Maximum rank =  0   Radius =  0.325 angstrom
                   Q00  =   0.083745

H          x =  1.195975  y = -0.865045  z =  1.764817 angstrom
           Maximum rank =  0   Radius =  0.325 angstrom
                   Q00  =   0.078270

H          x =  0.991438  y = -2.625805  z =  1.774267 angstrom
           Maximum rank =  0   Radius =  0.325 angstrom
                   Q00  =   0.013283

Total multipoles referred to origin at
           x =   0.000000,  y =    0.000000,  z =    0.000000 angstrom
                   Q00  =  -1.000000

Finished at 9:21:13 on 28 Apr 2020

  DMA results are available in the Python driver through the
	  variable('DMA DISTRIBUTED MULTIPOLES')
  and
	  variable('DMA TOTAL MULTIPOLES')
  commands.

    Psi4 stopped on: Tuesday, 28 April 2020 09:21AM
    Psi4 wall time for execution: 0:00:33.61

*** Psi4 exiting successfully. Buy a developer a beer!
