                               Psi4 1.3.2 release

  ==> Input File <==

--------------------------------------------------------------------------
import numpy as np
set {scf_type pk
basis cc-pvdz
d_convergence 10
gdma_switch   0
gdma_limit    0
gdma_origin   [ 0.0,  0.0,  0.0 ]
}
molecule test {
    units Angstrom
    -1 1
    --
    -1 1
    C               -0.037387701209971    -0.154385020000459     0.503287111961256
    C               -1.297387701209971     0.543614979999541     1.009287111961256
    C                1.097612298790029    -0.154385020000459     1.522287111961256
    O                0.828612298790029    -0.328385020000459     2.734287111961256
    O                2.266612298790029    -0.003385020000459     1.103287111961256
    H               -0.291387701209971    -1.188385020000459     0.261287111961256
    H                0.294612298790029     0.318614979999541    -0.420712888038744
    H               -1.639387701209971     0.042614979999541     1.915287111961256
    H               -2.083387701209971     0.427614979999541     0.271287111961256
    H               -1.181677701209971     1.618024979999541     1.214827111961256
    C               -0.715387701209971     0.363614979999541    -3.220712888038744
    C               -2.059387701209971    -0.281385020000459    -3.507712888038744
    H               -0.459387701209971     1.054614979999541    -4.021712888038744
    H               -0.780387701209971     0.925614979999541    -2.293712888038744
    H                0.060612298790029    -0.397385020000459    -3.131712888038744
    H               -2.811387701209971     0.496614979999541    -3.632712888038744
    H               -2.001787701209971    -0.889055020000459    -4.422818888038743
    H               -2.367257701209970    -0.918815020000459    -2.665753888038743

}
e, wfn = energy('scf', return_wfn=True)
gdma(wfn)
dmavals = variable('DMA DISTRIBUTED MULTIPOLES')
charges = np.array(dmavals)
print(charges)
np.save('SSI-036GLU-045LEU-1-dimer.npy', np.array(charges))--------------------------------------------------------------------------

*** tstart() called on ds3
*** at Tue Apr 28 09:01:15 2020

   => Loading Basis Set <=

    Name: CC-PVDZ
    Role: ORBITAL
    Keyword: BASIS
    atoms 1-3, 11-12  entry C          line   138 file /theoryfs2/ds/metcalf/miniconda2/envs/tf2gpu/share/psi4/basis/cc-pvdz.gbs
    atoms 4-5         entry O          line   198 file /theoryfs2/ds/metcalf/miniconda2/envs/tf2gpu/share/psi4/basis/cc-pvdz.gbs
    atoms 6-10, 13-18 entry H          line    22 file /theoryfs2/ds/metcalf/miniconda2/envs/tf2gpu/share/psi4/basis/cc-pvdz.gbs

         ---------------------------------------------------------
                                   SCF
               by Justin Turney, Rob Parrish, Andy Simmonett
                          and Daniel G. A. Smith
                              RHF Reference
                        1 Threads,    500 MiB Core
         ---------------------------------------------------------

  ==> Geometry <==

    Molecular point group: c1
    Full point group: C1

    Geometry (in Angstrom), charge = -1, multiplicity = 1:

       Center              X                  Y                   Z               Mass
    ------------   -----------------  -----------------  -----------------  -----------------
         C           -0.037387701210    -0.154385020000     0.503287111961    12.000000000000
         C           -1.297387701210     0.543614980000     1.009287111961    12.000000000000
         C            1.097612298790    -0.154385020000     1.522287111961    12.000000000000
         O            0.828612298790    -0.328385020000     2.734287111961    15.994914619570
         O            2.266612298790    -0.003385020000     1.103287111961    15.994914619570
         H           -0.291387701210    -1.188385020000     0.261287111961     1.007825032230
         H            0.294612298790     0.318614980000    -0.420712888039     1.007825032230
         H           -1.639387701210     0.042614980000     1.915287111961     1.007825032230
         H           -2.083387701210     0.427614980000     0.271287111961     1.007825032230
         H           -1.181677701210     1.618024980000     1.214827111961     1.007825032230
         C           -0.715387701210     0.363614980000    -3.220712888039    12.000000000000
         C           -2.059387701210    -0.281385020000    -3.507712888039    12.000000000000
         H           -0.459387701210     1.054614980000    -4.021712888039     1.007825032230
         H           -0.780387701210     0.925614980000    -2.293712888039     1.007825032230
         H            0.060612298790    -0.397385020000    -3.131712888039     1.007825032230
         H           -2.811387701210     0.496614980000    -3.632712888039     1.007825032230
         H           -2.001787701210    -0.889055020000    -4.422818888039     1.007825032230
         H           -2.367257701210    -0.918815020000    -2.665753888039     1.007825032230

  Running in c1 symmetry.

  Rotational constants: A =      0.14346  B =      0.02559  C =      0.02265 [cm^-1]
  Rotational constants: A =   4300.68444  B =    767.24332  C =    679.10133 [MHz]
  Nuclear repulsion =  284.811499270493300

  Charge       = -1
  Multiplicity = 1
  Electrons    = 58
  Nalpha       = 29
  Nbeta        = 29

  ==> Algorithm <==

  SCF Algorithm Type is PK.
  DIIS enabled.
  MOM disabled.
  Fractional occupation disabled.
  Guess Type is SAD.
  Energy threshold   = 1.00e-06
  Density threshold  = 1.00e-10
  Integral threshold = 0.00e+00

  ==> Primary Basis <==

  Basis Set: CC-PVDZ
    Blend: CC-PVDZ
    Number of shells: 75
    Number of basis function: 153
    Number of Cartesian functions: 160
    Spherical Harmonics?: true
    Max angular momentum: 2

  ==> Pre-Iterations <==

   -------------------------------------------------------
    Irrep   Nso     Nmo     Nalpha   Nbeta   Ndocc  Nsocc
   -------------------------------------------------------
     A        153     153       0       0       0       0
   -------------------------------------------------------
    Total     153     153      29      29      29       0
   -------------------------------------------------------

  ==> Integral Setup <==

  Using integral reordering PK algorithm.
  Sizing the integral batches needed.
  Building batch lookup table.
   Calculation information:
      Number of atoms:                  18
      Number of AO shells:              75
      Number of primitives:            209
      Number of atomic orbitals:       160
      Number of basis functions:       153

      Integral cutoff                 1.00e-12
      Number of threads:                 1

	Batch   1 pq = [       0,    9405] index = [             0,44231715] size =     44231715
	Batch   2 pq = [    9405,   11781] index = [      44231715,69401871] size =     25170156
  Task number: 7
  Buffer size: 11059200
  Buffer per thread: 2
  We computed 3335120 shell quartets total.
  Whereas there are 4062675 unique shell quartets.

  ==> DiskJK: Disk-Based J/K Matrices <==

    J tasked:                  Yes
    K tasked:                  Yes
    wK tasked:                  No
    Memory [MiB]:              375
    Schwarz Cutoff:          1E-12

    OpenMP threads:              1

  Minimum eigenvalue in the overlap matrix is 3.8870271915E-03.
  Using Symmetric Orthogonalization.

  SCF Guess: Superposition of Atomic Densities via on-the-fly atomic UHF.

  ==> Iterations <==

                        Total Energy        Delta E     RMS |[F,P]|

   @RHF iter SAD:  -343.87337322371576   -3.43873e+02   0.00000e+00
   @RHF iter   1:  -345.21983869602707   -1.34647e+00   4.91991e-03 DIIS
   @RHF iter   2:  -345.44190253548402   -2.22064e-01   2.71490e-03 DIIS
   @RHF iter   3:  -345.50666240016062   -6.47599e-02   4.24867e-04 DIIS
   @RHF iter   4:  -345.50963796460144   -2.97556e-03   1.67351e-04 DIIS
   @RHF iter   5:  -345.51007558787165   -4.37623e-04   2.42238e-05 DIIS
   @RHF iter   6:  -345.51008862869043   -1.30408e-05   5.60816e-06 DIIS
   @RHF iter   7:  -345.51008925343206   -6.24742e-07   2.18398e-06 DIIS
   @RHF iter   8:  -345.51008932195765   -6.85256e-08   7.05096e-07 DIIS
   @RHF iter   9:  -345.51008933070068   -8.74303e-09   2.80567e-07 DIIS
   @RHF iter  10:  -345.51008933228792   -1.58724e-09   6.73084e-08 DIIS
   @RHF iter  11:  -345.51008933245953   -1.71610e-10   2.15324e-08 DIIS
   @RHF iter  12:  -345.51008933247425   -1.47224e-11   7.48987e-09 DIIS
   @RHF iter  13:  -345.51008933247698   -2.72848e-12   2.67525e-09 DIIS
   @RHF iter  14:  -345.51008933247647    5.11591e-13   7.44298e-10 DIIS
   @RHF iter  15:  -345.51008933247829   -1.81899e-12   2.67103e-10 DIIS
   @RHF iter  16:  -345.51008933247510    3.18323e-12   8.52054e-11 DIIS
  Energy and wave function converged.

  ==> Post-Iterations <==

    Orbital Energies [Eh]
    ---------------------

    Doubly Occupied:

       1A    -20.253758     2A    -20.251970     3A    -11.136178
       4A    -11.124256     5A    -11.108443     6A    -11.071692
       7A    -11.051321     8A     -1.142369     9A     -1.028307
      10A     -0.934620    11A     -0.870355    12A     -0.749457
      13A     -0.702246    14A     -0.515695    15A     -0.513840
      16A     -0.502219    17A     -0.454158    18A     -0.426561
      19A     -0.415483    20A     -0.399636    21A     -0.396939
      22A     -0.384875    23A     -0.361827    24A     -0.358558
      25A     -0.320153    26A     -0.295378    27A     -0.175940
      28A     -0.165153    29A     -0.154174

    Virtual:

      30A      0.263093    31A      0.316445    32A      0.323791
      33A      0.333182    34A      0.351649    35A      0.364327
      36A      0.385097    37A      0.398621    38A      0.414445
      39A      0.423354    40A      0.460394    41A      0.482191
      42A      0.496697    43A      0.555462    44A      0.596390
      45A      0.687438    46A      0.691212    47A      0.699291
      48A      0.711162    49A      0.719876    50A      0.762665
      51A      0.770550    52A      0.785831    53A      0.839115
      54A      0.875338    55A      0.936866    56A      0.962304
      57A      0.970020    58A      0.971082    59A      0.981477
      60A      0.988029    61A      0.999449    62A      1.015313
      63A      1.028132    64A      1.038232    65A      1.040620
      66A      1.054038    67A      1.064809    68A      1.071902
      69A      1.093038    70A      1.106984    71A      1.127664
      72A      1.151746    73A      1.211139    74A      1.246114
      75A      1.252639    76A      1.303031    77A      1.318891
      78A      1.336754    79A      1.399313    80A      1.483833
      81A      1.521772    82A      1.554729    83A      1.568300
      84A      1.573417    85A      1.604725    86A      1.609863
      87A      1.640659    88A      1.651619    89A      1.674073
      90A      1.712268    91A      1.764822    92A      1.769676
      93A      1.794858    94A      1.845765    95A      1.881153
      96A      1.926438    97A      1.948177    98A      1.978665
      99A      1.999777   100A      2.032206   101A      2.034917
     102A      2.038441   103A      2.042931   104A      2.046052
     105A      2.054581   106A      2.069265   107A      2.081635
     108A      2.099575   109A      2.136533   110A      2.142947
     111A      2.175064   112A      2.193426   113A      2.194627
     114A      2.205149   115A      2.225355   116A      2.284277
     117A      2.371036   118A      2.387876   119A      2.396550
     120A      2.406346   121A      2.475506   122A      2.492157
     123A      2.538763   124A      2.549088   125A      2.559421
     126A      2.583923   127A      2.651668   128A      2.660931
     129A      2.671063   130A      2.707822   131A      2.766907
     132A      2.826458   133A      2.846703   134A      2.889593
     135A      2.921676   136A      2.938645   137A      2.951822
     138A      2.997534   139A      3.033014   140A      3.043168
     141A      3.053001   142A      3.080607   143A      3.135258
     144A      3.255689   145A      3.293314   146A      3.306703
     147A      3.368882   148A      3.643625   149A      3.787785
     150A      3.830360   151A      4.056227   152A      4.086851
     153A      4.206173

    Final Occupation by Irrep:
              A
    DOCC [    29 ]

  @RHF Final Energy:  -345.51008933247510

   => Energetics <=

    Nuclear Repulsion Energy =            284.8114992704933002
    One-Electron Energy =               -1046.1120563387203219
    Two-Electron Energy =                 415.7904677357519176
    Total Energy =                       -345.5100893324751041

Computation Completed

Properties will be evaluated at   0.000000,   0.000000,   0.000000 [a0]

Properties computed using the SCF density matrix

  Nuclear Dipole Moment: [e a0]
     X:   -12.4167      Y:     1.3953      Z:   -15.8496

  Electronic Dipole Moment: [e a0]
     X:     9.6134      Y:    -1.1712      Z:    12.3006

  Dipole Moment: [e a0]
     X:    -2.8034      Y:     0.2241      Z:    -3.5490     Total:     4.5282

  Dipole Moment: [D]
     X:    -7.1255      Y:     0.5696      Z:    -9.0206     Total:    11.5095

*** tstop() called on ds3 at Tue Apr 28 09:01:50 2020
Module time:
	user time   =      24.53 seconds =       0.41 minutes
	system time =      11.68 seconds =       0.19 minutes
	total time  =         35 seconds =       0.58 minutes
Total time:
	user time   =      24.53 seconds =       0.41 minutes
	system time =      11.68 seconds =       0.19 minutes
	total time  =         35 seconds =       0.58 minutes
                                     G D M A

                                 by Anthony Stone

                           version 2.2.06, 22 June 2011

               Distributed Multipoles from Gaussian wavefunctions

Starting at 9:1:50 on 28 Apr 2020

Using SCF density matrix from file ./SSI/SSI-036GLU-045LEU-1-dimer.test.31457.fchk

                         Distributed Multipole Analysis

Standard DMA

Positions and radii in angstrom
Multipole moments in atomic units, ea_0^k for rank k

C          x = -0.037388  y = -0.154385  z =  0.503287 angstrom
           Maximum rank =  0   Radius =  0.650 angstrom
                   Q00  =  -0.136231

C          x = -1.297388  y =  0.543615  z =  1.009287 angstrom
           Maximum rank =  0   Radius =  0.650 angstrom
                   Q00  =  -0.214883

C          x =  1.097612  y = -0.154385  z =  1.522287 angstrom
           Maximum rank =  0   Radius =  0.650 angstrom
                   Q00  =   1.021634

O          x =  0.828612  y = -0.328385  z =  2.734287 angstrom
           Maximum rank =  0   Radius =  0.650 angstrom
                   Q00  =  -0.962197

O          x =  2.266612  y = -0.003385  z =  1.103287 angstrom
           Maximum rank =  0   Radius =  0.650 angstrom
                   Q00  =  -0.942994

H          x = -0.291388  y = -1.188385  z =  0.261287 angstrom
           Maximum rank =  0   Radius =  0.325 angstrom
                   Q00  =   0.050400

H          x =  0.294612  y =  0.318615  z = -0.420713 angstrom
           Maximum rank =  0   Radius =  0.325 angstrom
                   Q00  =   0.014211

H          x = -1.639388  y =  0.042615  z =  1.915287 angstrom
           Maximum rank =  0   Radius =  0.325 angstrom
                   Q00  =   0.088541

H          x = -2.083388  y =  0.427615  z =  0.271287 angstrom
           Maximum rank =  0   Radius =  0.325 angstrom
                   Q00  =   0.012058

H          x = -1.181678  y =  1.618025  z =  1.214827 angstrom
           Maximum rank =  0   Radius =  0.325 angstrom
                   Q00  =   0.064914

C          x = -0.715388  y =  0.363615  z = -3.220713 angstrom
           Maximum rank =  0   Radius =  0.650 angstrom
                   Q00  =  -0.209034

C          x = -2.059388  y = -0.281385  z = -3.507713 angstrom
           Maximum rank =  0   Radius =  0.650 angstrom
                   Q00  =  -0.242126

H          x = -0.459388  y =  1.054615  z = -4.021713 angstrom
           Maximum rank =  0   Radius =  0.325 angstrom
                   Q00  =   0.056085

H          x = -0.780388  y =  0.925615  z = -2.293713 angstrom
           Maximum rank =  0   Radius =  0.325 angstrom
                   Q00  =   0.098091

H          x =  0.060612  y = -0.397385  z = -3.131713 angstrom
           Maximum rank =  0   Radius =  0.325 angstrom
                   Q00  =   0.089553

H          x = -2.811388  y =  0.496615  z = -3.632713 angstrom
           Maximum rank =  0   Radius =  0.325 angstrom
                   Q00  =   0.065564

H          x = -2.001788  y = -0.889055  z = -4.422819 angstrom
           Maximum rank =  0   Radius =  0.325 angstrom
                   Q00  =   0.059318

H          x = -2.367258  y = -0.918815  z = -2.665754 angstrom
           Maximum rank =  0   Radius =  0.325 angstrom
                   Q00  =   0.087095

Total multipoles referred to origin at
           x =   0.000000,  y =    0.000000,  z =    0.000000 angstrom
                   Q00  =  -1.000000

Finished at 9:1:50 on 28 Apr 2020

  DMA results are available in the Python driver through the
	  variable('DMA DISTRIBUTED MULTIPOLES')
  and
	  variable('DMA TOTAL MULTIPOLES')
  commands.

    Psi4 stopped on: Tuesday, 28 April 2020 09:01AM
    Psi4 wall time for execution: 0:00:35.02

*** Psi4 exiting successfully. Buy a developer a beer!
