                               Psi4 1.3.2 release

  ==> Input File <==

--------------------------------------------------------------------------
import numpy as np
set {scf_type pk
basis cc-pvdz
d_convergence 10
gdma_switch   0
gdma_limit    0
gdma_origin   [ 0.0,  0.0,  0.0 ]
}
molecule test {
    units Angstrom
    -1 1
    --
    -1 1
    C               -1.790282734393513    -1.200778638529388     0.360348318527415
    C               -1.226282734393513    -2.446778638529388    -0.293651681472585
    C               -1.069282734393513    -0.887778638529388     1.670348318527415
    O               -1.267282734393513    -1.566778638529388     2.680348318527415
    N               -0.252282734393513     0.159221361470612     1.670348318527415
    H               -1.728282734393513    -0.345778638529388    -0.309651681472585
    H               -2.845282734393513    -1.358778638529388     0.588348318527415
    H               -1.357282734393513    -3.256778638529389     0.417348318527415
    H                0.273717265606487     0.378221361470612     2.498348318527415
    H               -0.044282734393513     0.592221361470612     0.768348318527415
    H               -0.152822734393513    -2.286707638529388    -0.472691681472585
    H               -1.721522734393513    -2.647252638529388    -1.255181681472585
    C                1.285717265606487     2.744221361470611    -2.177651681472585
    C                1.366717265606487     1.401221361470612    -1.465651681472586
    O                0.326717265606487     0.814221361470612    -1.115651681472585
    O                2.475717265606487     0.888221361470612    -1.287651681472585
    H                0.791717265606487     2.574221361470611    -3.136651681472585
    H                2.283717265606487     3.134221361470612    -2.390651681472585
    H                0.709067265606487     3.493437361470612    -1.615381681472585

}
e, wfn = energy('scf', return_wfn=True)
gdma(wfn)
dmavals = variable('DMA DISTRIBUTED MULTIPOLES')
charges = np.array(dmavals)
print(charges)
np.save('SSI-095ASN-164ASP-1-dimer.npy', np.array(charges))--------------------------------------------------------------------------

*** tstart() called on ds3
*** at Mon Apr 27 23:26:48 2020

   => Loading Basis Set <=

    Name: CC-PVDZ
    Role: ORBITAL
    Keyword: BASIS
    atoms 1-3, 13-14  entry C          line   138 file /theoryfs2/ds/metcalf/miniconda2/envs/tf2gpu/share/psi4/basis/cc-pvdz.gbs
    atoms 4, 15-16    entry O          line   198 file /theoryfs2/ds/metcalf/miniconda2/envs/tf2gpu/share/psi4/basis/cc-pvdz.gbs
    atoms 5           entry N          line   168 file /theoryfs2/ds/metcalf/miniconda2/envs/tf2gpu/share/psi4/basis/cc-pvdz.gbs
    atoms 6-12, 17-19 entry H          line    22 file /theoryfs2/ds/metcalf/miniconda2/envs/tf2gpu/share/psi4/basis/cc-pvdz.gbs

         ---------------------------------------------------------
                                   SCF
               by Justin Turney, Rob Parrish, Andy Simmonett
                          and Daniel G. A. Smith
                              RHF Reference
                        1 Threads,    500 MiB Core
         ---------------------------------------------------------

  ==> Geometry <==

    Molecular point group: c1
    Full point group: C1

    Geometry (in Angstrom), charge = -1, multiplicity = 1:

       Center              X                  Y                   Z               Mass
    ------------   -----------------  -----------------  -----------------  -----------------
         C           -1.790282734394    -1.200778638529     0.360348318527    12.000000000000
         C           -1.226282734394    -2.446778638529    -0.293651681473    12.000000000000
         C           -1.069282734394    -0.887778638529     1.670348318527    12.000000000000
         O           -1.267282734394    -1.566778638529     2.680348318527    15.994914619570
         N           -0.252282734394     0.159221361471     1.670348318527    14.003074004430
         H           -1.728282734394    -0.345778638529    -0.309651681473     1.007825032230
         H           -2.845282734394    -1.358778638529     0.588348318527     1.007825032230
         H           -1.357282734394    -3.256778638529     0.417348318527     1.007825032230
         H            0.273717265606     0.378221361471     2.498348318527     1.007825032230
         H           -0.044282734394     0.592221361471     0.768348318527     1.007825032230
         H           -0.152822734394    -2.286707638529    -0.472691681473     1.007825032230
         H           -1.721522734394    -2.647252638529    -1.255181681473     1.007825032230
         C            1.285717265606     2.744221361471    -2.177651681473    12.000000000000
         C            1.366717265606     1.401221361471    -1.465651681473    12.000000000000
         O            0.326717265606     0.814221361471    -1.115651681473    15.994914619570
         O            2.475717265606     0.888221361471    -1.287651681473    15.994914619570
         H            0.791717265606     2.574221361471    -3.136651681473     1.007825032230
         H            2.283717265606     3.134221361471    -2.390651681473     1.007825032230
         H            0.709067265606     3.493437361471    -1.615381681473     1.007825032230

  Running in c1 symmetry.

  Rotational constants: A =      0.09444  B =      0.02065  C =      0.01914 [cm^-1]
  Rotational constants: A =   2831.29156  B =    618.99613  C =    573.79761 [MHz]
  Nuclear repulsion =  436.181047775325681

  Charge       = -1
  Multiplicity = 1
  Electrons    = 72
  Nalpha       = 36
  Nbeta        = 36

  ==> Algorithm <==

  SCF Algorithm Type is PK.
  DIIS enabled.
  MOM disabled.
  Fractional occupation disabled.
  Guess Type is SAD.
  Energy threshold   = 1.00e-06
  Density threshold  = 1.00e-10
  Integral threshold = 0.00e+00

  ==> Primary Basis <==

  Basis Set: CC-PVDZ
    Blend: CC-PVDZ
    Number of shells: 84
    Number of basis function: 176
    Number of Cartesian functions: 185
    Spherical Harmonics?: true
    Max angular momentum: 2

  ==> Pre-Iterations <==

   -------------------------------------------------------
    Irrep   Nso     Nmo     Nalpha   Nbeta   Ndocc  Nsocc
   -------------------------------------------------------
     A        176     176       0       0       0       0
   -------------------------------------------------------
    Total     176     176      36      36      36       0
   -------------------------------------------------------

  ==> Integral Setup <==

  Using integral reordering PK algorithm.
  Sizing the integral batches needed.
  Building batch lookup table.
   Calculation information:
      Number of atoms:                  19
      Number of AO shells:              84
      Number of primitives:            248
      Number of atomic orbitals:       185
      Number of basis functions:       176

      Integral cutoff                 1.00e-12
      Number of threads:                 1

	Batch   1 pq = [       0,    9405] index = [             0,44231715] size =     44231715
	Batch   2 pq = [    9405,   13301] index = [      44231715,88464951] size =     44233236
	Batch   3 pq = [   13301,   15576] index = [      88464951,121313676] size =     32848725
  Task number: 11
  Buffer size: 11059200
  Buffer per thread: 2
  We computed 5153871 shell quartets total.
  Whereas there are 6374235 unique shell quartets.

  ==> DiskJK: Disk-Based J/K Matrices <==

    J tasked:                  Yes
    K tasked:                  Yes
    wK tasked:                  No
    Memory [MiB]:              375
    Schwarz Cutoff:          1E-12

    OpenMP threads:              1

  Minimum eigenvalue in the overlap matrix is 4.1323104809E-03.
  Using Symmetric Orthogonalization.

  SCF Guess: Superposition of Atomic Densities via on-the-fly atomic UHF.

  ==> Iterations <==

                        Total Energy        Delta E     RMS |[F,P]|

   @RHF iter SAD:  -472.53081338483020   -4.72531e+02   0.00000e+00
   @RHF iter   1:  -473.96361248003217   -1.43280e+00   4.79003e-03 DIIS
   @RHF iter   2:  -474.21639687532024   -2.52784e-01   2.74174e-03 DIIS
   @RHF iter   3:  -474.29916988247464   -8.27730e-02   4.25848e-04 DIIS
   @RHF iter   4:  -474.30273735876960   -3.56748e-03   1.74875e-04 DIIS
   @RHF iter   5:  -474.30334798502685   -6.10626e-04   3.42644e-05 DIIS
   @RHF iter   6:  -474.30337919414512   -3.12091e-05   1.78298e-05 DIIS
   @RHF iter   7:  -474.30338644348734   -7.24934e-06   4.99011e-06 DIIS
   @RHF iter   8:  -474.30338761522108   -1.17173e-06   2.17424e-06 DIIS
   @RHF iter   9:  -474.30338781083503   -1.95614e-07   7.77645e-07 DIIS
   @RHF iter  10:  -474.30338783443847   -2.36034e-08   2.28980e-07 DIIS
   @RHF iter  11:  -474.30338783584705   -1.40858e-09   8.48391e-08 DIIS
   @RHF iter  12:  -474.30338783599899   -1.51942e-10   2.44668e-08 DIIS
   @RHF iter  13:  -474.30338783601866   -1.96678e-11   7.98120e-09 DIIS
   @RHF iter  14:  -474.30338783602042   -1.76215e-12   2.60548e-09 DIIS
   @RHF iter  15:  -474.30338783602099   -5.68434e-13   1.07655e-09 DIIS
   @RHF iter  16:  -474.30338783602076    2.27374e-13   4.85563e-10 DIIS
   @RHF iter  17:  -474.30338783602059    1.70530e-13   2.17846e-10 DIIS
   @RHF iter  18:  -474.30338783602224   -1.64846e-12   6.98884e-11 DIIS
  Energy and wave function converged.

  ==> Post-Iterations <==

    Orbital Energies [Eh]
    ---------------------

    Doubly Occupied:

       1A    -20.365706     2A    -20.291459     3A    -20.284008
       4A    -15.428774     5A    -11.204176     6A    -11.142561
       7A    -11.101957     8A    -11.098444     9A    -11.073203
      10A     -1.227018    11A     -1.189373    12A     -1.070347
      13A     -1.060489    14A     -0.916292    15A     -0.819943
      16A     -0.749925    17A     -0.637301    18A     -0.573487
      19A     -0.530900    20A     -0.523614    21A     -0.477415
      22A     -0.459061    23A     -0.438927    24A     -0.435816
      25A     -0.431799    26A     -0.427974    27A     -0.392514
      28A     -0.372265    29A     -0.364288    30A     -0.358721
      31A     -0.336192    32A     -0.270610    33A     -0.257969
      34A     -0.216526    35A     -0.198344    36A     -0.192929

    Virtual:

      37A      0.307136    38A      0.331484    39A      0.339323
      40A      0.360700    41A      0.363683    42A      0.374536
      43A      0.381745    44A      0.399408    45A      0.410860
      46A      0.428448    47A      0.457986    48A      0.494717
      49A      0.506735    50A      0.551089    51A      0.553721
      52A      0.598759    53A      0.675632    54A      0.693649
      55A      0.720647    56A      0.753912    57A      0.760312
      58A      0.796830    59A      0.798840    60A      0.821240
      61A      0.849647    62A      0.851445    63A      0.896994
      64A      0.930978    65A      0.942131    66A      0.967255
      67A      0.971743    68A      0.987114    69A      1.001863
      70A      1.004420    71A      1.013187    72A      1.016253
      73A      1.018894    74A      1.038172    75A      1.048732
      76A      1.052637    77A      1.063794    78A      1.081573
      79A      1.100105    80A      1.126951    81A      1.164132
      82A      1.179159    83A      1.209131    84A      1.220007
      85A      1.253572    86A      1.296977    87A      1.322978
      88A      1.361268    89A      1.423021    90A      1.451321
      91A      1.475355    92A      1.513954    93A      1.515633
      94A      1.522112    95A      1.541894    96A      1.556807
      97A      1.568240    98A      1.584365    99A      1.602315
     100A      1.622932   101A      1.633672   102A      1.661081
     103A      1.677131   104A      1.705690   105A      1.734802
     106A      1.785497   107A      1.804633   108A      1.821249
     109A      1.832374   110A      1.900294   111A      1.924833
     112A      1.989700   113A      1.999238   114A      2.020550
     115A      2.030811   116A      2.035445   117A      2.055366
     118A      2.067476   119A      2.076579   120A      2.085693
     121A      2.092449   122A      2.105130   123A      2.108401
     124A      2.115798   125A      2.147401   126A      2.191822
     127A      2.192794   128A      2.219254   129A      2.256340
     130A      2.271353   131A      2.281986   132A      2.303965
     133A      2.378016   134A      2.404226   135A      2.410864
     136A      2.418235   137A      2.457804   138A      2.542670
     139A      2.557157   140A      2.589055   141A      2.621890
     142A      2.638207   143A      2.682553   144A      2.689168
     145A      2.702148   146A      2.733170   147A      2.771650
     148A      2.803577   149A      2.806787   150A      2.890189
     151A      2.892201   152A      2.916497   153A      2.934275
     154A      2.969000   155A      2.970175   156A      3.002689
     157A      3.031784   158A      3.108709   159A      3.142729
     160A      3.213868   161A      3.235972   162A      3.257056
     163A      3.265782   164A      3.278861   165A      3.342135
     166A      3.494624   167A      3.632728   168A      3.650318
     169A      3.668039   170A      3.755950   171A      3.807360
     172A      3.993075   173A      4.039283   174A      4.061121
     175A      4.101408   176A      4.203981

    Final Occupation by Irrep:
              A
    DOCC [    36 ]

  @RHF Final Energy:  -474.30338783602224

   => Energetics <=

    Nuclear Repulsion Energy =            436.1810477753256805
    One-Electron Energy =               -1527.1282122130028256
    Two-Electron Energy =                 616.6437766016549631
    Total Energy =                       -474.3033878360222388

Computation Completed

Properties will be evaluated at   0.000000,   0.000000,   0.000000 [a0]

Properties computed using the SCF density matrix

  Nuclear Dipole Moment: [e a0]
     X:    -3.5461      Y:     0.2599      Z:    -4.6044

  Electronic Dipole Moment: [e a0]
     X:     2.0816      Y:    -0.0348      Z:     4.8141

  Dipole Moment: [e a0]
     X:    -1.4644      Y:     0.2251      Z:     0.2097     Total:     1.4964

  Dipole Moment: [D]
     X:    -3.7222      Y:     0.5721      Z:     0.5330     Total:     3.8035

*** tstop() called on ds3 at Mon Apr 27 23:28:06 2020
Module time:
	user time   =      56.43 seconds =       0.94 minutes
	system time =      24.54 seconds =       0.41 minutes
	total time  =         78 seconds =       1.30 minutes
Total time:
	user time   =      56.43 seconds =       0.94 minutes
	system time =      24.54 seconds =       0.41 minutes
	total time  =         78 seconds =       1.30 minutes
                                     G D M A

                                 by Anthony Stone

                           version 2.2.06, 22 June 2011

               Distributed Multipoles from Gaussian wavefunctions

Starting at 23:28:6 on 27 Apr 2020

Using SCF density matrix from file ./SSI/SSI-095ASN-164ASP-1-dimer.test.2844.fchk

                         Distributed Multipole Analysis

Standard DMA

Positions and radii in angstrom
Multipole moments in atomic units, ea_0^k for rank k

C          x = -1.790283  y = -1.200779  z =  0.360348 angstrom
           Maximum rank =  0   Radius =  0.650 angstrom
                   Q00  =  -0.119669

C          x = -1.226283  y = -2.446779  z = -0.293652 angstrom
           Maximum rank =  0   Radius =  0.650 angstrom
                   Q00  =  -0.190408

C          x = -1.069283  y = -0.887779  z =  1.670348 angstrom
           Maximum rank =  0   Radius =  0.650 angstrom
                   Q00  =   0.838694

O          x = -1.267283  y = -1.566779  z =  2.680348 angstrom
           Maximum rank =  0   Radius =  0.650 angstrom
                   Q00  =  -0.866021

N          x = -0.252283  y =  0.159221  z =  1.670348 angstrom
           Maximum rank =  0   Radius =  0.650 angstrom
                   Q00  =  -0.538975

H          x = -1.728283  y = -0.345779  z = -0.309652 angstrom
           Maximum rank =  0   Radius =  0.325 angstrom
                   Q00  =   0.096163

H          x = -2.845283  y = -1.358779  z =  0.588348 angstrom
           Maximum rank =  0   Radius =  0.325 angstrom
                   Q00  =   0.047059

H          x = -1.357283  y = -3.256779  z =  0.417348 angstrom
           Maximum rank =  0   Radius =  0.325 angstrom
                   Q00  =   0.065571

H          x =  0.273717  y =  0.378221  z =  2.498348 angstrom
           Maximum rank =  0   Radius =  0.325 angstrom
                   Q00  =   0.184166

H          x = -0.044283  y =  0.592221  z =  0.768348 angstrom
           Maximum rank =  0   Radius =  0.325 angstrom
                   Q00  =   0.277862

H          x = -0.152823  y = -2.286708  z = -0.472692 angstrom
           Maximum rank =  0   Radius =  0.325 angstrom
                   Q00  =   0.100488

H          x = -1.721523  y = -2.647253  z = -1.255182 angstrom
           Maximum rank =  0   Radius =  0.325 angstrom
                   Q00  =   0.067078

C          x =  1.285717  y =  2.744221  z = -2.177652 angstrom
           Maximum rank =  0   Radius =  0.650 angstrom
                   Q00  =  -0.284578

C          x =  1.366717  y =  1.401221  z = -1.465652 angstrom
           Maximum rank =  0   Radius =  0.650 angstrom
                   Q00  =   0.965351

O          x =  0.326717  y =  0.814221  z = -1.115652 angstrom
           Maximum rank =  0   Radius =  0.650 angstrom
                   Q00  =  -0.956007

O          x =  2.475717  y =  0.888221  z = -1.287652 angstrom
           Maximum rank =  0   Radius =  0.650 angstrom
                   Q00  =  -0.897016

H          x =  0.791717  y =  2.574221  z = -3.136652 angstrom
           Maximum rank =  0   Radius =  0.325 angstrom
                   Q00  =   0.079730

H          x =  2.283717  y =  3.134221  z = -2.390652 angstrom
           Maximum rank =  0   Radius =  0.325 angstrom
                   Q00  =   0.062798

H          x =  0.709067  y =  3.493437  z = -1.615382 angstrom
           Maximum rank =  0   Radius =  0.325 angstrom
                   Q00  =   0.067713

Total multipoles referred to origin at
           x =   0.000000,  y =    0.000000,  z =    0.000000 angstrom
                   Q00  =  -1.000000

Finished at 23:28:6 on 27 Apr 2020

  DMA results are available in the Python driver through the
	  variable('DMA DISTRIBUTED MULTIPOLES')
  and
	  variable('DMA TOTAL MULTIPOLES')
  commands.

    Psi4 stopped on: Monday, 27 April 2020 11:28PM
    Psi4 wall time for execution: 0:01:18.50

*** Psi4 exiting successfully. Buy a developer a beer!
