                               Psi4 1.3.2 release

  ==> Input File <==

--------------------------------------------------------------------------
import numpy as np
set {scf_type pk
basis cc-pvdz
d_convergence 10
gdma_switch   0
gdma_limit    0
gdma_origin   [ 0.0,  0.0,  0.0 ]
}
molecule test {
    units Angstrom
    0 1
    --
    0 1
    C                1.039020380802833    -1.258756868601945     1.471502703203602
    C               -0.933979619197167     0.089243131398055     2.101502703203602
    N               -1.039979619197168     0.568243131398055     0.877502703203602
    N                0.018020380802833    -0.777756868601945     2.408502703203601
    N               -1.777979619197167     0.502243131398055     3.025502703203601
    H               -0.515979619197167     0.151243131398055     0.111502703203602
    H               -1.854979619197167     1.148243131398055     0.692502703203602
    H                0.075020380802833    -1.111756868601945     3.363502703203602
    H               -1.762979619197167     0.130243131398055     3.961502703203602
    H               -2.523979619197168     1.125243131398055     2.732502703203602
    H                0.604020380802833    -1.452756868601945     0.493502703203602
    H                1.435020380802833    -2.207756868601945     1.833502703203602
    H                1.853680380802833    -0.525276868601945     1.380262703203602
    C                0.418020380802833     1.606243131398055    -2.761497296796398
    C                0.709020380802833     0.136243131398055    -2.458497296796399
    O               -0.061979619197167    -0.469756868601945    -1.679497296796398
    O                1.697020380802833    -0.414756868601945    -2.994497296796399
    H                0.020020380802833     2.059243131398055    -1.855497296796398
    H               -0.357979619197167     1.676243131398055    -3.525497296796398
    H                1.312000380802833     2.155393131398055    -3.091987296796398

}
e, wfn = energy('scf', return_wfn=True)
gdma(wfn)
dmavals = variable('DMA DISTRIBUTED MULTIPOLES')
charges = np.array(dmavals)
print(charges)
np.save('SSI-010ARG-042ASP-1-dimer.npy', np.array(charges))--------------------------------------------------------------------------

*** tstart() called on ds3
*** at Mon Apr 27 16:38:20 2020

   => Loading Basis Set <=

    Name: CC-PVDZ
    Role: ORBITAL
    Keyword: BASIS
    atoms 1-2, 14-15  entry C          line   138 file /theoryfs2/ds/metcalf/miniconda2/envs/tf2gpu/share/psi4/basis/cc-pvdz.gbs
    atoms 3-5         entry N          line   168 file /theoryfs2/ds/metcalf/miniconda2/envs/tf2gpu/share/psi4/basis/cc-pvdz.gbs
    atoms 6-13, 18-20 entry H          line    22 file /theoryfs2/ds/metcalf/miniconda2/envs/tf2gpu/share/psi4/basis/cc-pvdz.gbs
    atoms 16-17       entry O          line   198 file /theoryfs2/ds/metcalf/miniconda2/envs/tf2gpu/share/psi4/basis/cc-pvdz.gbs

         ---------------------------------------------------------
                                   SCF
               by Justin Turney, Rob Parrish, Andy Simmonett
                          and Daniel G. A. Smith
                              RHF Reference
                        1 Threads,    500 MiB Core
         ---------------------------------------------------------

  ==> Geometry <==

    Molecular point group: c1
    Full point group: C1

    Geometry (in Angstrom), charge = 0, multiplicity = 1:

       Center              X                  Y                   Z               Mass
    ------------   -----------------  -----------------  -----------------  -----------------
         C            1.039020380803    -1.258756868602     1.471502703204    12.000000000000
         C           -0.933979619197     0.089243131398     2.101502703204    12.000000000000
         N           -1.039979619197     0.568243131398     0.877502703204    14.003074004430
         N            0.018020380803    -0.777756868602     2.408502703204    14.003074004430
         N           -1.777979619197     0.502243131398     3.025502703204    14.003074004430
         H           -0.515979619197     0.151243131398     0.111502703204     1.007825032230
         H           -1.854979619197     1.148243131398     0.692502703204     1.007825032230
         H            0.075020380803    -1.111756868602     3.363502703204     1.007825032230
         H           -1.762979619197     0.130243131398     3.961502703204     1.007825032230
         H           -2.523979619197     1.125243131398     2.732502703204     1.007825032230
         H            0.604020380803    -1.452756868602     0.493502703204     1.007825032230
         H            1.435020380803    -2.207756868602     1.833502703204     1.007825032230
         H            1.853680380803    -0.525276868602     1.380262703204     1.007825032230
         C            0.418020380803     1.606243131398    -2.761497296796    12.000000000000
         C            0.709020380803     0.136243131398    -2.458497296796    12.000000000000
         O           -0.061979619197    -0.469756868602    -1.679497296796    15.994914619570
         O            1.697020380803    -0.414756868602    -2.994497296796    15.994914619570
         H            0.020020380803     2.059243131398    -1.855497296796     1.007825032230
         H           -0.357979619197     1.676243131398    -3.525497296796     1.007825032230
         H            1.312000380803     2.155393131398    -3.091987296796     1.007825032230

  Running in c1 symmetry.

  Rotational constants: A =      0.09603  B =      0.02059  C =      0.01774 [cm^-1]
  Rotational constants: A =   2878.95470  B =    617.19522  C =    531.70413 [MHz]
  Nuclear repulsion =  451.332921466069251

  Charge       = 0
  Multiplicity = 1
  Electrons    = 72
  Nalpha       = 36
  Nbeta        = 36

  ==> Algorithm <==

  SCF Algorithm Type is PK.
  DIIS enabled.
  MOM disabled.
  Fractional occupation disabled.
  Guess Type is SAD.
  Energy threshold   = 1.00e-06
  Density threshold  = 1.00e-10
  Integral threshold = 0.00e+00

  ==> Primary Basis <==

  Basis Set: CC-PVDZ
    Blend: CC-PVDZ
    Number of shells: 87
    Number of basis function: 181
    Number of Cartesian functions: 190
    Spherical Harmonics?: true
    Max angular momentum: 2

  ==> Pre-Iterations <==

   -------------------------------------------------------
    Irrep   Nso     Nmo     Nalpha   Nbeta   Ndocc  Nsocc
   -------------------------------------------------------
     A        181     181       0       0       0       0
   -------------------------------------------------------
    Total     181     181      36      36      36       0
   -------------------------------------------------------

  ==> Integral Setup <==

  Using integral reordering PK algorithm.
  Sizing the integral batches needed.
  Building batch lookup table.
   Calculation information:
      Number of atoms:                  20
      Number of AO shells:              87
      Number of primitives:            253
      Number of atomic orbitals:       190
      Number of basis functions:       181

      Integral cutoff                 1.00e-12
      Number of threads:                 1

	Batch   1 pq = [       0,    9405] index = [             0,44231715] size =     44231715
	Batch   2 pq = [    9405,   13301] index = [      44231715,88464951] size =     44233236
	Batch   3 pq = [   13301,   16471] index = [      88464951,135655156] size =     47190205
  Task number: 13
  Buffer size: 11059200
  Buffer per thread: 2
  We computed 6026617 shell quartets total.
  Whereas there are 7328706 unique shell quartets.

  ==> DiskJK: Disk-Based J/K Matrices <==

    J tasked:                  Yes
    K tasked:                  Yes
    wK tasked:                  No
    Memory [MiB]:              375
    Schwarz Cutoff:          1E-12

    OpenMP threads:              1

  Minimum eigenvalue in the overlap matrix is 3.8859878789E-03.
  Using Symmetric Orthogonalization.

  SCF Guess: Superposition of Atomic Densities via on-the-fly atomic UHF.

  ==> Iterations <==

                        Total Energy        Delta E     RMS |[F,P]|

   @RHF iter SAD:  -469.65908714439200   -4.69659e+02   0.00000e+00
   @RHF iter   1:  -470.66453299730119   -1.00545e+00   4.30640e-03 DIIS
   @RHF iter   2:  -470.89922171319211   -2.34689e-01   2.29591e-03 DIIS
   @RHF iter   3:  -470.96153206028549   -6.23103e-02   4.07663e-04 DIIS
   @RHF iter   4:  -470.96502397925178   -3.49192e-03   1.49205e-04 DIIS
   @RHF iter   5:  -470.96547249710346   -4.48518e-04   3.02950e-05 DIIS
   @RHF iter   6:  -470.96549907268314   -2.65756e-05   1.58797e-05 DIIS
   @RHF iter   7:  -470.96550412680796   -5.05412e-06   4.07751e-06 DIIS
   @RHF iter   8:  -470.96550492270802   -7.95900e-07   1.94853e-06 DIIS
   @RHF iter   9:  -470.96550505940331   -1.36695e-07   7.13184e-07 DIIS
   @RHF iter  10:  -470.96550508653377   -2.71305e-08   2.31833e-07 DIIS
   @RHF iter  11:  -470.96550508898855   -2.45478e-09   6.29217e-08 DIIS
   @RHF iter  12:  -470.96550508910735   -1.18803e-10   2.00307e-08 DIIS
   @RHF iter  13:  -470.96550508911662   -9.26548e-12   4.64874e-09 DIIS
   @RHF iter  14:  -470.96550508912054   -3.92220e-12   1.29710e-09 DIIS
   @RHF iter  15:  -470.96550508912236   -1.81899e-12   4.38923e-10 DIIS
   @RHF iter  16:  -470.96550508911980    2.55795e-12   1.53357e-10 DIIS
   @RHF iter  17:  -470.96550508912162   -1.81899e-12   6.61746e-11 DIIS
  Energy and wave function converged.

  ==> Post-Iterations <==

    Orbital Energies [Eh]
    ---------------------

    Doubly Occupied:

       1A    -20.404523     2A    -20.381828     3A    -15.675907
       4A    -15.661372     5A    -15.639211     6A    -11.459112
       7A    -11.300341     8A    -11.244625     9A    -11.163767
      10A     -1.420167    11A     -1.282116    12A     -1.281136
      13A     -1.254901    14A     -1.166133    15A     -1.008939
      16A     -0.910914    17A     -0.903252    18A     -0.853086
      19A     -0.814045    20A     -0.734263    21A     -0.715938
      22A     -0.697485    23A     -0.662472    24A     -0.625238
      25A     -0.612609    26A     -0.582847    27A     -0.533646
      28A     -0.527894    29A     -0.523940    30A     -0.488820
      31A     -0.466572    32A     -0.456583    33A     -0.431194
      34A     -0.318820    35A     -0.296713    36A     -0.293668

    Virtual:

      37A      0.094207    38A      0.133626    39A      0.152898
      40A      0.155752    41A      0.202669    42A      0.206153
      43A      0.240295    44A      0.259686    45A      0.284568
      46A      0.303445    47A      0.312972    48A      0.321601
      49A      0.366849    50A      0.372994    51A      0.407901
      52A      0.453049    53A      0.466705    54A      0.471309
      55A      0.575042    56A      0.579624    57A      0.605227
      58A      0.617798    59A      0.639042    60A      0.653118
      61A      0.656281    62A      0.668735    63A      0.686137
      64A      0.702798    65A      0.717349    66A      0.767896
      67A      0.791483    68A      0.815224    69A      0.835067
      70A      0.842477    71A      0.849508    72A      0.854264
      73A      0.869155    74A      0.887733    75A      0.913225
      76A      0.923704    77A      0.924544    78A      0.934233
      79A      0.945914    80A      0.972089    81A      0.980118
      82A      1.006294    83A      1.007497    84A      1.034312
      85A      1.054977    86A      1.095571    87A      1.107599
      88A      1.147508    89A      1.174445    90A      1.221310
      91A      1.233800    92A      1.247159    93A      1.255564
      94A      1.275613    95A      1.301282    96A      1.333495
      97A      1.355332    98A      1.372985    99A      1.431241
     100A      1.447133   101A      1.452170   102A      1.474244
     103A      1.491966   104A      1.538320   105A      1.562253
     106A      1.585601   107A      1.609535   108A      1.632545
     109A      1.653585   110A      1.670017   111A      1.693585
     112A      1.718313   113A      1.724118   114A      1.729409
     115A      1.733072   116A      1.770994   117A      1.819715
     118A      1.840078   119A      1.883434   120A      1.894065
     121A      1.904815   122A      1.924532   123A      1.938244
     124A      1.949804   125A      1.958216   126A      1.968475
     127A      1.986951   128A      1.997873   129A      2.031549
     130A      2.066120   131A      2.093791   132A      2.120447
     133A      2.129956   134A      2.153980   135A      2.159084
     136A      2.229954   137A      2.271464   138A      2.283940
     139A      2.302978   140A      2.310326   141A      2.318560
     142A      2.340963   143A      2.377827   144A      2.415505
     145A      2.432215   146A      2.467414   147A      2.499804
     148A      2.505522   149A      2.554240   150A      2.565467
     151A      2.597203   152A      2.608885   153A      2.642310
     154A      2.689052   155A      2.735244   156A      2.757544
     157A      2.799489   158A      2.810983   159A      2.846565
     160A      2.861821   161A      2.868212   162A      2.886858
     163A      2.924842   164A      2.933160   165A      2.954143
     166A      3.017055   167A      3.117003   168A      3.140837
     169A      3.166904   170A      3.187860   171A      3.211999
     172A      3.230384   173A      3.306667   174A      3.504896
     175A      3.645297   176A      3.692829   177A      3.701995
     178A      3.751245   179A      3.940538   180A      3.970657
     181A      4.066349

    Final Occupation by Irrep:
              A
    DOCC [    36 ]

  @RHF Final Energy:  -470.96550508912162

   => Energetics <=

    Nuclear Repulsion Energy =            451.3329214660692514
    One-Electron Energy =               -1539.0086945127868603
    Two-Electron Energy =                 616.7102679575958746
    Total Energy =                       -470.9655050891216206

Computation Completed

Properties will be evaluated at   0.000000,   0.000000,   0.000000 [a0]

Properties computed using the SCF density matrix

  Nuclear Dipole Moment: [e a0]
     X:    -1.5928      Y:     2.9463      Z:     5.6738

  Electronic Dipole Moment: [e a0]
     X:    -1.2300      Y:    -2.0160      Z:     1.1581

  Dipole Moment: [e a0]
     X:    -2.8228      Y:     0.9303      Z:     6.8320     Total:     7.4505

  Dipole Moment: [D]
     X:    -7.1750      Y:     2.3646      Z:    17.3651     Total:    18.9372

*** tstop() called on ds3 at Mon Apr 27 16:39:38 2020
Module time:
	user time   =      54.53 seconds =       0.91 minutes
	system time =      27.63 seconds =       0.46 minutes
	total time  =         78 seconds =       1.30 minutes
Total time:
	user time   =      54.53 seconds =       0.91 minutes
	system time =      27.63 seconds =       0.46 minutes
	total time  =         78 seconds =       1.30 minutes
                                     G D M A

                                 by Anthony Stone

                           version 2.2.06, 22 June 2011

               Distributed Multipoles from Gaussian wavefunctions

Starting at 16:39:38 on 27 Apr 2020

Using SCF density matrix from file ./SSI/SSI-010ARG-042ASP-1-dimer.test.27524.fchk

                         Distributed Multipole Analysis

Standard DMA

Positions and radii in angstrom
Multipole moments in atomic units, ea_0^k for rank k

C          x =  1.039020  y = -1.258757  z =  1.471503 angstrom
           Maximum rank =  0   Radius =  0.650 angstrom
                   Q00  =  -0.090816

C          x = -0.933980  y =  0.089243  z =  2.101503 angstrom
           Maximum rank =  0   Radius =  0.650 angstrom
                   Q00  =   1.074522

N          x = -1.039980  y =  0.568243  z =  0.877503 angstrom
           Maximum rank =  0   Radius =  0.650 angstrom
                   Q00  =  -0.574862

N          x =  0.018020  y = -0.777757  z =  2.408503 angstrom
           Maximum rank =  0   Radius =  0.650 angstrom
                   Q00  =  -0.490041

N          x = -1.777980  y =  0.502243  z =  3.025503 angstrom
           Maximum rank =  0   Radius =  0.650 angstrom
                   Q00  =  -0.592529

H          x = -0.515980  y =  0.151243  z =  0.111503 angstrom
           Maximum rank =  0   Radius =  0.325 angstrom
                   Q00  =   0.306826

H          x = -1.854980  y =  1.148243  z =  0.692503 angstrom
           Maximum rank =  0   Radius =  0.325 angstrom
                   Q00  =   0.235684

H          x =  0.075020  y = -1.111757  z =  3.363503 angstrom
           Maximum rank =  0   Radius =  0.325 angstrom
                   Q00  =   0.204789

H          x = -1.762980  y =  0.130243  z =  3.961503 angstrom
           Maximum rank =  0   Radius =  0.325 angstrom
                   Q00  =   0.248367

H          x = -2.523980  y =  1.125243  z =  2.732503 angstrom
           Maximum rank =  0   Radius =  0.325 angstrom
                   Q00  =   0.246003

H          x =  0.604020  y = -1.452757  z =  0.493503 angstrom
           Maximum rank =  0   Radius =  0.325 angstrom
                   Q00  =   0.135596

H          x =  1.435020  y = -2.207757  z =  1.833503 angstrom
           Maximum rank =  0   Radius =  0.325 angstrom
                   Q00  =   0.128141

H          x =  1.853680  y = -0.525277  z =  1.380263 angstrom
           Maximum rank =  0   Radius =  0.325 angstrom
                   Q00  =   0.118619

C          x =  0.418020  y =  1.606243  z = -2.761497 angstrom
           Maximum rank =  0   Radius =  0.650 angstrom
                   Q00  =  -0.276956

C          x =  0.709020  y =  0.136243  z = -2.458497 angstrom
           Maximum rank =  0   Radius =  0.650 angstrom
                   Q00  =   0.916393

O          x = -0.061980  y = -0.469757  z = -1.679497 angstrom
           Maximum rank =  0   Radius =  0.650 angstrom
                   Q00  =  -0.943544

O          x =  1.697020  y = -0.414757  z = -2.994497 angstrom
           Maximum rank =  0   Radius =  0.650 angstrom
                   Q00  =  -0.873714

H          x =  0.020020  y =  2.059243  z = -1.855497 angstrom
           Maximum rank =  0   Radius =  0.325 angstrom
                   Q00  =   0.039682

H          x = -0.357980  y =  1.676243  z = -3.525497 angstrom
           Maximum rank =  0   Radius =  0.325 angstrom
                   Q00  =   0.101893

H          x =  1.312000  y =  2.155393  z = -3.091987 angstrom
           Maximum rank =  0   Radius =  0.325 angstrom
                   Q00  =   0.085948

Total multipoles referred to origin at
           x =   0.000000,  y =    0.000000,  z =    0.000000 angstrom
                   Q00  =  -0.000000

Finished at 16:39:38 on 27 Apr 2020

  DMA results are available in the Python driver through the
	  variable('DMA DISTRIBUTED MULTIPOLES')
  and
	  variable('DMA TOTAL MULTIPOLES')
  commands.

    Psi4 stopped on: Monday, 27 April 2020 04:39PM
    Psi4 wall time for execution: 0:01:18.85

*** Psi4 exiting successfully. Buy a developer a beer!
