                               Psi4 1.3.2 release

  ==> Input File <==

--------------------------------------------------------------------------
import numpy as np
set {scf_type pk
basis cc-pvdz
d_convergence 10
gdma_switch   0
gdma_limit    0
gdma_origin   [ 0.0,  0.0,  0.0 ]
}
molecule test {
    units Angstrom
    0 1
    --
    0 1
    C               -1.324759953701401     2.336558386394432    -1.115500490536405
    C               -1.119759953701401    -1.796441613605569    -0.012500490536406
    C               -1.755759953701401    -0.891441613605569     0.815499509463595
    C               -0.558759953701401    -1.363441613605568    -1.204500490536405
    C               -1.828759953701401     0.450558386394431     0.452499509463594
    C               -0.630759953701401    -0.016441613605569    -1.566500490536405
    C               -1.271759953701401     0.890558386394431    -0.743500490536406
    H               -1.060759953701401    -2.837441613605568     0.272499509463594
    H               -2.195759953701401    -1.223441613605569     1.746499509463595
    H               -0.057759953701401    -2.064441613605569    -1.855500490536405
    H               -2.325759953701401     1.153558386394431     1.106499509463595
    H               -0.187759953701401     0.311558386394431    -2.496500490536406
    H               -0.496759953701401     2.580558386394431    -1.772500490536405
    H               -1.193759953701401     2.921558386394431    -0.204500490536406
    H               -2.267919953701401     2.640848386394432    -1.592850490536405
    C                2.164240046298599    -0.290441613605569     1.326499509463595
    C                2.553240046298599     1.145558386394431     1.700499509463595
    C                2.874240046298599    -0.790441613605569     0.077499509463594
    H                2.368240046298599    -0.972441613605569     2.153499509463594
    H                1.090240046298599    -0.321441613605569     1.149499509463594
    H                2.016240046298599     1.393558386394431     2.616499509463595
    H                3.952240046298599    -0.836441613605569     0.223499509463594
    H                2.523240046298599    -1.798441613605569    -0.141500490536406
    H                2.641240046298599    -0.164441613605569    -0.783500490536405
    H                3.637000046298599     1.226608386394431     1.870489509463595
    H                2.257270046298599     1.864958386394431     0.922769509463594

}
e, wfn = energy('scf', return_wfn=True)
gdma(wfn)
dmavals = variable('DMA DISTRIBUTED MULTIPOLES')
charges = np.array(dmavals)
print(charges)
np.save('SSI-030PHE-151ILE-1-dimer.npy', np.array(charges))--------------------------------------------------------------------------

*** tstart() called on ds3
*** at Mon Apr 27 21:28:34 2020

   => Loading Basis Set <=

    Name: CC-PVDZ
    Role: ORBITAL
    Keyword: BASIS
    atoms 1-7, 16-18  entry C          line   138 file /theoryfs2/ds/metcalf/miniconda2/envs/tf2gpu/share/psi4/basis/cc-pvdz.gbs
    atoms 8-15, 19-26 entry H          line    22 file /theoryfs2/ds/metcalf/miniconda2/envs/tf2gpu/share/psi4/basis/cc-pvdz.gbs

         ---------------------------------------------------------
                                   SCF
               by Justin Turney, Rob Parrish, Andy Simmonett
                          and Daniel G. A. Smith
                              RHF Reference
                        1 Threads,    500 MiB Core
         ---------------------------------------------------------

  ==> Geometry <==

    Molecular point group: c1
    Full point group: C1

    Geometry (in Angstrom), charge = 0, multiplicity = 1:

       Center              X                  Y                   Z               Mass
    ------------   -----------------  -----------------  -----------------  -----------------
         C           -1.324759953701     2.336558386394    -1.115500490536    12.000000000000
         C           -1.119759953701    -1.796441613606    -0.012500490536    12.000000000000
         C           -1.755759953701    -0.891441613606     0.815499509464    12.000000000000
         C           -0.558759953701    -1.363441613606    -1.204500490536    12.000000000000
         C           -1.828759953701     0.450558386394     0.452499509464    12.000000000000
         C           -0.630759953701    -0.016441613606    -1.566500490536    12.000000000000
         C           -1.271759953701     0.890558386394    -0.743500490536    12.000000000000
         H           -1.060759953701    -2.837441613606     0.272499509464     1.007825032230
         H           -2.195759953701    -1.223441613606     1.746499509464     1.007825032230
         H           -0.057759953701    -2.064441613606    -1.855500490536     1.007825032230
         H           -2.325759953701     1.153558386394     1.106499509464     1.007825032230
         H           -0.187759953701     0.311558386394    -2.496500490536     1.007825032230
         H           -0.496759953701     2.580558386394    -1.772500490536     1.007825032230
         H           -1.193759953701     2.921558386394    -0.204500490536     1.007825032230
         H           -2.267919953701     2.640848386394    -1.592850490536     1.007825032230
         C            2.164240046299    -0.290441613606     1.326499509464    12.000000000000
         C            2.553240046299     1.145558386394     1.700499509464    12.000000000000
         C            2.874240046299    -0.790441613606     0.077499509464    12.000000000000
         H            2.368240046299    -0.972441613606     2.153499509464     1.007825032230
         H            1.090240046299    -0.321441613606     1.149499509464     1.007825032230
         H            2.016240046299     1.393558386394     2.616499509464     1.007825032230
         H            3.952240046299    -0.836441613606     0.223499509464     1.007825032230
         H            2.523240046299    -1.798441613606    -0.141500490536     1.007825032230
         H            2.641240046299    -0.164441613606    -0.783500490536     1.007825032230
         H            3.637000046299     1.226608386394     1.870489509464     1.007825032230
         H            2.257270046299     1.864958386394     0.922769509464     1.007825032230

  Running in c1 symmetry.

  Rotational constants: A =      0.04915  B =      0.02696  C =      0.02327 [cm^-1]
  Rotational constants: A =   1473.35328  B =    808.19033  C =    697.70501 [MHz]
  Nuclear repulsion =  505.749907003314604

  Charge       = 0
  Multiplicity = 1
  Electrons    = 76
  Nalpha       = 38
  Nbeta        = 38

  ==> Algorithm <==

  SCF Algorithm Type is PK.
  DIIS enabled.
  MOM disabled.
  Fractional occupation disabled.
  Guess Type is SAD.
  Energy threshold   = 1.00e-06
  Density threshold  = 1.00e-10
  Integral threshold = 0.00e+00

  ==> Primary Basis <==

  Basis Set: CC-PVDZ
    Blend: CC-PVDZ
    Number of shells: 108
    Number of basis function: 220
    Number of Cartesian functions: 230
    Spherical Harmonics?: true
    Max angular momentum: 2

  ==> Pre-Iterations <==

   -------------------------------------------------------
    Irrep   Nso     Nmo     Nalpha   Nbeta   Ndocc  Nsocc
   -------------------------------------------------------
     A        220     220       0       0       0       0
   -------------------------------------------------------
    Total     220     220      38      38      38       0
   -------------------------------------------------------

  ==> Integral Setup <==

  Using integral reordering PK algorithm.
  Sizing the integral batches needed.
  Building batch lookup table.
   Calculation information:
      Number of atoms:                  26
      Number of AO shells:             108
      Number of primitives:            300
      Number of atomic orbitals:       230
      Number of basis functions:       220

      Integral cutoff                 1.00e-12
      Number of threads:                 1

	Batch   1 pq = [       0,    9405] index = [             0,44231715] size =     44231715
	Batch   2 pq = [    9405,   13301] index = [      44231715,88464951] size =     44233236
	Batch   3 pq = [   13301,   16290] index = [      88464951,132690195] size =     44225244
	Batch   4 pq = [   16290,   18810] index = [     132690195,176917455] size =     44227260
	Batch   5 pq = [   18810,   21030] index = [     176917455,221140965] size =     44223510
	Batch   6 pq = [   21030,   23037] index = [     221140965,265363203] size =     44222238
	Batch   7 pq = [   23037,   24310] index = [     265363203,295500205] size =     30137002
  Task number: 27
  Buffer size: 11059200
  Buffer per thread: 2
  We computed 17682326 shell quartets total.
  Whereas there are 17325441 unique shell quartets.
     2.06 percent of shell quartets recomputed by reordering.

  ==> DiskJK: Disk-Based J/K Matrices <==

    J tasked:                  Yes
    K tasked:                  Yes
    wK tasked:                  No
    Memory [MiB]:              375
    Schwarz Cutoff:          1E-12

    OpenMP threads:              1

  Minimum eigenvalue in the overlap matrix is 3.0382805451E-04.
  Using Symmetric Orthogonalization.

  SCF Guess: Superposition of Atomic Densities via on-the-fly atomic UHF.

  ==> Iterations <==

                        Total Energy        Delta E     RMS |[F,P]|

   @RHF iter SAD:  -386.95901383410876   -3.86959e+02   0.00000e+00
   @RHF iter   1:  -387.76969122908440   -8.10677e-01   2.77712e-03 DIIS
   @RHF iter   2:  -387.99023416717631   -2.20543e-01   1.18763e-03 DIIS
   @RHF iter   3:  -388.02704036460557   -3.68062e-02   2.54515e-04 DIIS
   @RHF iter   4:  -388.02996201618760   -2.92165e-03   5.89467e-05 DIIS
   @RHF iter   5:  -388.03007061914036   -1.08603e-04   1.84135e-05 DIIS
   @RHF iter   6:  -388.03008105976022   -1.04406e-05   5.22640e-06 DIIS
   @RHF iter   7:  -388.03008202148766   -9.61727e-07   1.12183e-06 DIIS
   @RHF iter   8:  -388.03008207820426   -5.67166e-08   2.92775e-07 DIIS
   @RHF iter   9:  -388.03008208573345   -7.52920e-09   1.19909e-07 DIIS
   @RHF iter  10:  -388.03008208749270   -1.75925e-09   6.23961e-08 DIIS
   @RHF iter  11:  -388.03008208807029   -5.77586e-10   2.40442e-08 DIIS
   @RHF iter  12:  -388.03008208816169   -9.14042e-11   1.02182e-08 DIIS
   @RHF iter  13:  -388.03008208817027   -8.58336e-12   3.78471e-09 DIIS
   @RHF iter  14:  -388.03008208817334   -3.06954e-12   9.64128e-10 DIIS
   @RHF iter  15:  -388.03008208817278    5.68434e-13   2.96657e-10 DIIS
   @RHF iter  16:  -388.03008208817141    1.36424e-12   1.23614e-10 DIIS
   @RHF iter  17:  -388.03008208817266   -1.25056e-12   5.82857e-11 DIIS
  Energy and wave function converged.

  ==> Post-Iterations <==

    Orbital Energies [Eh]
    ---------------------

    Doubly Occupied:

       1A    -11.239801     2A    -11.236368     3A    -11.236050
       4A    -11.231354     5A    -11.230947     6A    -11.230792
       7A    -11.228469     8A    -11.210184     9A    -11.207571
      10A    -11.204890    11A     -1.157770    12A     -1.049826
      13A     -1.043420    14A     -1.013175    15A     -0.933915
      16A     -0.917094    17A     -0.828596    18A     -0.796783
      19A     -0.787253    20A     -0.693581    21A     -0.634774
      22A     -0.631257    23A     -0.615838    24A     -0.585642
      25A     -0.583511    26A     -0.578588    27A     -0.566083
      28A     -0.543666    29A     -0.536187    30A     -0.525195
      31A     -0.491966    32A     -0.487216    33A     -0.483194
      34A     -0.465409    35A     -0.457734    36A     -0.453442
      37A     -0.333534    38A     -0.325700

    Virtual:

      39A      0.132862    40A      0.140449    41A      0.169636
      42A      0.192347    43A      0.204341    44A      0.208652
      45A      0.237995    46A      0.245923    47A      0.248905
      48A      0.251202    49A      0.260063    50A      0.261879
      51A      0.281774    52A      0.283501    53A      0.293170
      54A      0.307774    55A      0.314811    56A      0.317998
      57A      0.369883    58A      0.378832    59A      0.379127
      60A      0.432298    61A      0.452559    62A      0.463561
      63A      0.481857    64A      0.492795    65A      0.563931
      66A      0.574410    67A      0.589557    68A      0.598722
      69A      0.600849    70A      0.624957    71A      0.636441
      72A      0.655623    73A      0.683418    74A      0.693100
      75A      0.696885    76A      0.737351    77A      0.742100
      78A      0.746571    79A      0.756467    80A      0.766554
      81A      0.774034    82A      0.782430    83A      0.800230
      84A      0.816402    85A      0.839881    86A      0.849980
      87A      0.856796    88A      0.861408    89A      0.862792
      90A      0.875844    91A      0.888891    92A      0.895679
      93A      0.896894    94A      0.901008    95A      0.911515
      96A      0.912971    97A      0.918390    98A      0.921761
      99A      0.927658   100A      0.942100   101A      0.943551
     102A      0.958856   103A      0.977658   104A      0.985842
     105A      0.996412   106A      1.007965   107A      1.041562
     108A      1.110560   109A      1.127496   110A      1.133863
     111A      1.141234   112A      1.149353   113A      1.156869
     114A      1.165896   115A      1.191497   116A      1.234788
     117A      1.245011   118A      1.247264   119A      1.259165
     120A      1.297139   121A      1.308790   122A      1.317225
     123A      1.327723   124A      1.341748   125A      1.399218
     126A      1.421468   127A      1.473930   128A      1.486929
     129A      1.502128   130A      1.514153   131A      1.529295
     132A      1.565491   133A      1.599644   134A      1.658836
     135A      1.680137   136A      1.690775   137A      1.693206
     138A      1.698369   139A      1.706723   140A      1.731712
     141A      1.759007   142A      1.775624   143A      1.799141
     144A      1.830658   145A      1.857465   146A      1.871101
     147A      1.881468   148A      1.887350   149A      1.890800
     150A      1.898842   151A      1.910742   152A      1.918184
     153A      1.926361   154A      1.932961   155A      1.945144
     156A      1.952254   157A      1.953094   158A      1.968856
     159A      1.974171   160A      1.979434   161A      1.989644
     162A      1.994415   163A      2.000527   164A      2.004453
     165A      2.010324   166A      2.025585   167A      2.041447
     168A      2.071434   169A      2.079087   170A      2.093760
     171A      2.115839   172A      2.142709   173A      2.147345
     174A      2.151013   175A      2.156077   176A      2.173841
     177A      2.182090   178A      2.186646   179A      2.257855
     180A      2.277384   181A      2.295095   182A      2.301796
     183A      2.310952   184A      2.320939   185A      2.325605
     186A      2.337192   187A      2.344586   188A      2.368423
     189A      2.471883   190A      2.479737   191A      2.496563
     192A      2.503386   193A      2.542385   194A      2.548845
     195A      2.590526   196A      2.614935   197A      2.627145
     198A      2.638548   199A      2.746125   200A      2.756237
     201A      2.764927   202A      2.776786   203A      2.782277
     204A      2.790257   205A      2.807398   206A      2.810137
     207A      2.843101   208A      2.857176   209A      2.879260
     210A      2.941888   211A      2.985005   212A      2.993002
     213A      3.005160   214A      3.024625   215A      3.031537
     216A      3.093613   217A      3.165600   218A      3.211711
     219A      3.303949   220A      3.984996

    Final Occupation by Irrep:
              A
    DOCC [    38 ]

  @RHF Final Energy:  -388.03008208817266

   => Energetics <=

    Nuclear Repulsion Energy =            505.7499070033146040
    One-Electron Energy =               -1526.0064323494016207
    Two-Electron Energy =                 632.2264432579144113
    Total Energy =                       -388.0300820881726622

Computation Completed

Properties will be evaluated at   0.000000,   0.000000,   0.000000 [a0]

Properties computed using the SCF density matrix

  Nuclear Dipole Moment: [e a0]
     X:    10.0304      Y:     3.6324      Z:     3.0139

  Electronic Dipole Moment: [e a0]
     X:   -10.1818      Y:    -3.5513      Z:    -3.0571

  Dipole Moment: [e a0]
     X:    -0.1514      Y:     0.0811      Z:    -0.0432     Total:     0.1770

  Dipole Moment: [D]
     X:    -0.3847      Y:     0.2060      Z:    -0.1098     Total:     0.4500

*** tstop() called on ds3 at Mon Apr 27 21:32:11 2020
Module time:
	user time   =     122.97 seconds =       2.05 minutes
	system time =      42.97 seconds =       0.72 minutes
	total time  =        217 seconds =       3.62 minutes
Total time:
	user time   =     122.97 seconds =       2.05 minutes
	system time =      42.97 seconds =       0.72 minutes
	total time  =        217 seconds =       3.62 minutes
                                     G D M A

                                 by Anthony Stone

                           version 2.2.06, 22 June 2011

               Distributed Multipoles from Gaussian wavefunctions

Starting at 21:32:11 on 27 Apr 2020

Using SCF density matrix from file ./SSI/SSI-030PHE-151ILE-1-dimer.test.9312.fchk

                         Distributed Multipole Analysis

Standard DMA

Positions and radii in angstrom
Multipole moments in atomic units, ea_0^k for rank k

C          x = -1.324760  y =  2.336558  z = -1.115500 angstrom
           Maximum rank =  0   Radius =  0.650 angstrom
                   Q00  =  -0.198677

C          x = -1.119760  y = -1.796442  z = -0.012500 angstrom
           Maximum rank =  0   Radius =  0.650 angstrom
                   Q00  =  -0.085007

C          x = -1.755760  y = -0.891442  z =  0.815500 angstrom
           Maximum rank =  0   Radius =  0.650 angstrom
                   Q00  =  -0.068535

C          x = -0.558760  y = -1.363442  z = -1.204500 angstrom
           Maximum rank =  0   Radius =  0.650 angstrom
                   Q00  =  -0.067550

C          x = -1.828760  y =  0.450558  z =  0.452500 angstrom
           Maximum rank =  0   Radius =  0.650 angstrom
                   Q00  =  -0.000986

C          x = -0.630760  y = -0.016442  z = -1.566500 angstrom
           Maximum rank =  0   Radius =  0.650 angstrom
                   Q00  =  -0.082612

C          x = -1.271760  y =  0.890558  z = -0.743500 angstrom
           Maximum rank =  0   Radius =  0.650 angstrom
                   Q00  =  -0.098142

H          x = -1.060760  y = -2.837442  z =  0.272500 angstrom
           Maximum rank =  0   Radius =  0.325 angstrom
                   Q00  =   0.060504

H          x = -2.195760  y = -1.223442  z =  1.746500 angstrom
           Maximum rank =  0   Radius =  0.325 angstrom
                   Q00  =   0.064825

H          x = -0.057760  y = -2.064442  z = -1.855500 angstrom
           Maximum rank =  0   Radius =  0.325 angstrom
                   Q00  =   0.065896

H          x = -2.325760  y =  1.153558  z =  1.106500 angstrom
           Maximum rank =  0   Radius =  0.325 angstrom
                   Q00  =   0.056815

H          x = -0.187760  y =  0.311558  z = -2.496500 angstrom
           Maximum rank =  0   Radius =  0.325 angstrom
                   Q00  =   0.058416

H          x = -0.496760  y =  2.580558  z = -1.772500 angstrom
           Maximum rank =  0   Radius =  0.325 angstrom
                   Q00  =   0.098780

H          x = -1.193760  y =  2.921558  z = -0.204500 angstrom
           Maximum rank =  0   Radius =  0.325 angstrom
                   Q00  =   0.096623

H          x = -2.267920  y =  2.640848  z = -1.592850 angstrom
           Maximum rank =  0   Radius =  0.325 angstrom
                   Q00  =   0.104846

C          x =  2.164240  y = -0.290442  z =  1.326500 angstrom
           Maximum rank =  0   Radius =  0.650 angstrom
                   Q00  =  -0.062716

C          x =  2.553240  y =  1.145558  z =  1.700500 angstrom
           Maximum rank =  0   Radius =  0.650 angstrom
                   Q00  =  -0.257706

C          x =  2.874240  y = -0.790442  z =  0.077500 angstrom
           Maximum rank =  0   Radius =  0.650 angstrom
                   Q00  =  -0.244504

H          x =  2.368240  y = -0.972442  z =  2.153500 angstrom
           Maximum rank =  0   Radius =  0.325 angstrom
                   Q00  =   0.042188

H          x =  1.090240  y = -0.321442  z =  1.149500 angstrom
           Maximum rank =  0   Radius =  0.325 angstrom
                   Q00  =   0.066529

H          x =  2.016240  y =  1.393558  z =  2.616500 angstrom
           Maximum rank =  0   Radius =  0.325 angstrom
                   Q00  =   0.079061

H          x =  3.952240  y = -0.836442  z =  0.223500 angstrom
           Maximum rank =  0   Radius =  0.325 angstrom
                   Q00  =   0.070763

H          x =  2.523240  y = -1.798442  z = -0.141500 angstrom
           Maximum rank =  0   Radius =  0.325 angstrom
                   Q00  =   0.076935

H          x =  2.641240  y = -0.164442  z = -0.783500 angstrom
           Maximum rank =  0   Radius =  0.325 angstrom
                   Q00  =   0.075533

H          x =  3.637000  y =  1.226608  z =  1.870490 angstrom
           Maximum rank =  0   Radius =  0.325 angstrom
                   Q00  =   0.072516

H          x =  2.257270  y =  1.864958  z =  0.922770 angstrom
           Maximum rank =  0   Radius =  0.325 angstrom
                   Q00  =   0.076203

Total multipoles referred to origin at
           x =   0.000000,  y =    0.000000,  z =    0.000000 angstrom
                   Q00  =  -0.000000

Finished at 21:32:11 on 27 Apr 2020

  DMA results are available in the Python driver through the
	  variable('DMA DISTRIBUTED MULTIPOLES')
  and
	  variable('DMA TOTAL MULTIPOLES')
  commands.

    Psi4 stopped on: Monday, 27 April 2020 09:32PM
    Psi4 wall time for execution: 0:03:36.56

*** Psi4 exiting successfully. Buy a developer a beer!
