                               Psi4 1.3.2 release

  ==> Input File <==

--------------------------------------------------------------------------
import numpy as np
set {scf_type pk
basis cc-pvdz
d_convergence 10
gdma_switch   0
gdma_limit    0
gdma_origin   [ 0.0,  0.0,  0.0 ]
}
molecule test {
    units Angstrom
    0 1
    --
    0 1
    C                0.149986022808929    -1.426057110368757     0.556143398059888
    C                1.143986022808929    -1.690057110368757    -0.566856601940113
    C               -1.091013977191071    -2.239057110368757     0.190143398059888
    H               -0.064013977191071    -0.365057110368757     0.651143398059887
    H                0.546986022808929    -1.796057110368757     1.497143398059887
    H                0.900986022808929    -1.072057110368757    -1.430856601940113
    H                2.169986022808929    -1.520057110368757    -0.246856601940113
    H               -1.494013977191071    -2.697057110368757     1.094143398059888
    H                0.952076022808929    -2.752877110368757    -0.775616601940113
    H               -0.697103977191071    -3.016287110368757    -0.481236601940113
    H               -1.872523977191071    -1.619937110368757    -0.274556601940113
    C                0.197986022808929     2.249942889631242    -0.656856601940113
    C               -0.394013977191071     3.019942889631242     0.511143398059888
    H                0.307986022808929     2.898942889631243    -1.525856601940113
    H                1.191986022808929     1.888942889631243    -0.386856601940113
    H               -0.433013977191071     1.397942889631243    -0.915856601940113
    H                0.179986022808929     3.933942889631243     0.639143398059887
    H               -1.443473977191071     3.269232889631242     0.295523398059887
    H               -0.328363977191071     2.465862889631243     1.459133398059887

}
e, wfn = energy('scf', return_wfn=True)
gdma(wfn)
dmavals = variable('DMA DISTRIBUTED MULTIPOLES')
charges = np.array(dmavals)
print(charges)
np.save('SSI-128PRO-275LEU-1-dimer.npy', np.array(charges))--------------------------------------------------------------------------

*** tstart() called on ds3
*** at Tue Apr 28 04:27:48 2020

   => Loading Basis Set <=

    Name: CC-PVDZ
    Role: ORBITAL
    Keyword: BASIS
    atoms 1-3, 12-13  entry C          line   138 file /theoryfs2/ds/metcalf/miniconda2/envs/tf2gpu/share/psi4/basis/cc-pvdz.gbs
    atoms 4-11, 14-19 entry H          line    22 file /theoryfs2/ds/metcalf/miniconda2/envs/tf2gpu/share/psi4/basis/cc-pvdz.gbs

         ---------------------------------------------------------
                                   SCF
               by Justin Turney, Rob Parrish, Andy Simmonett
                          and Daniel G. A. Smith
                              RHF Reference
                        1 Threads,    500 MiB Core
         ---------------------------------------------------------

  ==> Geometry <==

    Molecular point group: c1
    Full point group: C1

    Geometry (in Angstrom), charge = 0, multiplicity = 1:

       Center              X                  Y                   Z               Mass
    ------------   -----------------  -----------------  -----------------  -----------------
         C            0.149986022809    -1.426057110369     0.556143398060    12.000000000000
         C            1.143986022809    -1.690057110369    -0.566856601940    12.000000000000
         C           -1.091013977191    -2.239057110369     0.190143398060    12.000000000000
         H           -0.064013977191    -0.365057110369     0.651143398060     1.007825032230
         H            0.546986022809    -1.796057110369     1.497143398060     1.007825032230
         H            0.900986022809    -1.072057110369    -1.430856601940     1.007825032230
         H            2.169986022809    -1.520057110369    -0.246856601940     1.007825032230
         H           -1.494013977191    -2.697057110369     1.094143398060     1.007825032230
         H            0.952076022809    -2.752877110369    -0.775616601940     1.007825032230
         H           -0.697103977191    -3.016287110369    -0.481236601940     1.007825032230
         H           -1.872523977191    -1.619937110369    -0.274556601940     1.007825032230
         C            0.197986022809     2.249942889631    -0.656856601940    12.000000000000
         C           -0.394013977191     3.019942889631     0.511143398060    12.000000000000
         H            0.307986022809     2.898942889631    -1.525856601940     1.007825032230
         H            1.191986022809     1.888942889631    -0.386856601940     1.007825032230
         H           -0.433013977191     1.397942889631    -0.915856601940     1.007825032230
         H            0.179986022809     3.933942889631     0.639143398060     1.007825032230
         H           -1.443473977191     3.269232889631     0.295523398060     1.007825032230
         H           -0.328363977191     2.465862889631     1.459133398060     1.007825032230

  Running in c1 symmetry.

  Rotational constants: A =      0.21418  B =      0.04336  C =      0.03933 [cm^-1]
  Rotational constants: A =   6420.80930  B =   1300.04792  C =   1178.97105 [MHz]
  Nuclear repulsion =  180.458877487519572

  Charge       = 0
  Multiplicity = 1
  Electrons    = 44
  Nalpha       = 22
  Nbeta        = 22

  ==> Algorithm <==

  SCF Algorithm Type is PK.
  DIIS enabled.
  MOM disabled.
  Fractional occupation disabled.
  Guess Type is SAD.
  Energy threshold   = 1.00e-06
  Density threshold  = 1.00e-10
  Integral threshold = 0.00e+00

  ==> Primary Basis <==

  Basis Set: CC-PVDZ
    Blend: CC-PVDZ
    Number of shells: 72
    Number of basis function: 140
    Number of Cartesian functions: 145
    Spherical Harmonics?: true
    Max angular momentum: 2

  ==> Pre-Iterations <==

   -------------------------------------------------------
    Irrep   Nso     Nmo     Nalpha   Nbeta   Ndocc  Nsocc
   -------------------------------------------------------
     A        140     140       0       0       0       0
   -------------------------------------------------------
    Total     140     140      22      22      22       0
   -------------------------------------------------------

  ==> Integral Setup <==

  Using integral reordering PK algorithm.
  Sizing the integral batches needed.
  Building batch lookup table.
   Calculation information:
      Number of atoms:                  19
      Number of AO shells:              72
      Number of primitives:            180
      Number of atomic orbitals:       145
      Number of basis functions:       140

      Integral cutoff                 1.00e-12
      Number of threads:                 1

	Batch   1 pq = [       0,    9405] index = [             0,44231715] size =     44231715
	Batch   2 pq = [    9405,    9870] index = [      44231715,48713385] size =      4481670
  Task number: 5
  Buffer size: 11059200
  Buffer per thread: 2
  We computed 2923291 shell quartets total.
  Whereas there are 3454506 unique shell quartets.

  ==> DiskJK: Disk-Based J/K Matrices <==

    J tasked:                  Yes
    K tasked:                  Yes
    wK tasked:                  No
    Memory [MiB]:              375
    Schwarz Cutoff:          1E-12

    OpenMP threads:              1

  Minimum eigenvalue in the overlap matrix is 5.0668565891E-03.
  Using Symmetric Orthogonalization.

  SCF Guess: Superposition of Atomic Densities via on-the-fly atomic UHF.

  ==> Iterations <==

                        Total Energy        Delta E     RMS |[F,P]|

   @RHF iter SAD:  -196.48857218052044   -1.96489e+02   0.00000e+00
   @RHF iter   1:  -197.29147008120518   -8.02898e-01   3.84600e-03 DIIS
   @RHF iter   2:  -197.45299088573279   -1.61521e-01   1.67212e-03 DIIS
   @RHF iter   3:  -197.48236474497770   -2.93739e-02   3.27723e-04 DIIS
   @RHF iter   4:  -197.48458018028367   -2.21544e-03   4.92064e-05 DIIS
   @RHF iter   5:  -197.48462002002907   -3.98397e-05   1.53242e-05 DIIS
   @RHF iter   6:  -197.48462360432433   -3.58430e-06   2.50544e-06 DIIS
   @RHF iter   7:  -197.48462372144311   -1.17119e-07   4.66758e-07 DIIS
   @RHF iter   8:  -197.48462372577075   -4.32763e-09   1.12533e-07 DIIS
   @RHF iter   9:  -197.48462372600946   -2.38714e-10   3.45638e-08 DIIS
   @RHF iter  10:  -197.48462372603549   -2.60343e-11   7.54239e-09 DIIS
   @RHF iter  11:  -197.48462372603709   -1.59162e-12   1.45962e-09 DIIS
   @RHF iter  12:  -197.48462372603717   -8.52651e-14   2.88882e-10 DIIS
   @RHF iter  13:  -197.48462372603777   -5.96856e-13   4.95174e-11 DIIS
  Energy and wave function converged.

  ==> Post-Iterations <==

    Orbital Energies [Eh]
    ---------------------

    Doubly Occupied:

       1A    -11.219394     2A    -11.217835     3A    -11.214197
       4A    -11.213581     5A    -11.212846     6A     -1.063012
       7A     -1.021767     8A     -0.914293     9A     -0.837760
      10A     -0.798015    11A     -0.636552    12A     -0.612456
      13A     -0.601588    14A     -0.596992    15A     -0.540786
      16A     -0.513399    17A     -0.505499    18A     -0.487523
      19A     -0.483719    20A     -0.476772    21A     -0.467043
      22A     -0.460827

    Virtual:

      23A      0.168031    24A      0.196702    25A      0.216431
      26A      0.219683    27A      0.236217    28A      0.241998
      29A      0.254963    30A      0.269089    31A      0.275225
      32A      0.283789    33A      0.291636    34A      0.321845
      35A      0.340203    36A      0.343840    37A      0.382244
      38A      0.399752    39A      0.431530    40A      0.571842
      41A      0.575933    42A      0.601149    43A      0.615647
      44A      0.628157    45A      0.638099    46A      0.656737
      47A      0.665568    48A      0.680462    49A      0.763712
      50A      0.777454    51A      0.827294    52A      0.839803
      53A      0.852510    54A      0.868506    55A      0.875000
      56A      0.881280    57A      0.892172    58A      0.895730
      59A      0.902603    60A      0.909045    61A      0.911934
      62A      0.921224    63A      0.930323    64A      0.941614
      65A      0.948417    66A      0.969864    67A      0.994958
      68A      1.050849    69A      1.077034    70A      1.116330
      71A      1.121342    72A      1.137539    73A      1.230241
      74A      1.243953    75A      1.384137    76A      1.455851
      77A      1.480207    78A      1.483800    79A      1.491938
      80A      1.576486    81A      1.608834    82A      1.626287
      83A      1.637204    84A      1.685381    85A      1.692132
      86A      1.729485    87A      1.735259    88A      1.803316
      89A      1.854007    90A      1.861333    91A      1.868186
      92A      1.886590    93A      1.897023    94A      1.904003
      95A      1.918280    96A      1.939440    97A      1.942653
      98A      1.948177    99A      1.955480   100A      1.957197
     101A      1.968589   102A      1.974771   103A      2.007504
     104A      2.012925   105A      2.025468   106A      2.059914
     107A      2.077796   108A      2.103095   109A      2.136728
     110A      2.171086   111A      2.216539   112A      2.241030
     113A      2.305755   114A      2.308387   115A      2.317877
     116A      2.328744   117A      2.425408   118A      2.440444
     119A      2.449133   120A      2.461121   121A      2.520171
     122A      2.554310   123A      2.562899   124A      2.584388
     125A      2.644999   126A      2.698688   127A      2.759291
     128A      2.761973   129A      2.782994   130A      2.790022
     131A      2.797946   132A      2.842866   133A      2.847782
     134A      2.861382   135A      2.867448   136A      2.917118
     137A      2.937580   138A      2.954907   139A      2.970180
     140A      3.069756

    Final Occupation by Irrep:
              A
    DOCC [    22 ]

  @RHF Final Energy:  -197.48462372603777

   => Energetics <=

    Nuclear Repulsion Energy =            180.4588774875195725
    One-Electron Energy =                -621.6952900567348479
    Two-Electron Energy =                 243.7517888431775361
    Total Energy =                       -197.4846237260377677

Computation Completed

Properties will be evaluated at   0.000000,   0.000000,   0.000000 [a0]

Properties computed using the SCF density matrix

  Nuclear Dipole Moment: [e a0]
     X:    -0.0774      Y:     0.9520      Z:    -0.3764

  Electronic Dipole Moment: [e a0]
     X:     0.0973      Y:    -0.9003      Z:     0.4117

  Dipole Moment: [e a0]
     X:     0.0199      Y:     0.0517      Z:     0.0354     Total:     0.0657

  Dipole Moment: [D]
     X:     0.0506      Y:     0.1313      Z:     0.0899     Total:     0.1670

*** tstop() called on ds3 at Tue Apr 28 04:28:15 2020
Module time:
	user time   =      15.40 seconds =       0.26 minutes
	system time =       5.88 seconds =       0.10 minutes
	total time  =         27 seconds =       0.45 minutes
Total time:
	user time   =      15.40 seconds =       0.26 minutes
	system time =       5.88 seconds =       0.10 minutes
	total time  =         27 seconds =       0.45 minutes
                                     G D M A

                                 by Anthony Stone

                           version 2.2.06, 22 June 2011

               Distributed Multipoles from Gaussian wavefunctions

Starting at 4:28:15 on 28 Apr 2020

Using SCF density matrix from file ./SSI/SSI-128PRO-275LEU-1-dimer.test.27626.fchk

                         Distributed Multipole Analysis

Standard DMA

Positions and radii in angstrom
Multipole moments in atomic units, ea_0^k for rank k

C          x =  0.149986  y = -1.426057  z =  0.556143 angstrom
           Maximum rank =  0   Radius =  0.650 angstrom
                   Q00  =  -0.102687

C          x =  1.143986  y = -1.690057  z = -0.566857 angstrom
           Maximum rank =  0   Radius =  0.650 angstrom
                   Q00  =  -0.226910

C          x = -1.091014  y = -2.239057  z =  0.190143 angstrom
           Maximum rank =  0   Radius =  0.650 angstrom
                   Q00  =  -0.221540

H          x = -0.064014  y = -0.365057  z =  0.651143 angstrom
           Maximum rank =  0   Radius =  0.325 angstrom
                   Q00  =   0.057051

H          x =  0.546986  y = -1.796057  z =  1.497143 angstrom
           Maximum rank =  0   Radius =  0.325 angstrom
                   Q00  =   0.054195

H          x =  0.900986  y = -1.072057  z = -1.430857 angstrom
           Maximum rank =  0   Radius =  0.325 angstrom
                   Q00  =   0.080149

H          x =  2.169986  y = -1.520057  z = -0.246857 angstrom
           Maximum rank =  0   Radius =  0.325 angstrom
                   Q00  =   0.082367

H          x = -1.494014  y = -2.697057  z =  1.094143 angstrom
           Maximum rank =  0   Radius =  0.325 angstrom
                   Q00  =   0.085674

H          x =  0.952076  y = -2.752877  z = -0.775617 angstrom
           Maximum rank =  0   Radius =  0.325 angstrom
                   Q00  =   0.048446

H          x = -0.697104  y = -3.016287  z = -0.481237 angstrom
           Maximum rank =  0   Radius =  0.325 angstrom
                   Q00  =   0.062156

H          x = -1.872524  y = -1.619937  z = -0.274557 angstrom
           Maximum rank =  0   Radius =  0.325 angstrom
                   Q00  =   0.081329

C          x =  0.197986  y =  2.249943  z = -0.656857 angstrom
           Maximum rank =  0   Radius =  0.650 angstrom
                   Q00  =  -0.226098

C          x = -0.394014  y =  3.019943  z =  0.511143 angstrom
           Maximum rank =  0   Radius =  0.650 angstrom
                   Q00  =  -0.244639

H          x =  0.307986  y =  2.898943  z = -1.525857 angstrom
           Maximum rank =  0   Radius =  0.325 angstrom
                   Q00  =   0.080855

H          x =  1.191986  y =  1.888943  z = -0.386857 angstrom
           Maximum rank =  0   Radius =  0.325 angstrom
                   Q00  =   0.077605

H          x = -0.433014  y =  1.397943  z = -0.915857 angstrom
           Maximum rank =  0   Radius =  0.325 angstrom
                   Q00  =   0.076603

H          x =  0.179986  y =  3.933943  z =  0.639143 angstrom
           Maximum rank =  0   Radius =  0.325 angstrom
                   Q00  =   0.078191

H          x = -1.443474  y =  3.269233  z =  0.295523 angstrom
           Maximum rank =  0   Radius =  0.325 angstrom
                   Q00  =   0.077855

H          x = -0.328364  y =  2.465863  z =  1.459133 angstrom
           Maximum rank =  0   Radius =  0.325 angstrom
                   Q00  =   0.079399

Total multipoles referred to origin at
           x =   0.000000,  y =    0.000000,  z =    0.000000 angstrom
                   Q00  =  -0.000000

Finished at 4:28:15 on 28 Apr 2020

  DMA results are available in the Python driver through the
	  variable('DMA DISTRIBUTED MULTIPOLES')
  and
	  variable('DMA TOTAL MULTIPOLES')
  commands.

    Psi4 stopped on: Tuesday, 28 April 2020 04:28AM
    Psi4 wall time for execution: 0:00:27.23

*** Psi4 exiting successfully. Buy a developer a beer!
