                               Psi4 1.3.2 release

  ==> Input File <==

--------------------------------------------------------------------------
import numpy as np
set {scf_type pk
basis cc-pvdz
d_convergence 10
gdma_switch   0
gdma_limit    0
gdma_origin   [ 0.0,  0.0,  0.0 ]
}
molecule test {
    units Angstrom
    0 1
    --
    0 1
    C                3.796232189540239    -1.264641816676130    -3.189331955420185
    C                0.517232189540239    -0.609641816676130    -0.457331955420185
    C                1.823232189540239    -0.445641816676130    -0.004331955420185
    C                0.288232189540239    -0.967641816676130    -1.779331955420185
    C                2.896232189540239    -0.646641816676130    -0.879331955420185
    C                1.352232189540239    -1.168641816676131    -2.646331955420185
    C                2.667232189540239    -1.048641816676130    -2.202331955420185
    H               -0.311767810459761    -0.465641816676130     0.217668044579815
    H                1.997232189540239    -0.149641816676130     1.017668044579815
    H               -0.723767810459761    -1.065641816676130    -2.144331955420185
    H                3.898232189540239    -0.487641816676130    -0.519331955420185
    H                1.150232189540239    -1.427641816676131    -3.674331955420185
    H                4.053232189540239    -0.296641816676130    -3.620331955420185
    H                3.431232189540239    -1.898641816676130    -3.998331955420185
    H                4.704102189540239    -1.727549816676130    -2.775231955420185
    C               -3.259767810459761     1.452358183323870    -0.360331955420185
    C               -2.462767810459761     1.107358183323869     0.873668044579815
    C               -1.336767810459761     1.862358183323870     1.202668044579815
    C               -2.823767810459761     0.024358183323870     1.686668044579815
    C               -0.558767810459761     1.539358183323870     2.312668044579815
    C               -2.050767810459761    -0.310641816676130     2.797668044579815
    C               -0.914767810459761     0.449358183323870     3.114668044579815
    H               -3.706767810459761     0.534358183323870    -0.741331955420185
    H               -2.575767810459761     1.812358183323869    -1.127331955420185
    H               -1.050767810459761     2.698358183323870     0.580668044579815
    H               -3.694767810459761    -0.567641816676130     1.446668044579815
    H                0.319232189540239     2.123358183323870     2.551668044579815
    H               -2.327767810459761    -1.151641816676131     3.416668044579815
    H               -0.317767810459761     0.191358183323870     3.975668044579815
    H               -4.049579810459761     2.199846183323870    -0.194621955420185

}
e, wfn = energy('scf', return_wfn=True)
gdma(wfn)
dmavals = variable('DMA DISTRIBUTED MULTIPOLES')
charges = np.array(dmavals)
print(charges)
np.save('SSI-021PHE-082PHE-1-dimer.npy', np.array(charges))--------------------------------------------------------------------------

*** tstart() called on ds3
*** at Tue Apr 28 07:50:17 2020

   => Loading Basis Set <=

    Name: CC-PVDZ
    Role: ORBITAL
    Keyword: BASIS
    atoms 1-7, 16-22  entry C          line   138 file /theoryfs2/ds/metcalf/miniconda2/envs/tf2gpu/share/psi4/basis/cc-pvdz.gbs
    atoms 8-15, 23-30 entry H          line    22 file /theoryfs2/ds/metcalf/miniconda2/envs/tf2gpu/share/psi4/basis/cc-pvdz.gbs

         ---------------------------------------------------------
                                   SCF
               by Justin Turney, Rob Parrish, Andy Simmonett
                          and Daniel G. A. Smith
                              RHF Reference
                        1 Threads,    500 MiB Core
         ---------------------------------------------------------

  ==> Geometry <==

    Molecular point group: c1
    Full point group: C1

    Geometry (in Angstrom), charge = 0, multiplicity = 1:

       Center              X                  Y                   Z               Mass
    ------------   -----------------  -----------------  -----------------  -----------------
         C            3.796232189540    -1.264641816676    -3.189331955420    12.000000000000
         C            0.517232189540    -0.609641816676    -0.457331955420    12.000000000000
         C            1.823232189540    -0.445641816676    -0.004331955420    12.000000000000
         C            0.288232189540    -0.967641816676    -1.779331955420    12.000000000000
         C            2.896232189540    -0.646641816676    -0.879331955420    12.000000000000
         C            1.352232189540    -1.168641816676    -2.646331955420    12.000000000000
         C            2.667232189540    -1.048641816676    -2.202331955420    12.000000000000
         H           -0.311767810460    -0.465641816676     0.217668044580     1.007825032230
         H            1.997232189540    -0.149641816676     1.017668044580     1.007825032230
         H           -0.723767810460    -1.065641816676    -2.144331955420     1.007825032230
         H            3.898232189540    -0.487641816676    -0.519331955420     1.007825032230
         H            1.150232189540    -1.427641816676    -3.674331955420     1.007825032230
         H            4.053232189540    -0.296641816676    -3.620331955420     1.007825032230
         H            3.431232189540    -1.898641816676    -3.998331955420     1.007825032230
         H            4.704102189540    -1.727549816676    -2.775231955420     1.007825032230
         C           -3.259767810460     1.452358183324    -0.360331955420    12.000000000000
         C           -2.462767810460     1.107358183324     0.873668044580    12.000000000000
         C           -1.336767810460     1.862358183324     1.202668044580    12.000000000000
         C           -2.823767810460     0.024358183324     1.686668044580    12.000000000000
         C           -0.558767810460     1.539358183324     2.312668044580    12.000000000000
         C           -2.050767810460    -0.310641816676     2.797668044580    12.000000000000
         C           -0.914767810460     0.449358183324     3.114668044580    12.000000000000
         H           -3.706767810460     0.534358183324    -0.741331955420     1.007825032230
         H           -2.575767810460     1.812358183324    -1.127331955420     1.007825032230
         H           -1.050767810460     2.698358183324     0.580668044580     1.007825032230
         H           -3.694767810460    -0.567641816676     1.446668044580     1.007825032230
         H            0.319232189540     2.123358183324     2.551668044580     1.007825032230
         H           -2.327767810460    -1.151641816676     3.416668044580     1.007825032230
         H           -0.317767810460     0.191358183324     3.975668044580     1.007825032230
         H           -4.049579810460     2.199846183324    -0.194621955420     1.007825032230

  Running in c1 symmetry.

  Rotational constants: A =      0.04510  B =      0.01038  C =      0.00935 [cm^-1]
  Rotational constants: A =   1351.93175  B =    311.14237  C =    280.34749 [MHz]
  Nuclear repulsion =  781.848334768707900

  Charge       = 0
  Multiplicity = 1
  Electrons    = 100
  Nalpha       = 50
  Nbeta        = 50

  ==> Algorithm <==

  SCF Algorithm Type is PK.
  DIIS enabled.
  MOM disabled.
  Fractional occupation disabled.
  Guess Type is SAD.
  Energy threshold   = 1.00e-06
  Density threshold  = 1.00e-10
  Integral threshold = 0.00e+00

  ==> Primary Basis <==

  Basis Set: CC-PVDZ
    Blend: CC-PVDZ
    Number of shells: 132
    Number of basis function: 276
    Number of Cartesian functions: 290
    Spherical Harmonics?: true
    Max angular momentum: 2

  ==> Pre-Iterations <==

   -------------------------------------------------------
    Irrep   Nso     Nmo     Nalpha   Nbeta   Ndocc  Nsocc
   -------------------------------------------------------
     A        276     276       0       0       0       0
   -------------------------------------------------------
    Total     276     276      50      50      50       0
   -------------------------------------------------------

  ==> Integral Setup <==

  Using integral reordering PK algorithm.
  Sizing the integral batches needed.
  Building batch lookup table.
   Calculation information:
      Number of atoms:                  30
      Number of AO shells:             132
      Number of primitives:            388
      Number of atomic orbitals:       290
      Number of basis functions:       276

      Integral cutoff                 1.00e-12
      Number of threads:                 1

	Batch   1 pq = [       0,    9405] index = [             0,44231715] size =     44231715
	Batch   2 pq = [    9405,   13301] index = [      44231715,88464951] size =     44233236
	Batch   3 pq = [   13301,   16290] index = [      88464951,132690195] size =     44225244
	Batch   4 pq = [   16290,   18810] index = [     132690195,176917455] size =     44227260
	Batch   5 pq = [   18810,   21030] index = [     176917455,221140965] size =     44223510
	Batch   6 pq = [   21030,   23037] index = [     221140965,265363203] size =     44222238
	Batch   7 pq = [   23037,   24883] index = [     265363203,309594286] size =     44231083
	Batch   8 pq = [   24883,   26601] index = [     309594286,353819901] size =     44225615
	Batch   9 pq = [   26601,   28214] index = [     353819901,398029005] size =     44209104
	Batch  10 pq = [   28214,   29740] index = [     398029005,442248670] size =     44219665
	Batch  11 pq = [   29740,   31191] index = [     442248670,486454836] size =     44206166
	Batch  12 pq = [   31191,   32578] index = [     486454836,530679331] size =     44224495
	Batch  13 pq = [   32578,   33908] index = [     530679331,574893186] size =     44213855
	Batch  14 pq = [   33908,   35188] index = [     574893186,619115266] size =     44222080
	Batch  15 pq = [   35188,   36423] index = [     619115266,663335676] size =     44220410
	Batch  16 pq = [   36423,   37617] index = [     663335676,707538153] size =     44202477
	Batch  17 pq = [   37617,   38226] index = [     707538153,730632651] size =     23094498
  Task number: 67
  Buffer size: 11059200
  Buffer per thread: 2
  We computed 37771802 shell quartets total.
  Whereas there are 38531031 unique shell quartets.

  ==> DiskJK: Disk-Based J/K Matrices <==

    J tasked:                  Yes
    K tasked:                  Yes
    wK tasked:                  No
    Memory [MiB]:              375
    Schwarz Cutoff:          1E-12

    OpenMP threads:              1

  Minimum eigenvalue in the overlap matrix is 3.0196705139E-04.
  Using Symmetric Orthogonalization.

  SCF Guess: Superposition of Atomic Densities via on-the-fly atomic UHF.

  ==> Iterations <==

                        Total Energy        Delta E     RMS |[F,P]|

   @RHF iter SAD:  -538.32875761516402   -5.38329e+02   0.00000e+00
   @RHF iter   1:  -539.23052890246811   -9.01771e-01   2.28242e-03 DIIS
   @RHF iter   2:  -539.47965344587146   -2.49125e-01   9.15207e-04 DIIS
   @RHF iter   3:  -539.51481852262350   -3.51651e-02   2.12078e-04 DIIS
   @RHF iter   4:  -539.51788520362129   -3.06668e-03   4.85999e-05 DIIS
   @RHF iter   5:  -539.51800194632631   -1.16743e-04   1.48671e-05 DIIS
   @RHF iter   6:  -539.51801280542679   -1.08591e-05   4.56911e-06 DIIS
   @RHF iter   7:  -539.51801396017868   -1.15475e-06   1.13094e-06 DIIS
   @RHF iter   8:  -539.51801408226902   -1.22090e-07   4.18811e-07 DIIS
   @RHF iter   9:  -539.51801411096608   -2.86971e-08   2.05933e-07 DIIS
   @RHF iter  10:  -539.51801411803126   -7.06518e-09   1.00552e-07 DIIS
   @RHF iter  11:  -539.51801412035798   -2.32671e-09   3.45202e-08 DIIS
   @RHF iter  12:  -539.51801412053931   -1.81331e-10   1.46344e-08 DIIS
   @RHF iter  13:  -539.51801412056534   -2.60343e-11   4.25777e-09 DIIS
   @RHF iter  14:  -539.51801412056739   -2.04636e-12   9.49773e-10 DIIS
   @RHF iter  15:  -539.51801412056625    1.13687e-12   3.76049e-10 DIIS
   @RHF iter  16:  -539.51801412056466    1.59162e-12   1.31188e-10 DIIS
   @RHF iter  17:  -539.51801412056386    7.95808e-13   5.98579e-11 DIIS
  Energy and wave function converged.

  ==> Post-Iterations <==

    Orbital Energies [Eh]
    ---------------------

    Doubly Occupied:

       1A    -11.244116     2A    -11.240524     3A    -11.239318
       4A    -11.236776     5A    -11.236310     6A    -11.235554
       7A    -11.232575     8A    -11.230696     9A    -11.227271
      10A    -11.226498    11A    -11.226104    12A    -11.225464
      13A    -11.223049    14A    -11.218778    15A     -1.153062
      16A     -1.144276    17A     -1.044343    18A     -1.035912
      19A     -1.014039    20A     -1.004084    21A     -0.932197
      22A     -0.925100    23A     -0.826052    24A     -0.816794
      25A     -0.798002    26A     -0.788809    27A     -0.692428
      28A     -0.683850    29A     -0.633427    30A     -0.631696
      31A     -0.624193    32A     -0.622282    33A     -0.585739
      34A     -0.580151    35A     -0.575477    36A     -0.571637
      37A     -0.563592    38A     -0.555047    39A     -0.535694
      40A     -0.530367    41A     -0.489622    42A     -0.486406
      43A     -0.484559    44A     -0.480542    45A     -0.477745
      46A     -0.468516    47A     -0.337009    48A     -0.325230
      49A     -0.324462    50A     -0.311272

    Virtual:

      51A      0.130334    52A      0.133746    53A      0.144732
      54A      0.150396    55A      0.174428    56A      0.190241
      57A      0.194184    58A      0.211863    59A      0.221835
      60A      0.230482    61A      0.242703    62A      0.251962
      63A      0.255973    64A      0.263740    65A      0.270158
      66A      0.281051    67A      0.286390    68A      0.290606
      69A      0.299063    70A      0.315967    71A      0.360750
      72A      0.372960    73A      0.374418    74A      0.381757
      75A      0.447542    76A      0.455609    77A      0.458166
      78A      0.463429    79A      0.480740    80A      0.486084
      81A      0.486894    82A      0.496964    83A      0.556850
      84A      0.560756    85A      0.584590    86A      0.609132
      87A      0.636112    88A      0.639484    89A      0.666254
      90A      0.672921    91A      0.680088    92A      0.690985
      93A      0.698687    94A      0.706528    95A      0.718728
      96A      0.726054    97A      0.728675    98A      0.733293
      99A      0.739449   100A      0.740335   101A      0.744408
     102A      0.749635   103A      0.751281   104A      0.761277
     105A      0.768939   106A      0.779552   107A      0.787665
     108A      0.796482   109A      0.812911   110A      0.830164
     111A      0.841888   112A      0.850971   113A      0.863148
     114A      0.866807   115A      0.871609   116A      0.874208
     117A      0.883227   118A      0.883731   119A      0.888865
     120A      0.894107   121A      0.895279   122A      0.909770
     123A      0.918387   124A      0.925673   125A      0.931956
     126A      0.934049   127A      0.945229   128A      0.947807
     129A      0.961653   130A      0.972555   131A      0.984962
     132A      1.008142   133A      1.018919   134A      1.026141
     135A      1.051172   136A      1.104512   137A      1.117693
     138A      1.128996   139A      1.143714   140A      1.151074
     141A      1.156213   142A      1.166067   143A      1.175659
     144A      1.186136   145A      1.195354   146A      1.220299
     147A      1.232707   148A      1.232835   149A      1.243464
     150A      1.248249   151A      1.252929   152A      1.263525
     153A      1.286077   154A      1.296758   155A      1.301061
     156A      1.302864   157A      1.314752   158A      1.319531
     159A      1.327223   160A      1.329586   161A      1.337653
     162A      1.381241   163A      1.420530   164A      1.440079
     165A      1.502815   166A      1.509944   167A      1.513693
     168A      1.550089   169A      1.558740   170A      1.570629
     171A      1.597652   172A      1.606650   173A      1.665637
     174A      1.690003   175A      1.699150   176A      1.706613
     177A      1.728868   178A      1.744370   179A      1.749160
     180A      1.754115   181A      1.759797   182A      1.766893
     183A      1.789558   184A      1.803325   185A      1.824256
     186A      1.828144   187A      1.852417   188A      1.865205
     189A      1.876376   190A      1.884622   191A      1.893207
     192A      1.901725   193A      1.910795   194A      1.914760
     195A      1.921541   196A      1.927487   197A      1.935677
     198A      1.939101   199A      1.944848   200A      1.945949
     201A      1.953344   202A      1.961466   203A      1.966029
     204A      1.973636   205A      1.980647   206A      1.991581
     207A      1.999804   208A      2.006228   209A      2.041984
     210A      2.057206   211A      2.058089   212A      2.077253
     213A      2.083180   214A      2.086920   215A      2.107694
     216A      2.124245   217A      2.139516   218A      2.144370
     219A      2.148848   220A      2.158793   221A      2.167021
     222A      2.169600   223A      2.175701   224A      2.187575
     225A      2.193611   226A      2.222688   227A      2.256067
     228A      2.267622   229A      2.275155   230A      2.278198
     231A      2.288047   232A      2.296929   233A      2.300027
     234A      2.305488   235A      2.316336   236A      2.318993
     237A      2.340459   238A      2.379826   239A      2.455766
     240A      2.469541   241A      2.474407   242A      2.480535
     243A      2.486086   244A      2.497019   245A      2.541840
     246A      2.553022   247A      2.614233   248A      2.638691
     249A      2.741186   250A      2.748250   251A      2.754027
     252A      2.762724   253A      2.773783   254A      2.775064
     255A      2.780148   256A      2.801474   257A      2.822043
     258A      2.823728   259A      2.846399   260A      2.868125
     261A      2.868829   262A      2.873942   263A      2.977135
     264A      2.995547   265A      3.003161   266A      3.016565
     267A      3.031068   268A      3.033345   269A      3.142400
     270A      3.168326   271A      3.188059   272A      3.221387
     273A      3.286263   274A      3.310560   275A      3.947656
     276A      3.973469

    Final Occupation by Irrep:
              A
    DOCC [    50 ]

  @RHF Final Energy:  -539.51801412056386

   => Energetics <=

    Nuclear Repulsion Energy =            781.8483347687079004
    One-Electron Energy =               -2280.1394051542301895
    Two-Electron Energy =                 958.7730562649584272
    Total Energy =                       -539.5180141205638620

Computation Completed

Properties will be evaluated at   0.000000,   0.000000,   0.000000 [a0]

Properties computed using the SCF density matrix

  Nuclear Dipole Moment: [e a0]
     X:     0.7451      Y:     0.3012      Z:    -5.2390

  Electronic Dipole Moment: [e a0]
     X:    -0.8285      Y:    -0.1963      Z:     5.1566

  Dipole Moment: [e a0]
     X:    -0.0835      Y:     0.1050      Z:    -0.0824     Total:     0.1574

  Dipole Moment: [D]
     X:    -0.2122      Y:     0.2668      Z:    -0.2095     Total:     0.4001

*** tstop() called on ds3 at Tue Apr 28 08:00:27 2020
Module time:
	user time   =     307.86 seconds =       5.13 minutes
	system time =     124.88 seconds =       2.08 minutes
	total time  =        610 seconds =      10.17 minutes
Total time:
	user time   =     307.86 seconds =       5.13 minutes
	system time =     124.88 seconds =       2.08 minutes
	total time  =        610 seconds =      10.17 minutes
                                     G D M A

                                 by Anthony Stone

                           version 2.2.06, 22 June 2011

               Distributed Multipoles from Gaussian wavefunctions

Starting at 8:0:27 on 28 Apr 2020

Using SCF density matrix from file ./SSI/SSI-021PHE-082PHE-1-dimer.test.7407.fchk

                         Distributed Multipole Analysis

Standard DMA

Positions and radii in angstrom
Multipole moments in atomic units, ea_0^k for rank k

C          x =  3.796232  y = -1.264642  z = -3.189332 angstrom
           Maximum rank =  0   Radius =  0.650 angstrom
                   Q00  =  -0.213990

C          x =  0.517232  y = -0.609642  z = -0.457332 angstrom
           Maximum rank =  0   Radius =  0.650 angstrom
                   Q00  =  -0.066785

C          x =  1.823232  y = -0.445642  z = -0.004332 angstrom
           Maximum rank =  0   Radius =  0.650 angstrom
                   Q00  =  -0.076164

C          x =  0.288232  y = -0.967642  z = -1.779332 angstrom
           Maximum rank =  0   Radius =  0.650 angstrom
                   Q00  =  -0.043766

C          x =  2.896232  y = -0.646642  z = -0.879332 angstrom
           Maximum rank =  0   Radius =  0.650 angstrom
                   Q00  =  -0.093884

C          x =  1.352232  y = -1.168642  z = -2.646332 angstrom
           Maximum rank =  0   Radius =  0.650 angstrom
                   Q00  =  -0.005393

C          x =  2.667232  y = -1.048642  z = -2.202332 angstrom
           Maximum rank =  0   Radius =  0.650 angstrom
                   Q00  =  -0.100342

H          x = -0.311768  y = -0.465642  z =  0.217668 angstrom
           Maximum rank =  0   Radius =  0.325 angstrom
                   Q00  =   0.072867

H          x =  1.997232  y = -0.149642  z =  1.017668 angstrom
           Maximum rank =  0   Radius =  0.325 angstrom
                   Q00  =   0.058825

H          x = -0.723768  y = -1.065642  z = -2.144332 angstrom
           Maximum rank =  0   Radius =  0.325 angstrom
                   Q00  =   0.055590

H          x =  3.898232  y = -0.487642  z = -0.519332 angstrom
           Maximum rank =  0   Radius =  0.325 angstrom
                   Q00  =   0.053446

H          x =  1.150232  y = -1.427642  z = -3.674332 angstrom
           Maximum rank =  0   Radius =  0.325 angstrom
                   Q00  =   0.052336

H          x =  4.053232  y = -0.296642  z = -3.620332 angstrom
           Maximum rank =  0   Radius =  0.325 angstrom
                   Q00  =   0.102126

H          x =  3.431232  y = -1.898642  z = -3.998332 angstrom
           Maximum rank =  0   Radius =  0.325 angstrom
                   Q00  =   0.096152

H          x =  4.704102  y = -1.727550  z = -2.775232 angstrom
           Maximum rank =  0   Radius =  0.325 angstrom
                   Q00  =   0.101374

C          x = -3.259768  y =  1.452358  z = -0.360332 angstrom
           Maximum rank =  0   Radius =  0.650 angstrom
                   Q00  =  -0.202258

C          x = -2.462768  y =  1.107358  z =  0.873668 angstrom
           Maximum rank =  0   Radius =  0.650 angstrom
                   Q00  =  -0.107147

C          x = -1.336768  y =  1.862358  z =  1.202668 angstrom
           Maximum rank =  0   Radius =  0.650 angstrom
                   Q00  =  -0.007939

C          x = -2.823768  y =  0.024358  z =  1.686668 angstrom
           Maximum rank =  0   Radius =  0.650 angstrom
                   Q00  =  -0.058051

C          x = -0.558768  y =  1.539358  z =  2.312668 angstrom
           Maximum rank =  0   Radius =  0.650 angstrom
                   Q00  =  -0.078989

C          x = -2.050768  y = -0.310642  z =  2.797668 angstrom
           Maximum rank =  0   Radius =  0.650 angstrom
                   Q00  =  -0.072853

C          x = -0.914768  y =  0.449358  z =  3.114668 angstrom
           Maximum rank =  0   Radius =  0.650 angstrom
                   Q00  =  -0.091673

H          x = -3.706768  y =  0.534358  z = -0.741332 angstrom
           Maximum rank =  0   Radius =  0.325 angstrom
                   Q00  =   0.096106

H          x = -2.575768  y =  1.812358  z = -1.127332 angstrom
           Maximum rank =  0   Radius =  0.325 angstrom
                   Q00  =   0.101207

H          x = -1.050768  y =  2.698358  z =  0.580668 angstrom
           Maximum rank =  0   Radius =  0.325 angstrom
                   Q00  =   0.060806

H          x = -3.694768  y = -0.567642  z =  1.446668 angstrom
           Maximum rank =  0   Radius =  0.325 angstrom
                   Q00  =   0.060254

H          x =  0.319232  y =  2.123358  z =  2.551668 angstrom
           Maximum rank =  0   Radius =  0.325 angstrom
                   Q00  =   0.067636

H          x = -2.327768  y = -1.151642  z =  3.416668 angstrom
           Maximum rank =  0   Radius =  0.325 angstrom
                   Q00  =   0.068871

H          x = -0.317768  y =  0.191358  z =  3.975668 angstrom
           Maximum rank =  0   Radius =  0.325 angstrom
                   Q00  =   0.064954

H          x = -4.049580  y =  2.199846  z = -0.194622 angstrom
           Maximum rank =  0   Radius =  0.325 angstrom
                   Q00  =   0.106684

Total multipoles referred to origin at
           x =   0.000000,  y =    0.000000,  z =    0.000000 angstrom
                   Q00  =  -0.000000

Finished at 8:0:27 on 28 Apr 2020

  DMA results are available in the Python driver through the
	  variable('DMA DISTRIBUTED MULTIPOLES')
  and
	  variable('DMA TOTAL MULTIPOLES')
  commands.

    Psi4 stopped on: Tuesday, 28 April 2020 08:00AM
    Psi4 wall time for execution: 0:10:10.38

*** Psi4 exiting successfully. Buy a developer a beer!
