                               Psi4 1.3.2 release

  ==> Input File <==

--------------------------------------------------------------------------
import numpy as np
set {scf_type pk
basis cc-pvdz
d_convergence 10
gdma_switch   0
gdma_limit    0
gdma_origin   [ 0.0,  0.0,  0.0 ]
}
molecule test {
    units Angstrom
    0 1
    --
    0 1
    C               -0.533386408245128     1.470004536277488    -0.939459574130473
    C               -1.198386408245127     2.277004536277488    -2.058459574130473
    H               -0.864386408245128     0.433004536277487    -0.981459574130473
    H                0.545613591754872     1.501004536277488    -1.063459574130473
    H               -0.792386408245128     1.893004536277487     0.032540425869527
    H               -0.946386408245128     1.836004536277487    -3.014459574130473
    H               -2.289426408245127     2.230974536277488    -1.926129574130473
    H               -0.859036408245128     3.323094536277487    -2.035449574130473
    C                0.828613591754872    -1.540995463722513     0.809540425869527
    C                0.904613591754872    -2.208995463722513     2.185540425869527
    H               -0.010386408245128    -1.927995463722513     0.230540425869527
    H                0.681613591754872    -0.469995463722513     0.947540425869527
    H                1.759613591754872    -1.695995463722513     0.264540425869527
    H                1.514613591754872    -1.589995463722512     2.843540425869527
    H                1.346943591754872    -3.213825463722513     2.117270425869527
    H               -0.103706408245128    -2.283775463722513     2.618780425869527

}
e, wfn = energy('scf', return_wfn=True)
gdma(wfn)
dmavals = variable('DMA DISTRIBUTED MULTIPOLES')
charges = np.array(dmavals)
print(charges)
np.save('SSI-076LEU-123THR-1-dimer.npy', np.array(charges))--------------------------------------------------------------------------

*** tstart() called on ds3
*** at Tue Apr 28 03:39:58 2020

   => Loading Basis Set <=

    Name: CC-PVDZ
    Role: ORBITAL
    Keyword: BASIS
    atoms 1-2, 9-10  entry C          line   138 file /theoryfs2/ds/metcalf/miniconda2/envs/tf2gpu/share/psi4/basis/cc-pvdz.gbs
    atoms 3-8, 11-16 entry H          line    22 file /theoryfs2/ds/metcalf/miniconda2/envs/tf2gpu/share/psi4/basis/cc-pvdz.gbs

         ---------------------------------------------------------
                                   SCF
               by Justin Turney, Rob Parrish, Andy Simmonett
                          and Daniel G. A. Smith
                              RHF Reference
                        1 Threads,    500 MiB Core
         ---------------------------------------------------------

  ==> Geometry <==

    Molecular point group: c1
    Full point group: C1

    Geometry (in Angstrom), charge = 0, multiplicity = 1:

       Center              X                  Y                   Z               Mass
    ------------   -----------------  -----------------  -----------------  -----------------
         C           -0.533386408245     1.470004536277    -0.939459574130    12.000000000000
         C           -1.198386408245     2.277004536277    -2.058459574130    12.000000000000
         H           -0.864386408245     0.433004536277    -0.981459574130     1.007825032230
         H            0.545613591755     1.501004536277    -1.063459574130     1.007825032230
         H           -0.792386408245     1.893004536277     0.032540425870     1.007825032230
         H           -0.946386408245     1.836004536277    -3.014459574130     1.007825032230
         H           -2.289426408245     2.230974536277    -1.926129574130     1.007825032230
         H           -0.859036408245     3.323094536277    -2.035449574130     1.007825032230
         C            0.828613591755    -1.540995463723     0.809540425870    12.000000000000
         C            0.904613591755    -2.208995463723     2.185540425870    12.000000000000
         H           -0.010386408245    -1.927995463723     0.230540425870     1.007825032230
         H            0.681613591755    -0.469995463723     0.947540425870     1.007825032230
         H            1.759613591755    -1.695995463723     0.264540425870     1.007825032230
         H            1.514613591755    -1.589995463723     2.843540425870     1.007825032230
         H            1.346943591755    -3.213825463723     2.117270425870     1.007825032230
         H           -0.103706408245    -2.283775463723     2.618780425870     1.007825032230

  Running in c1 symmetry.

  Rotational constants: A =      0.91266  B =      0.03865  C =      0.03830 [cm^-1]
  Rotational constants: A =  27360.73056  B =   1158.80787  C =   1148.19873 [MHz]
  Nuclear repulsion =  119.455559692074061

  Charge       = 0
  Multiplicity = 1
  Electrons    = 36
  Nalpha       = 18
  Nbeta        = 18

  ==> Algorithm <==

  SCF Algorithm Type is PK.
  DIIS enabled.
  MOM disabled.
  Fractional occupation disabled.
  Guess Type is SAD.
  Energy threshold   = 1.00e-06
  Density threshold  = 1.00e-10
  Integral threshold = 0.00e+00

  ==> Primary Basis <==

  Basis Set: CC-PVDZ
    Blend: CC-PVDZ
    Number of shells: 60
    Number of basis function: 116
    Number of Cartesian functions: 120
    Spherical Harmonics?: true
    Max angular momentum: 2

  ==> Pre-Iterations <==

   -------------------------------------------------------
    Irrep   Nso     Nmo     Nalpha   Nbeta   Ndocc  Nsocc
   -------------------------------------------------------
     A        116     116       0       0       0       0
   -------------------------------------------------------
    Total     116     116      18      18      18       0
   -------------------------------------------------------

  ==> Integral Setup <==

  Using integral reordering PK algorithm.
  Sizing the integral batches needed.
  Building batch lookup table.
   Calculation information:
      Number of atoms:                  16
      Number of AO shells:              60
      Number of primitives:            148
      Number of atomic orbitals:       120
      Number of basis functions:       116

      Integral cutoff                 1.00e-12
      Number of threads:                 1

	Batch   1 pq = [       0,    6786] index = [             0,23028291] size =     23028291
  Task number: 3
  Buffer size: 11059200
  Buffer per thread: 2
  We computed 1321107 shell quartets total.
  Whereas there are 1675365 unique shell quartets.

  ==> DiskJK: Disk-Based J/K Matrices <==

    J tasked:                  Yes
    K tasked:                  Yes
    wK tasked:                  No
    Memory [MiB]:              375
    Schwarz Cutoff:          1E-12

    OpenMP threads:              1

  Minimum eigenvalue in the overlap matrix is 6.1162057578E-03.
  Using Symmetric Orthogonalization.

  SCF Guess: Superposition of Atomic Densities via on-the-fly atomic UHF.

  ==> Iterations <==

                        Total Energy        Delta E     RMS |[F,P]|

   @RHF iter SAD:  -157.34033623672568   -1.57340e+02   0.00000e+00
   @RHF iter   1:  -158.30771277829194   -9.67377e-01   4.20884e-03 DIIS
   @RHF iter   2:  -158.44090082497539   -1.33188e-01   1.79056e-03 DIIS
   @RHF iter   3:  -158.46418398004198   -2.32832e-02   3.49783e-04 DIIS
   @RHF iter   4:  -158.46601777214249   -1.83379e-03   3.92625e-05 DIIS
   @RHF iter   5:  -158.46604208193307   -2.43098e-05   6.92669e-06 DIIS
   @RHF iter   6:  -158.46604277983619   -6.97903e-07   1.27285e-06 DIIS
   @RHF iter   7:  -158.46604279560924   -1.57731e-08   3.40779e-07 DIIS
   @RHF iter   8:  -158.46604279676134   -1.15210e-09   4.78416e-08 DIIS
   @RHF iter   9:  -158.46604279680213   -4.07852e-11   1.00291e-08 DIIS
   @RHF iter  10:  -158.46604279680412   -1.98952e-12   2.75176e-09 DIIS
   @RHF iter  11:  -158.46604279680474   -6.25278e-13   7.82633e-10 DIIS
   @RHF iter  12:  -158.46604279680437    3.69482e-13   1.73596e-10 DIIS
   @RHF iter  13:  -158.46604279680398    3.97904e-13   2.87378e-11 DIIS
  Energy and wave function converged.

  ==> Post-Iterations <==

    Orbital Energies [Eh]
    ---------------------

    Doubly Occupied:

       1A    -11.218530     2A    -11.218131     3A    -11.215891
       4A    -11.215629     5A     -1.018216     6A     -1.015993
       7A     -0.839355     8A     -0.833255     9A     -0.599425
      10A     -0.598157    11A     -0.596624    12A     -0.595787
      13A     -0.504510    14A     -0.494863    15A     -0.488111
      16A     -0.485879    17A     -0.483234    18A     -0.481531

    Virtual:

      19A      0.178045    20A      0.192778    21A      0.222345
      22A      0.229125    23A      0.244551    24A      0.258043
      25A      0.265777    26A      0.277036    27A      0.283991
      28A      0.289481    29A      0.307972    30A      0.324623
      31A      0.394655    32A      0.415220    33A      0.577922
      34A      0.594550    35A      0.597552    36A      0.600446
      37A      0.604516    38A      0.650312    39A      0.673947
      40A      0.691189    41A      0.700896    42A      0.748432
      43A      0.848882    44A      0.879621    45A      0.885286
      46A      0.892735    47A      0.894843    48A      0.897730
      49A      0.898378    50A      0.909187    51A      0.913905
      52A      0.917440    53A      0.926964    54A      0.945719
      55A      0.968561    56A      1.009912    57A      1.120302
      58A      1.124038    59A      1.126619    60A      1.138947
      61A      1.230541    62A      1.241868    63A      1.467067
      64A      1.481349    65A      1.482270    66A      1.485636
      67A      1.578962    68A      1.590163    69A      1.680441
      70A      1.684206    71A      1.693853    72A      1.694436
      73A      1.849885    74A      1.854613    75A      1.861841
      76A      1.878866    77A      1.890114    78A      1.922957
      79A      1.926341    80A      1.938818    81A      1.941949
      82A      1.943665    83A      1.946549    84A      1.947266
      85A      1.957053    86A      1.964226    87A      2.001156
      88A      2.041900    89A      2.097492    90A      2.116421
      91A      2.140244    92A      2.144631    93A      2.294605
      94A      2.302707    95A      2.310473    96A      2.337573
      97A      2.435540    98A      2.448375    99A      2.454866
     100A      2.471493   101A      2.564743   102A      2.574508
     103A      2.583026   104A      2.589380   105A      2.759570
     106A      2.762770   107A      2.781889   108A      2.801815
     109A      2.842579   110A      2.844849   111A      2.845502
     112A      2.859541   113A      2.939440   114A      2.946544
     115A      2.954484   116A      2.971943

    Final Occupation by Irrep:
              A
    DOCC [    18 ]

  @RHF Final Energy:  -158.46604279680398

   => Energetics <=

    Nuclear Repulsion Energy =            119.4555596920740612
    One-Electron Energy =                -448.0369604401589072
    Two-Electron Energy =                 170.1153579512808562
    Total Energy =                       -158.4660427968039755

Computation Completed

Properties will be evaluated at   0.000000,   0.000000,   0.000000 [a0]

Properties computed using the SCF density matrix

  Nuclear Dipole Moment: [e a0]
     X:    -0.0162      Y:     0.0333      Z:     0.0317

  Electronic Dipole Moment: [e a0]
     X:     0.0231      Y:    -0.0275      Z:    -0.0366

  Dipole Moment: [e a0]
     X:     0.0069      Y:     0.0058      Z:    -0.0049     Total:     0.0103

  Dipole Moment: [D]
     X:     0.0175      Y:     0.0148      Z:    -0.0124     Total:     0.0261

*** tstop() called on ds3 at Tue Apr 28 03:40:08 2020
Module time:
	user time   =       6.93 seconds =       0.12 minutes
	system time =       2.89 seconds =       0.05 minutes
	total time  =         10 seconds =       0.17 minutes
Total time:
	user time   =       6.93 seconds =       0.12 minutes
	system time =       2.89 seconds =       0.05 minutes
	total time  =         10 seconds =       0.17 minutes
                                     G D M A

                                 by Anthony Stone

                           version 2.2.06, 22 June 2011

               Distributed Multipoles from Gaussian wavefunctions

Starting at 3:40:8 on 28 Apr 2020

Using SCF density matrix from file ./SSI/SSI-076LEU-123THR-1-dimer.test.15065.fchk

                         Distributed Multipole Analysis

Standard DMA

Positions and radii in angstrom
Multipole moments in atomic units, ea_0^k for rank k

C          x = -0.533386  y =  1.470005  z = -0.939460 angstrom
           Maximum rank =  0   Radius =  0.650 angstrom
                   Q00  =  -0.239468

C          x = -1.198386  y =  2.277005  z = -2.058460 angstrom
           Maximum rank =  0   Radius =  0.650 angstrom
                   Q00  =  -0.235225

H          x = -0.864386  y =  0.433005  z = -0.981460 angstrom
           Maximum rank =  0   Radius =  0.325 angstrom
                   Q00  =   0.081578

H          x =  0.545614  y =  1.501005  z = -1.063460 angstrom
           Maximum rank =  0   Radius =  0.325 angstrom
                   Q00  =   0.078112

H          x = -0.792386  y =  1.893005  z =  0.032540 angstrom
           Maximum rank =  0   Radius =  0.325 angstrom
                   Q00  =   0.077566

H          x = -0.946386  y =  1.836005  z = -3.014460 angstrom
           Maximum rank =  0   Radius =  0.325 angstrom
                   Q00  =   0.081770

H          x = -2.289426  y =  2.230975  z = -1.926130 angstrom
           Maximum rank =  0   Radius =  0.325 angstrom
                   Q00  =   0.077288

H          x = -0.859036  y =  3.323095  z = -2.035450 angstrom
           Maximum rank =  0   Radius =  0.325 angstrom
                   Q00  =   0.080028

C          x =  0.828614  y = -1.540995  z =  0.809540 angstrom
           Maximum rank =  0   Radius =  0.650 angstrom
                   Q00  =  -0.248612

C          x =  0.904614  y = -2.208995  z =  2.185540 angstrom
           Maximum rank =  0   Radius =  0.650 angstrom
                   Q00  =  -0.226738

H          x = -0.010386  y = -1.927995  z =  0.230540 angstrom
           Maximum rank =  0   Radius =  0.325 angstrom
                   Q00  =   0.078220

H          x =  0.681614  y = -0.469995  z =  0.947540 angstrom
           Maximum rank =  0   Radius =  0.325 angstrom
                   Q00  =   0.080951

H          x =  1.759614  y = -1.695995  z =  0.264540 angstrom
           Maximum rank =  0   Radius =  0.325 angstrom
                   Q00  =   0.079705

H          x =  1.514614  y = -1.589995  z =  2.843540 angstrom
           Maximum rank =  0   Radius =  0.325 angstrom
                   Q00  =   0.078387

H          x =  1.346944  y = -3.213825  z =  2.117270 angstrom
           Maximum rank =  0   Radius =  0.325 angstrom
                   Q00  =   0.078825

H          x = -0.103706  y = -2.283775  z =  2.618780 angstrom
           Maximum rank =  0   Radius =  0.325 angstrom
                   Q00  =   0.077614

Total multipoles referred to origin at
           x =   0.000000,  y =    0.000000,  z =    0.000000 angstrom
                   Q00  =  -0.000000

Finished at 3:40:8 on 28 Apr 2020

  DMA results are available in the Python driver through the
	  variable('DMA DISTRIBUTED MULTIPOLES')
  and
	  variable('DMA TOTAL MULTIPOLES')
  commands.

    Psi4 stopped on: Tuesday, 28 April 2020 03:40AM
    Psi4 wall time for execution: 0:00:09.64

*** Psi4 exiting successfully. Buy a developer a beer!
