                               Psi4 1.3.2 release

  ==> Input File <==

--------------------------------------------------------------------------
import numpy as np
set {scf_type pk
basis cc-pvdz
d_convergence 10
gdma_switch   0
gdma_limit    0
gdma_origin   [ 0.0,  0.0,  0.0 ]
}
molecule test {
    units Angstrom
    0 1
    --
    0 1
    C                0.480689633136742     0.858688115609987     1.039131264408224
    C                0.166689633136742     2.124688115609987     1.827131264408224
    H                0.263689633136742     1.022688115609987    -0.015868735591776
    H                1.534689633136742     0.609688115609987     1.151131264408224
    H               -0.116310366863258     0.027688115609987     1.416131264408225
    H                0.459689633136742     1.949688115609987     2.859131264408224
    H               -0.913630366863258     2.326708115609987     1.781282264408225
    H                0.759909633136742     2.975418115609987     1.460586264408224
    C               -1.066310366863258    -1.289311884390013    -1.531868735591775
    C                0.415689633136742    -1.694311884390013    -1.345868735591775
    H               -1.709310366863258    -2.154311884390014    -1.366868735591776
    H               -1.331310366863258    -0.524311884390013    -0.803868735591776
    H               -1.234310366863258    -0.882311884390013    -2.526868735591775
    H                0.568689633136742    -1.901311884390013    -0.285868735591776
    H                1.056689633136742    -0.855311884390013    -1.616868735591776
    H                0.700109633136742    -2.591371884390013    -1.915419735591776

}
e, wfn = energy('scf', return_wfn=True)
gdma(wfn)
dmavals = variable('DMA DISTRIBUTED MULTIPOLES')
charges = np.array(dmavals)
print(charges)
np.save('SSI-053LEU-091ILE-1-dimer.npy', np.array(charges))--------------------------------------------------------------------------

*** tstart() called on ds3
*** at Sun Apr 26 17:24:21 2020

   => Loading Basis Set <=

    Name: CC-PVDZ
    Role: ORBITAL
    Keyword: BASIS
    atoms 1-2, 9-10  entry C          line   138 file /theoryfs2/ds/metcalf/miniconda2/envs/tf2gpu/share/psi4/basis/cc-pvdz.gbs
    atoms 3-8, 11-16 entry H          line    22 file /theoryfs2/ds/metcalf/miniconda2/envs/tf2gpu/share/psi4/basis/cc-pvdz.gbs

         ---------------------------------------------------------
                                   SCF
               by Justin Turney, Rob Parrish, Andy Simmonett
                          and Daniel G. A. Smith
                              RHF Reference
                        1 Threads,    500 MiB Core
         ---------------------------------------------------------

  ==> Geometry <==

    Molecular point group: c1
    Full point group: C1

    Geometry (in Angstrom), charge = 0, multiplicity = 1:

       Center              X                  Y                   Z               Mass
    ------------   -----------------  -----------------  -----------------  -----------------
         C            0.480689633137     0.858688115610     1.039131264408    12.000000000000
         C            0.166689633137     2.124688115610     1.827131264408    12.000000000000
         H            0.263689633137     1.022688115610    -0.015868735592     1.007825032230
         H            1.534689633137     0.609688115610     1.151131264408     1.007825032230
         H           -0.116310366863     0.027688115610     1.416131264408     1.007825032230
         H            0.459689633137     1.949688115610     2.859131264408     1.007825032230
         H           -0.913630366863     2.326708115610     1.781282264408     1.007825032230
         H            0.759909633137     2.975418115610     1.460586264408     1.007825032230
         C           -1.066310366863    -1.289311884390    -1.531868735592    12.000000000000
         C            0.415689633137    -1.694311884390    -1.345868735592    12.000000000000
         H           -1.709310366863    -2.154311884390    -1.366868735592     1.007825032230
         H           -1.331310366863    -0.524311884390    -0.803868735592     1.007825032230
         H           -1.234310366863    -0.882311884390    -2.526868735592     1.007825032230
         H            0.568689633137    -1.901311884390    -0.285868735592     1.007825032230
         H            1.056689633137    -0.855311884390    -1.616868735592     1.007825032230
         H            0.700109633137    -2.591371884390    -1.915419735592     1.007825032230

  Running in c1 symmetry.

  Rotational constants: A =      0.48450  B =      0.05773  C =      0.05372 [cm^-1]
  Rotational constants: A =  14525.09166  B =   1730.58938  C =   1610.48981 [MHz]
  Nuclear repulsion =  125.568574749937895

  Charge       = 0
  Multiplicity = 1
  Electrons    = 36
  Nalpha       = 18
  Nbeta        = 18

  ==> Algorithm <==

  SCF Algorithm Type is PK.
  DIIS enabled.
  MOM disabled.
  Fractional occupation disabled.
  Guess Type is SAD.
  Energy threshold   = 1.00e-06
  Density threshold  = 1.00e-10
  Integral threshold = 0.00e+00

  ==> Primary Basis <==

  Basis Set: CC-PVDZ
    Blend: CC-PVDZ
    Number of shells: 60
    Number of basis function: 116
    Number of Cartesian functions: 120
    Spherical Harmonics?: true
    Max angular momentum: 2

  ==> Pre-Iterations <==

   -------------------------------------------------------
    Irrep   Nso     Nmo     Nalpha   Nbeta   Ndocc  Nsocc
   -------------------------------------------------------
     A        116     116       0       0       0       0
   -------------------------------------------------------
    Total     116     116      18      18      18       0
   -------------------------------------------------------

  ==> Integral Setup <==

  Using integral reordering PK algorithm.
  Sizing the integral batches needed.
  Building batch lookup table.
   Calculation information:
      Number of atoms:                  16
      Number of AO shells:              60
      Number of primitives:            148
      Number of atomic orbitals:       120
      Number of basis functions:       116

      Integral cutoff                 1.00e-12
      Number of threads:                 1

	Batch   1 pq = [       0,    6786] index = [             0,23028291] size =     23028291
  Task number: 3
  Buffer size: 11059200
  Buffer per thread: 2
  We computed 1516461 shell quartets total.
  Whereas there are 1675365 unique shell quartets.

  ==> DiskJK: Disk-Based J/K Matrices <==

    J tasked:                  Yes
    K tasked:                  Yes
    wK tasked:                  No
    Memory [MiB]:              375
    Schwarz Cutoff:          1E-12

    OpenMP threads:              1

  Minimum eigenvalue in the overlap matrix is 6.4378918676E-03.
  Using Symmetric Orthogonalization.

  SCF Guess: Superposition of Atomic Densities via on-the-fly atomic UHF.

  ==> Iterations <==

                        Total Energy        Delta E     RMS |[F,P]|

   @RHF iter SAD:  -157.36195258142951   -1.57362e+02   0.00000e+00
   @RHF iter   1:  -158.30652940891497   -9.44577e-01   4.18960e-03 DIIS
   @RHF iter   2:  -158.43963433204081   -1.33105e-01   1.76586e-03 DIIS
   @RHF iter   3:  -158.46236962306301   -2.27353e-02   3.49458e-04 DIIS
   @RHF iter   4:  -158.46419908162497   -1.82946e-03   3.85842e-05 DIIS
   @RHF iter   5:  -158.46422247469044   -2.33931e-05   6.30373e-06 DIIS
   @RHF iter   6:  -158.46422308050680   -6.05816e-07   9.07466e-07 DIIS
   @RHF iter   7:  -158.46422308962511   -9.11831e-09   2.91449e-07 DIIS
   @RHF iter   8:  -158.46422309038030   -7.55193e-10   4.64245e-08 DIIS
   @RHF iter   9:  -158.46422309041461   -3.43050e-11   9.90030e-09 DIIS
   @RHF iter  10:  -158.46422309041631   -1.70530e-12   2.61452e-09 DIIS
   @RHF iter  11:  -158.46422309041665   -3.41061e-13   7.39151e-10 DIIS
   @RHF iter  12:  -158.46422309041651    1.42109e-13   1.78401e-10 DIIS
   @RHF iter  13:  -158.46422309041691   -3.97904e-13   2.75139e-11 DIIS
  Energy and wave function converged.

  ==> Post-Iterations <==

    Orbital Energies [Eh]
    ---------------------

    Doubly Occupied:

       1A    -11.218702     2A    -11.217856     3A    -11.216534
       4A    -11.216386     5A     -1.021527     6A     -1.011903
       7A     -0.838869     8A     -0.835827     9A     -0.605233
      10A     -0.601525    11A     -0.593823    12A     -0.590470
      13A     -0.500624    14A     -0.496601    15A     -0.490703
      16A     -0.487809    17A     -0.483649    18A     -0.479618

    Virtual:

      19A      0.175549    20A      0.198413    21A      0.227111
      22A      0.232278    23A      0.248631    24A      0.260092
      25A      0.264997    26A      0.275123    27A      0.279913
      28A      0.297899    29A      0.319329    30A      0.332678
      31A      0.385641    32A      0.400133    33A      0.562445
      34A      0.596439    35A      0.601768    36A      0.607628
      37A      0.613598    38A      0.632771    39A      0.677599
      40A      0.696548    41A      0.741820    42A      0.779692
      43A      0.837492    44A      0.867696    45A      0.889040
      46A      0.891039    47A      0.893600    48A      0.894293
      49A      0.910215    50A      0.916878    51A      0.920021
      52A      0.934782    53A      0.946526    54A      0.961439
      55A      0.972499    56A      1.027487    57A      1.118949
      58A      1.131697    59A      1.132758    60A      1.164597
      61A      1.217036    62A      1.270174    63A      1.454570
      64A      1.476398    65A      1.480820    66A      1.493445
      67A      1.583615    68A      1.601358    69A      1.675217
      70A      1.688173    71A      1.693574    72A      1.703550
      73A      1.845832    74A      1.865890    75A      1.880584
      76A      1.886332    77A      1.895734    78A      1.915769
      79A      1.932901    80A      1.941330    81A      1.946249
      82A      1.952856    83A      1.955149    84A      1.962686
      85A      1.972179    86A      1.976913    87A      1.998221
      88A      2.052731    89A      2.095157    90A      2.112992
      91A      2.127359    92A      2.154933    93A      2.293037
      94A      2.307969    95A      2.315535    96A      2.358363
      97A      2.440722    98A      2.455732    99A      2.460008
     100A      2.477539   101A      2.558516   102A      2.567718
     103A      2.583152   104A      2.591591   105A      2.765554
     106A      2.775920   107A      2.791667   108A      2.800108
     109A      2.844497   110A      2.852479   111A      2.852597
     112A      2.867142   113A      2.937901   114A      2.955151
     115A      2.965370   116A      2.974747

    Final Occupation by Irrep:
              A
    DOCC [    18 ]

  @RHF Final Energy:  -158.46422309041691

   => Energetics <=

    Nuclear Repulsion Energy =            125.5685747499378948
    One-Electron Energy =                -460.2502776279495720
    Two-Electron Energy =                 176.2174797875947547
    Total Energy =                       -158.4642230904169082

Computation Completed

Properties will be evaluated at   0.000000,   0.000000,   0.000000 [a0]

Properties computed using the SCF density matrix

  Nuclear Dipole Moment: [e a0]
     X:     0.0362      Y:     0.0028      Z:     0.1281

  Electronic Dipole Moment: [e a0]
     X:    -0.0209      Y:     0.0047      Z:    -0.0987

  Dipole Moment: [e a0]
     X:     0.0153      Y:     0.0074      Z:     0.0294     Total:     0.0339

  Dipole Moment: [D]
     X:     0.0388      Y:     0.0189      Z:     0.0746     Total:     0.0862

*** tstop() called on ds3 at Sun Apr 26 17:24:37 2020
Module time:
	user time   =      12.65 seconds =       0.21 minutes
	system time =       3.46 seconds =       0.06 minutes
	total time  =         16 seconds =       0.27 minutes
Total time:
	user time   =      12.65 seconds =       0.21 minutes
	system time =       3.46 seconds =       0.06 minutes
	total time  =         16 seconds =       0.27 minutes
                                     G D M A

                                 by Anthony Stone

                           version 2.2.06, 22 June 2011

               Distributed Multipoles from Gaussian wavefunctions

Starting at 17:24:37 on 26 Apr 2020

Using SCF density matrix from file ./SSI/SSI-053LEU-091ILE-1-dimer.test.18439.fchk

                         Distributed Multipole Analysis

Standard DMA

Positions and radii in angstrom
Multipole moments in atomic units, ea_0^k for rank k

C          x =  0.480690  y =  0.858688  z =  1.039131 angstrom
           Maximum rank =  0   Radius =  0.650 angstrom
                   Q00  =  -0.234972

C          x =  0.166690  y =  2.124688  z =  1.827131 angstrom
           Maximum rank =  0   Radius =  0.650 angstrom
                   Q00  =  -0.236580

H          x =  0.263690  y =  1.022688  z = -0.015869 angstrom
           Maximum rank =  0   Radius =  0.325 angstrom
                   Q00  =   0.077566

H          x =  1.534690  y =  0.609688  z =  1.151131 angstrom
           Maximum rank =  0   Radius =  0.325 angstrom
                   Q00  =   0.078856

H          x = -0.116310  y =  0.027688  z =  1.416131 angstrom
           Maximum rank =  0   Radius =  0.325 angstrom
                   Q00  =   0.077269

H          x =  0.459690  y =  1.949688  z =  2.859131 angstrom
           Maximum rank =  0   Radius =  0.325 angstrom
                   Q00  =   0.076937

H          x = -0.913630  y =  2.326708  z =  1.781282 angstrom
           Maximum rank =  0   Radius =  0.325 angstrom
                   Q00  =   0.079068

H          x =  0.759910  y =  2.975418  z =  1.460586 angstrom
           Maximum rank =  0   Radius =  0.325 angstrom
                   Q00  =   0.080064

C          x = -1.066310  y = -1.289312  z = -1.531869 angstrom
           Maximum rank =  0   Radius =  0.650 angstrom
                   Q00  =  -0.239432

C          x =  0.415690  y = -1.694312  z = -1.345869 angstrom
           Maximum rank =  0   Radius =  0.650 angstrom
                   Q00  =  -0.243614

H          x = -1.709310  y = -2.154312  z = -1.366869 angstrom
           Maximum rank =  0   Radius =  0.325 angstrom
                   Q00  =   0.080387

H          x = -1.331310  y = -0.524312  z = -0.803869 angstrom
           Maximum rank =  0   Radius =  0.325 angstrom
                   Q00  =   0.082302

H          x = -1.234310  y = -0.882312  z = -2.526869 angstrom
           Maximum rank =  0   Radius =  0.325 angstrom
                   Q00  =   0.079958

H          x =  0.568690  y = -1.901312  z = -0.285869 angstrom
           Maximum rank =  0   Radius =  0.325 angstrom
                   Q00  =   0.078326

H          x =  1.056690  y = -0.855312  z = -1.616869 angstrom
           Maximum rank =  0   Radius =  0.325 angstrom
                   Q00  =   0.080543

H          x =  0.700110  y = -2.591372  z = -1.915420 angstrom
           Maximum rank =  0   Radius =  0.325 angstrom
                   Q00  =   0.083324

Total multipoles referred to origin at
           x =   0.000000,  y =    0.000000,  z =    0.000000 angstrom
                   Q00  =  -0.000000

Finished at 17:24:37 on 26 Apr 2020

  DMA results are available in the Python driver through the
	  variable('DMA DISTRIBUTED MULTIPOLES')
  and
	  variable('DMA TOTAL MULTIPOLES')
  commands.

    Psi4 stopped on: Sunday, 26 April 2020 05:24PM
    Psi4 wall time for execution: 0:00:15.72

*** Psi4 exiting successfully. Buy a developer a beer!
