                               Psi4 1.3.2 release

  ==> Input File <==

--------------------------------------------------------------------------
import numpy as np
set {scf_type pk
basis cc-pvdz
d_convergence 10
gdma_switch   0
gdma_limit    0
gdma_origin   [ 0.0,  0.0,  0.0 ]
}
molecule test {
    units Angstrom
    0 1
    --
    0 1
    C               -2.360606406772445    -0.361102150898686    -2.319196334194233
    C               -1.445606406772445     0.143897849101314    -3.407196334194233
    C               -1.628606406772445    -1.581102150898686    -1.759196334194233
    H               -3.311606406772444    -0.658102150898686    -2.765196334194233
    H               -2.530606406772445     0.394897849101314    -1.552196334194233
    H               -1.989606406772445     0.729897849101314    -4.149196334194234
    H               -0.648606406772445     0.742897849101314    -2.964196334194233
    H               -1.038606406772445    -1.298102150898686    -0.888196334194233
    H               -1.015377406772445    -0.766619150898686    -3.849758334194233
    H               -0.958176406772445    -1.887884150898686    -2.575534334194233
    H               -2.354797406772445    -2.359062150898686    -1.480942334194233
    C                2.891393593227555    -0.712102150898686     1.538803665805767
    C               -0.145606406772445     0.939897849101314     0.501803665805767
    C                1.590393593227555     0.008897849101314     1.446803665805767
    C                0.738393593227555     0.392897849101314     2.435803665805767
    N                1.014393593227555     0.343897849101314     0.235803665805767
    N               -0.328606406772445     0.996897849101314     1.819803665805767
    H               -0.826606406772445     1.344897849101314    -0.239196334194233
    H               -1.131606406772445     1.415897849101314     2.279803665805767
    H                0.889393593227555     0.253897849101314     3.499803665805767
    H                3.131393593227555    -0.846102150898686     2.594803665805767
    H                3.671393593227555    -0.090102150898686     1.095803665805767
    H                2.874221593227555    -1.690208150898686     1.035793665805767

}
e, wfn = energy('scf', return_wfn=True)
gdma(wfn)
dmavals = variable('DMA DISTRIBUTED MULTIPOLES')
charges = np.array(dmavals)
print(charges)
np.save('SSI-092PRO-102HIE-1-dimer.npy', np.array(charges))--------------------------------------------------------------------------

*** tstart() called on ds3
*** at Mon Apr 27 19:55:58 2020

   => Loading Basis Set <=

    Name: CC-PVDZ
    Role: ORBITAL
    Keyword: BASIS
    atoms 1-3, 12-15  entry C          line   138 file /theoryfs2/ds/metcalf/miniconda2/envs/tf2gpu/share/psi4/basis/cc-pvdz.gbs
    atoms 4-11, 18-23 entry H          line    22 file /theoryfs2/ds/metcalf/miniconda2/envs/tf2gpu/share/psi4/basis/cc-pvdz.gbs
    atoms 16-17       entry N          line   168 file /theoryfs2/ds/metcalf/miniconda2/envs/tf2gpu/share/psi4/basis/cc-pvdz.gbs

         ---------------------------------------------------------
                                   SCF
               by Justin Turney, Rob Parrish, Andy Simmonett
                          and Daniel G. A. Smith
                              RHF Reference
                        1 Threads,    500 MiB Core
         ---------------------------------------------------------

  ==> Geometry <==

    Molecular point group: c1
    Full point group: C1

    Geometry (in Angstrom), charge = 0, multiplicity = 1:

       Center              X                  Y                   Z               Mass
    ------------   -----------------  -----------------  -----------------  -----------------
         C           -2.360606406772    -0.361102150899    -2.319196334194    12.000000000000
         C           -1.445606406772     0.143897849101    -3.407196334194    12.000000000000
         C           -1.628606406772    -1.581102150899    -1.759196334194    12.000000000000
         H           -3.311606406772    -0.658102150899    -2.765196334194     1.007825032230
         H           -2.530606406772     0.394897849101    -1.552196334194     1.007825032230
         H           -1.989606406772     0.729897849101    -4.149196334194     1.007825032230
         H           -0.648606406772     0.742897849101    -2.964196334194     1.007825032230
         H           -1.038606406772    -1.298102150899    -0.888196334194     1.007825032230
         H           -1.015377406772    -0.766619150899    -3.849758334194     1.007825032230
         H           -0.958176406772    -1.887884150899    -2.575534334194     1.007825032230
         H           -2.354797406772    -2.359062150899    -1.480942334194     1.007825032230
         C            2.891393593228    -0.712102150899     1.538803665806    12.000000000000
         C           -0.145606406772     0.939897849101     0.501803665806    12.000000000000
         C            1.590393593228     0.008897849101     1.446803665806    12.000000000000
         C            0.738393593228     0.392897849101     2.435803665806    12.000000000000
         N            1.014393593228     0.343897849101     0.235803665806    14.003074004430
         N           -0.328606406772     0.996897849101     1.819803665806    14.003074004430
         H           -0.826606406772     1.344897849101    -0.239196334194     1.007825032230
         H           -1.131606406772     1.415897849101     2.279803665806     1.007825032230
         H            0.889393593228     0.253897849101     3.499803665806     1.007825032230
         H            3.131393593228    -0.846102150899     2.594803665806     1.007825032230
         H            3.671393593228    -0.090102150899     1.095803665806     1.007825032230
         H            2.874221593228    -1.690208150899     1.035793665806     1.007825032230

  Running in c1 symmetry.

  Rotational constants: A =      0.09082  B =      0.02101  C =      0.01922 [cm^-1]
  Rotational constants: A =   2722.77264  B =    629.94404  C =    576.18106 [MHz]
  Nuclear repulsion =  431.130693856515677

  Charge       = 0
  Multiplicity = 1
  Electrons    = 70
  Nalpha       = 35
  Nbeta        = 35

  ==> Algorithm <==

  SCF Algorithm Type is PK.
  DIIS enabled.
  MOM disabled.
  Fractional occupation disabled.
  Guess Type is SAD.
  Energy threshold   = 1.00e-06
  Density threshold  = 1.00e-10
  Integral threshold = 0.00e+00

  ==> Primary Basis <==

  Basis Set: CC-PVDZ
    Blend: CC-PVDZ
    Number of shells: 96
    Number of basis function: 196
    Number of Cartesian functions: 205
    Spherical Harmonics?: true
    Max angular momentum: 2

  ==> Pre-Iterations <==

   -------------------------------------------------------
    Irrep   Nso     Nmo     Nalpha   Nbeta   Ndocc  Nsocc
   -------------------------------------------------------
     A        196     196       0       0       0       0
   -------------------------------------------------------
    Total     196     196      35      35      35       0
   -------------------------------------------------------

  ==> Integral Setup <==

  Using integral reordering PK algorithm.
  Sizing the integral batches needed.
  Building batch lookup table.
   Calculation information:
      Number of atoms:                  23
      Number of AO shells:              96
      Number of primitives:            268
      Number of atomic orbitals:       205
      Number of basis functions:       196

      Integral cutoff                 1.00e-12
      Number of threads:                 1

	Batch   1 pq = [       0,    9405] index = [             0,44231715] size =     44231715
	Batch   2 pq = [    9405,   13301] index = [      44231715,88464951] size =     44233236
	Batch   3 pq = [   13301,   16290] index = [      88464951,132690195] size =     44225244
	Batch   4 pq = [   16290,   18810] index = [     132690195,176917455] size =     44227260
	Batch   5 pq = [   18810,   19306] index = [     176917455,186370471] size =      9453016
  Task number: 17
  Buffer size: 11059200
  Buffer per thread: 2
  We computed 8961616 shell quartets total.
  Whereas there are 10841496 unique shell quartets.

  ==> DiskJK: Disk-Based J/K Matrices <==

    J tasked:                  Yes
    K tasked:                  Yes
    wK tasked:                  No
    Memory [MiB]:              375
    Schwarz Cutoff:          1E-12

    OpenMP threads:              1

  Minimum eigenvalue in the overlap matrix is 1.2344854796E-03.
  Using Symmetric Orthogonalization.

  SCF Guess: Superposition of Atomic Densities via on-the-fly atomic UHF.

  ==> Iterations <==

                        Total Energy        Delta E     RMS |[F,P]|

   @RHF iter SAD:  -381.36406184846965   -3.81364e+02   0.00000e+00
   @RHF iter   1:  -381.87278433477070   -5.08722e-01   3.17698e-03 DIIS
   @RHF iter   2:  -382.07358169248437   -2.00797e-01   1.60571e-03 DIIS
   @RHF iter   3:  -382.12115768160936   -4.75760e-02   4.01107e-04 DIIS
   @RHF iter   4:  -382.12501331255947   -3.85563e-03   1.73154e-04 DIIS
   @RHF iter   5:  -382.12564996514595   -6.36653e-04   2.46941e-05 DIIS
   @RHF iter   6:  -382.12567269899432   -2.27338e-05   9.96451e-06 DIIS
   @RHF iter   7:  -382.12567611038952   -3.41140e-06   3.36780e-06 DIIS
   @RHF iter   8:  -382.12567677052897   -6.60139e-07   1.45912e-06 DIIS
   @RHF iter   9:  -382.12567691710001   -1.46571e-07   5.24829e-07 DIIS
   @RHF iter  10:  -382.12567693513938   -1.80394e-08   1.52580e-07 DIIS
   @RHF iter  11:  -382.12567693694592   -1.80654e-09   6.43189e-08 DIIS
   @RHF iter  12:  -382.12567693716460   -2.18677e-10   2.80758e-08 DIIS
   @RHF iter  13:  -382.12567693720564   -4.10409e-11   8.80894e-09 DIIS
   @RHF iter  14:  -382.12567693721252   -6.87805e-12   2.99812e-09 DIIS
   @RHF iter  15:  -382.12567693721394   -1.42109e-12   1.12911e-09 DIIS
   @RHF iter  16:  -382.12567693721320    7.38964e-13   4.23009e-10 DIIS
   @RHF iter  17:  -382.12567693721365   -4.54747e-13   1.42626e-10 DIIS
   @RHF iter  18:  -382.12567693721201    1.64846e-12   4.37379e-11 DIIS
  Energy and wave function converged.

  ==> Post-Iterations <==

    Orbital Energies [Eh]
    ---------------------

    Doubly Occupied:

       1A    -15.623562     2A    -15.532295     3A    -11.295316
       4A    -11.252280     5A    -11.242372     6A    -11.223560
       7A    -11.211621     8A    -11.206679     9A    -11.202812
      10A     -1.342898    11A     -1.156674    12A     -1.059958
      13A     -1.033089    14A     -0.941443    15A     -0.905973
      16A     -0.820512    17A     -0.793122    18A     -0.763702
      19A     -0.741739    20A     -0.631914    21A     -0.610106
      22A     -0.605670    23A     -0.605326    24A     -0.596303
      25A     -0.553413    26A     -0.541756    27A     -0.532985
      28A     -0.520816    29A     -0.505853    30A     -0.478903
      31A     -0.461598    32A     -0.450791    33A     -0.416331
      34A     -0.379935    35A     -0.310377

    Virtual:

      36A      0.167845    37A      0.182738    38A      0.195716
      39A      0.198575    40A      0.219506    41A      0.222963
      42A      0.232967    43A      0.236374    44A      0.248474
      45A      0.270233    46A      0.280098    47A      0.288515
      48A      0.301222    49A      0.314150    50A      0.333497
      51A      0.338102    52A      0.381927    53A      0.383228
      54A      0.409630    55A      0.437363    56A      0.441670
      57A      0.485978    58A      0.501199    59A      0.578667
      60A      0.601188    61A      0.604936    62A      0.618989
      63A      0.636324    64A      0.640827    65A      0.646220
      66A      0.664469    67A      0.676690    68A      0.706978
      69A      0.747120    70A      0.750437    71A      0.770824
      72A      0.783570    73A      0.809695    74A      0.821436
      75A      0.828919    76A      0.839873    77A      0.850200
      78A      0.859365    79A      0.877616    80A      0.881790
      81A      0.890931    82A      0.899836    83A      0.907865
      84A      0.914038    85A      0.920224    86A      0.925825
      87A      0.932676    88A      0.949264    89A      0.955615
      90A      0.961615    91A      0.978149    92A      0.985010
      93A      1.008053    94A      1.031486    95A      1.064615
      96A      1.087905    97A      1.094656    98A      1.107908
      99A      1.128241   100A      1.138714   101A      1.157068
     102A      1.195793   103A      1.253054   104A      1.256446
     105A      1.282146   106A      1.320591   107A      1.325935
     108A      1.336222   109A      1.410449   110A      1.425806
     111A      1.449281   112A      1.476584   113A      1.482426
     114A      1.502185   115A      1.519240   116A      1.572540
     117A      1.603183   118A      1.611812   119A      1.630401
     120A      1.638283   121A      1.643184   122A      1.685437
     123A      1.710676   124A      1.731642   125A      1.740923
     126A      1.782722   127A      1.806008   128A      1.809709
     129A      1.814634   130A      1.854066   131A      1.876700
     132A      1.891481   133A      1.897613   134A      1.916282
     135A      1.924886   136A      1.933674   137A      1.946727
     138A      1.949302   139A      1.957772   140A      1.972187
     141A      1.980311   142A      2.001217   143A      2.003317
     144A      2.015377   145A      2.029005   146A      2.041561
     147A      2.048191   148A      2.091568   149A      2.106259
     150A      2.119979   151A      2.140344   152A      2.169491
     153A      2.180575   154A      2.203875   155A      2.221090
     156A      2.235338   157A      2.247448   158A      2.301821
     159A      2.315988   160A      2.347857   161A      2.350236
     162A      2.397142   163A      2.432126   164A      2.441991
     165A      2.451554   166A      2.459526   167A      2.490576
     168A      2.516362   169A      2.544810   170A      2.565543
     171A      2.605514   172A      2.648902   173A      2.684168
     174A      2.703353   175A      2.743745   176A      2.749789
     177A      2.763436   178A      2.780299   179A      2.789484
     180A      2.804876   181A      2.813877   182A      2.821542
     183A      2.842299   184A      2.856018   185A      2.865570
     186A      2.895944   187A      2.910037   188A      2.931577
     189A      2.957322   190A      2.979430   191A      3.044173
     192A      3.064708   193A      3.161034   194A      3.246929
     195A      3.465869   196A      3.794353

    Final Occupation by Irrep:
              A
    DOCC [    35 ]

  @RHF Final Energy:  -382.12567693721201

   => Energetics <=

    Nuclear Repulsion Energy =            431.1306938565156770
    One-Electron Energy =               -1371.4093718349656683
    Two-Electron Energy =                 558.1530010412379852
    Total Energy =                       -382.1256769372120061

Computation Completed

Properties will be evaluated at   0.000000,   0.000000,   0.000000 [a0]

Properties computed using the SCF density matrix

  Nuclear Dipole Moment: [e a0]
     X:    -4.9136      Y:    -4.4229      Z:    -9.3417

  Electronic Dipole Moment: [e a0]
     X:     4.1200      Y:     4.8687      Z:    10.3842

  Dipole Moment: [e a0]
     X:    -0.7936      Y:     0.4458      Z:     1.0425     Total:     1.3839

  Dipole Moment: [D]
     X:    -2.0170      Y:     1.1331      Z:     2.6497     Total:     3.5176

*** tstop() called on ds3 at Mon Apr 27 19:57:23 2020
Module time:
	user time   =      60.07 seconds =       1.00 minutes
	system time =      28.08 seconds =       0.47 minutes
	total time  =         85 seconds =       1.42 minutes
Total time:
	user time   =      60.07 seconds =       1.00 minutes
	system time =      28.08 seconds =       0.47 minutes
	total time  =         85 seconds =       1.42 minutes
                                     G D M A

                                 by Anthony Stone

                           version 2.2.06, 22 June 2011

               Distributed Multipoles from Gaussian wavefunctions

Starting at 19:57:23 on 27 Apr 2020

Using SCF density matrix from file ./SSI/SSI-092PRO-102HIE-1-dimer.test.10876.fchk

                         Distributed Multipole Analysis

Standard DMA

Positions and radii in angstrom
Multipole moments in atomic units, ea_0^k for rank k

C          x = -2.360606  y = -0.361102  z = -2.319196 angstrom
           Maximum rank =  0   Radius =  0.650 angstrom
                   Q00  =  -0.093646

C          x = -1.445606  y =  0.143898  z = -3.407196 angstrom
           Maximum rank =  0   Radius =  0.650 angstrom
                   Q00  =  -0.213840

C          x = -1.628606  y = -1.581102  z = -1.759196 angstrom
           Maximum rank =  0   Radius =  0.650 angstrom
                   Q00  =  -0.239826

H          x = -3.311606  y = -0.658102  z = -2.765196 angstrom
           Maximum rank =  0   Radius =  0.325 angstrom
                   Q00  =   0.051674

H          x = -2.530606  y =  0.394898  z = -1.552196 angstrom
           Maximum rank =  0   Radius =  0.325 angstrom
                   Q00  =   0.034092

H          x = -1.989606  y =  0.729898  z = -4.149196 angstrom
           Maximum rank =  0   Radius =  0.325 angstrom
                   Q00  =   0.073770

H          x = -0.648606  y =  0.742898  z = -2.964196 angstrom
           Maximum rank =  0   Radius =  0.325 angstrom
                   Q00  =   0.081005

H          x = -1.038606  y = -1.298102  z = -0.888196 angstrom
           Maximum rank =  0   Radius =  0.325 angstrom
                   Q00  =   0.098364

H          x = -1.015377  y = -0.766619  z = -3.849758 angstrom
           Maximum rank =  0   Radius =  0.325 angstrom
                   Q00  =   0.056471

H          x = -0.958176  y = -1.887884  z = -2.575534 angstrom
           Maximum rank =  0   Radius =  0.325 angstrom
                   Q00  =   0.072227

H          x = -2.354797  y = -2.359062  z = -1.480942 angstrom
           Maximum rank =  0   Radius =  0.325 angstrom
                   Q00  =   0.076906

C          x =  2.891394  y = -0.712102  z =  1.538804 angstrom
           Maximum rank =  0   Radius =  0.650 angstrom
                   Q00  =  -0.189470

C          x = -0.145606  y =  0.939898  z =  0.501804 angstrom
           Maximum rank =  0   Radius =  0.650 angstrom
                   Q00  =   0.454390

C          x =  1.590394  y =  0.008898  z =  1.446804 angstrom
           Maximum rank =  0   Radius =  0.650 angstrom
                   Q00  =   0.218096

C          x =  0.738394  y =  0.392898  z =  2.435804 angstrom
           Maximum rank =  0   Radius =  0.650 angstrom
                   Q00  =  -0.003859

N          x =  1.014394  y =  0.343898  z =  0.235804 angstrom
           Maximum rank =  0   Radius =  0.650 angstrom
                   Q00  =  -0.763614

N          x = -0.328606  y =  0.996898  z =  1.819804 angstrom
           Maximum rank =  0   Radius =  0.650 angstrom
                   Q00  =  -0.471761

H          x = -0.826606  y =  1.344898  z = -0.239196 angstrom
           Maximum rank =  0   Radius =  0.325 angstrom
                   Q00  =   0.122315

H          x = -1.131606  y =  1.415898  z =  2.279804 angstrom
           Maximum rank =  0   Radius =  0.325 angstrom
                   Q00  =   0.222790

H          x =  0.889394  y =  0.253898  z =  3.499804 angstrom
           Maximum rank =  0   Radius =  0.325 angstrom
                   Q00  =   0.104821

H          x =  3.131394  y = -0.846102  z =  2.594804 angstrom
           Maximum rank =  0   Radius =  0.325 angstrom
                   Q00  =   0.088507

H          x =  3.671394  y = -0.090102  z =  1.095804 angstrom
           Maximum rank =  0   Radius =  0.325 angstrom
                   Q00  =   0.109996

H          x =  2.874222  y = -1.690208  z =  1.035794 angstrom
           Maximum rank =  0   Radius =  0.325 angstrom
                   Q00  =   0.110592

Total multipoles referred to origin at
           x =   0.000000,  y =    0.000000,  z =    0.000000 angstrom
                   Q00  =  -0.000000

Finished at 19:57:23 on 27 Apr 2020

  DMA results are available in the Python driver through the
	  variable('DMA DISTRIBUTED MULTIPOLES')
  and
	  variable('DMA TOTAL MULTIPOLES')
  commands.

    Psi4 stopped on: Monday, 27 April 2020 07:57PM
    Psi4 wall time for execution: 0:01:25.46

*** Psi4 exiting successfully. Buy a developer a beer!
