                               Psi4 1.3.2 release

  ==> Input File <==

--------------------------------------------------------------------------
import numpy as np
set {scf_type pk
basis cc-pvdz
d_convergence 10
gdma_switch   0
gdma_limit    0
gdma_origin   [ 0.0,  0.0,  0.0 ]
}
molecule test {
    units Angstrom
    0 1
    --
    0 1
    C               -1.385357260428883    -1.024479048527793     2.224954960035499
    C                0.874642739571117    -0.724479048527793     1.091954960035499
    C               -0.500357260428883    -1.006479048527793     0.994954960035499
    C                1.655642739571117    -0.791479048527793    -0.034045039964501
    C               -1.076357260428883    -1.250479048527793    -0.260045039964501
    C                1.096642739571117    -0.962479048527793    -1.286045039964501
    C               -0.284357260428883    -1.232479048527793    -1.413045039964501
    H                1.323642739571117    -0.531479048527793     2.055954960035499
    H                2.718642739571117    -0.609479048527793     0.047954960035499
    H               -2.279357260428883    -0.442479048527793     1.998954960035499
    H               -0.878357260428883    -0.529479048527793     3.054954960035499
    H               -2.138357260428883    -1.443479048527793    -0.341045039964501
    H                1.723642739571117    -0.938479048527793    -2.169045039964502
    H               -0.724357260428883    -1.402479048527793    -2.386045039964501
    H               -1.686784260428883    -2.039999048527793     2.521354960035499
    C               -0.404357260428883     2.716520951472207    -0.084045039964501
    C                0.229642739571117     3.400520951472207    -1.294045039964501
    H                0.080642739571117     1.758520951472207     0.099954960035499
    H               -0.288357260428883     3.346520951472207     0.797954960035499
    H               -1.469357260428883     2.558520951472207    -0.243045039964501
    H               -0.311357260428883     4.320520951472208    -1.513045039964501
    H                0.205429739571117     2.725400951472206    -2.162165039964501
    H                1.274041739571117     3.650050951472207    -1.055365039964501

}
e, wfn = energy('scf', return_wfn=True)
gdma(wfn)
dmavals = variable('DMA DISTRIBUTED MULTIPOLES')
charges = np.array(dmavals)
print(charges)
np.save('SSI-004PHE-135LEU-2-dimer.npy', np.array(charges))--------------------------------------------------------------------------

*** tstart() called on ds3
*** at Sun Apr 26 19:26:38 2020

   => Loading Basis Set <=

    Name: CC-PVDZ
    Role: ORBITAL
    Keyword: BASIS
    atoms 1-7, 16-17  entry C          line   138 file /theoryfs2/ds/metcalf/miniconda2/envs/tf2gpu/share/psi4/basis/cc-pvdz.gbs
    atoms 8-15, 18-23 entry H          line    22 file /theoryfs2/ds/metcalf/miniconda2/envs/tf2gpu/share/psi4/basis/cc-pvdz.gbs

         ---------------------------------------------------------
                                   SCF
               by Justin Turney, Rob Parrish, Andy Simmonett
                          and Daniel G. A. Smith
                              RHF Reference
                        1 Threads,    500 MiB Core
         ---------------------------------------------------------

  ==> Geometry <==

    Molecular point group: c1
    Full point group: C1

    Geometry (in Angstrom), charge = 0, multiplicity = 1:

       Center              X                  Y                   Z               Mass
    ------------   -----------------  -----------------  -----------------  -----------------
         C           -1.385357260429    -1.024479048528     2.224954960035    12.000000000000
         C            0.874642739571    -0.724479048528     1.091954960035    12.000000000000
         C           -0.500357260429    -1.006479048528     0.994954960035    12.000000000000
         C            1.655642739571    -0.791479048528    -0.034045039965    12.000000000000
         C           -1.076357260429    -1.250479048528    -0.260045039965    12.000000000000
         C            1.096642739571    -0.962479048528    -1.286045039965    12.000000000000
         C           -0.284357260429    -1.232479048528    -1.413045039965    12.000000000000
         H            1.323642739571    -0.531479048528     2.055954960035     1.007825032230
         H            2.718642739571    -0.609479048528     0.047954960035     1.007825032230
         H           -2.279357260429    -0.442479048528     1.998954960035     1.007825032230
         H           -0.878357260429    -0.529479048528     3.054954960035     1.007825032230
         H           -2.138357260429    -1.443479048528    -0.341045039965     1.007825032230
         H            1.723642739571    -0.938479048528    -2.169045039965     1.007825032230
         H           -0.724357260429    -1.402479048528    -2.386045039965     1.007825032230
         H           -1.686784260429    -2.039999048528     2.521354960035     1.007825032230
         C           -0.404357260429     2.716520951472    -0.084045039965    12.000000000000
         C            0.229642739571     3.400520951472    -1.294045039965    12.000000000000
         H            0.080642739571     1.758520951472     0.099954960035     1.007825032230
         H           -0.288357260429     3.346520951472     0.797954960035     1.007825032230
         H           -1.469357260429     2.558520951472    -0.243045039965     1.007825032230
         H           -0.311357260429     4.320520951472    -1.513045039965     1.007825032230
         H            0.205429739571     2.725400951472    -2.162165039965     1.007825032230
         H            1.274041739571     3.650050951472    -1.055365039965     1.007825032230

  Running in c1 symmetry.

  Rotational constants: A =      0.05780  B =      0.03297  C =      0.02739 [cm^-1]
  Rotational constants: A =   1732.91290  B =    988.33374  C =    821.04749 [MHz]
  Nuclear repulsion =  416.950219611207160

  Charge       = 0
  Multiplicity = 1
  Electrons    = 68
  Nalpha       = 34
  Nbeta        = 34

  ==> Algorithm <==

  SCF Algorithm Type is PK.
  DIIS enabled.
  MOM disabled.
  Fractional occupation disabled.
  Guess Type is SAD.
  Energy threshold   = 1.00e-06
  Density threshold  = 1.00e-10
  Integral threshold = 0.00e+00

  ==> Primary Basis <==

  Basis Set: CC-PVDZ
    Blend: CC-PVDZ
    Number of shells: 96
    Number of basis function: 196
    Number of Cartesian functions: 205
    Spherical Harmonics?: true
    Max angular momentum: 2

  ==> Pre-Iterations <==

   -------------------------------------------------------
    Irrep   Nso     Nmo     Nalpha   Nbeta   Ndocc  Nsocc
   -------------------------------------------------------
     A        196     196       0       0       0       0
   -------------------------------------------------------
    Total     196     196      34      34      34       0
   -------------------------------------------------------

  ==> Integral Setup <==

  Using integral reordering PK algorithm.
  Sizing the integral batches needed.
  Building batch lookup table.
   Calculation information:
      Number of atoms:                  23
      Number of AO shells:              96
      Number of primitives:            268
      Number of atomic orbitals:       205
      Number of basis functions:       196

      Integral cutoff                 1.00e-12
      Number of threads:                 1

	Batch   1 pq = [       0,    9405] index = [             0,44231715] size =     44231715
	Batch   2 pq = [    9405,   13301] index = [      44231715,88464951] size =     44233236
	Batch   3 pq = [   13301,   16290] index = [      88464951,132690195] size =     44225244
	Batch   4 pq = [   16290,   18810] index = [     132690195,176917455] size =     44227260
	Batch   5 pq = [   18810,   19306] index = [     176917455,186370471] size =      9453016
  Task number: 17
  Buffer size: 11059200
  Buffer per thread: 2
  We computed 10634119 shell quartets total.
  Whereas there are 10841496 unique shell quartets.

  ==> DiskJK: Disk-Based J/K Matrices <==

    J tasked:                  Yes
    K tasked:                  Yes
    wK tasked:                  No
    Memory [MiB]:              375
    Schwarz Cutoff:          1E-12

    OpenMP threads:              1

  Minimum eigenvalue in the overlap matrix is 3.5070337465E-04.
  Using Symmetric Orthogonalization.

  SCF Guess: Superposition of Atomic Densities via on-the-fly atomic UHF.

  ==> Iterations <==

                        Total Energy        Delta E     RMS |[F,P]|

   @RHF iter SAD:  -347.82048340471255   -3.47820e+02   0.00000e+00
   @RHF iter   1:  -348.76682898531482   -9.46346e-01   2.88897e-03 DIIS
   @RHF iter   2:  -348.95839914206294   -1.91570e-01   1.19817e-03 DIIS
   @RHF iter   3:  -348.98840432868712   -3.00052e-02   2.57004e-04 DIIS
   @RHF iter   4:  -348.99086045090769   -2.45612e-03   5.06840e-05 DIIS
   @RHF iter   5:  -348.99092995011375   -6.94992e-05   1.61855e-05 DIIS
   @RHF iter   6:  -348.99093665534593   -6.70523e-06   4.35721e-06 DIIS
   @RHF iter   7:  -348.99093719098119   -5.35635e-07   1.27919e-06 DIIS
   @RHF iter   8:  -348.99093723972095   -4.87398e-08   2.84026e-07 DIIS
   @RHF iter   9:  -348.99093724427820   -4.55725e-09   1.17855e-07 DIIS
   @RHF iter  10:  -348.99093724510271   -8.24514e-10   4.86327e-08 DIIS
   @RHF iter  11:  -348.99093724534129   -2.38572e-10   2.09156e-08 DIIS
   @RHF iter  12:  -348.99093724539335   -5.20686e-11   1.09277e-08 DIIS
   @RHF iter  13:  -348.99093724540478   -1.14255e-11   3.83365e-09 DIIS
   @RHF iter  14:  -348.99093724540785   -3.06954e-12   1.15869e-09 DIIS
   @RHF iter  15:  -348.99093724540688    9.66338e-13   3.18678e-10 DIIS
   @RHF iter  16:  -348.99093724540637    5.11591e-13   7.76726e-11 DIIS
  Energy and wave function converged.

  ==> Post-Iterations <==

    Orbital Energies [Eh]
    ---------------------

    Doubly Occupied:

       1A    -11.244625     2A    -11.241106     3A    -11.234233
       4A    -11.233456     5A    -11.233004     6A    -11.231194
       7A    -11.230261     8A    -11.210881     9A    -11.203687
      10A     -1.152056    11A     -1.041412    12A     -1.014888
      13A     -1.008398    14A     -0.929831    15A     -0.826419
      16A     -0.823534    17A     -0.796356    18A     -0.691074
      19A     -0.631927    20A     -0.629548    21A     -0.591356
      22A     -0.587043    23A     -0.586365    24A     -0.575563
      25A     -0.559519    26A     -0.536144    27A     -0.495291
      28A     -0.487543    29A     -0.486571    30A     -0.479950
      31A     -0.474800    32A     -0.470192    33A     -0.335946
      34A     -0.319410

    Virtual:

      35A      0.135365    36A      0.137099    37A      0.176438
      38A      0.196658    39A      0.203551    40A      0.213970
      41A      0.242043    42A      0.247881    43A      0.254241
      44A      0.259463    45A      0.267221    46A      0.272076
      47A      0.284521    48A      0.293312    49A      0.298307
      50A      0.319795    51A      0.362961    52A      0.373073
      53A      0.404461    54A      0.449655    55A      0.458481
      56A      0.477066    57A      0.491836    58A      0.562793
      59A      0.585639    60A      0.590050    61A      0.596193
      62A      0.609268    63A      0.644876    64A      0.658698
      65A      0.673996    66A      0.682275    67A      0.696309
      68A      0.703621    69A      0.732870    70A      0.738308
      71A      0.745517    72A      0.756592    73A      0.773406
      74A      0.778786    75A      0.784581    76A      0.828233
      77A      0.832918    78A      0.851460    79A      0.860091
      80A      0.870452    81A      0.879538    82A      0.886380
      83A      0.892949    84A      0.895190    85A      0.897771
      86A      0.908737    87A      0.919157    88A      0.923771
      89A      0.924398    90A      0.939073    91A      0.947294
      92A      0.963475    93A      0.980746    94A      0.990223
      95A      1.033311    96A      1.100247    97A      1.125286
      98A      1.129468    99A      1.134555   100A      1.136162
     101A      1.156942   102A      1.168793   103A      1.195310
     104A      1.226879   105A      1.237206   106A      1.244492
     107A      1.252903   108A      1.290851   109A      1.309189
     110A      1.316360   111A      1.321819   112A      1.359766
     113A      1.421259   114A      1.485072   115A      1.489132
     116A      1.505587   117A      1.519687   118A      1.553023
     119A      1.599886   120A      1.604193   121A      1.673232
     122A      1.687295   123A      1.689794   124A      1.715803
     125A      1.732145   126A      1.743093   127A      1.757767
     128A      1.788391   129A      1.825738   130A      1.850800
     131A      1.866475   132A      1.873443   133A      1.880467
     134A      1.884032   135A      1.895664   136A      1.911259
     137A      1.916085   138A      1.931043   139A      1.935173
     140A      1.938731   141A      1.949440   142A      1.957644
     143A      1.960370   144A      1.965965   145A      1.968767
     146A      1.984747   147A      1.996121   148A      2.004579
     149A      2.032722   150A      2.056603   151A      2.081810
     152A      2.096776   153A      2.118058   154A      2.123063
     155A      2.137183   156A      2.157540   157A      2.166554
     158A      2.176525   159A      2.188174   160A      2.247049
     161A      2.271066   162A      2.284427   163A      2.292170
     164A      2.304679   165A      2.312672   166A      2.331186
     167A      2.334413   168A      2.453842   169A      2.465306
     170A      2.466617   171A      2.476789   172A      2.510632
     173A      2.524007   174A      2.577189   175A      2.590135
     176A      2.621795   177A      2.729397   178A      2.747968
     179A      2.770223   180A      2.773990   181A      2.781373
     182A      2.800427   183A      2.813367   184A      2.840360
     185A      2.854114   186A      2.860357   187A      2.875531
     188A      2.960747   189A      2.969833   190A      2.972926
     191A      2.998932   192A      3.022343   193A      3.137411
     194A      3.191995   195A      3.290027   196A      3.943338

    Final Occupation by Irrep:
              A
    DOCC [    34 ]

  @RHF Final Energy:  -348.99093724540637

   => Energetics <=

    Nuclear Repulsion Energy =            416.9502196112071601
    One-Electron Energy =               -1296.6951462292463475
    Two-Electron Energy =                 530.7539893726328728
    Total Energy =                       -348.9909372454063714

Computation Completed

Properties will be evaluated at   0.000000,   0.000000,   0.000000 [a0]

Properties computed using the SCF density matrix

  Nuclear Dipole Moment: [e a0]
     X:    -2.2970      Y:     9.7705      Z:     0.6631

  Electronic Dipole Moment: [e a0]
     X:     2.2165      Y:    -9.8726      Z:    -0.5448

  Dipole Moment: [e a0]
     X:    -0.0805      Y:    -0.1021      Z:     0.1183     Total:     0.1758

  Dipole Moment: [D]
     X:    -0.2046      Y:    -0.2596      Z:     0.3007     Total:     0.4468

*** tstop() called on ds3 at Sun Apr 26 19:28:09 2020
Module time:
	user time   =      69.38 seconds =       1.16 minutes
	system time =      24.36 seconds =       0.41 minutes
	total time  =         91 seconds =       1.52 minutes
Total time:
	user time   =      69.38 seconds =       1.16 minutes
	system time =      24.36 seconds =       0.41 minutes
	total time  =         91 seconds =       1.52 minutes
                                     G D M A

                                 by Anthony Stone

                           version 2.2.06, 22 June 2011

               Distributed Multipoles from Gaussian wavefunctions

Starting at 19:28:9 on 26 Apr 2020

Using SCF density matrix from file ./SSI/SSI-004PHE-135LEU-2-dimer.test.6769.fchk

                         Distributed Multipole Analysis

Standard DMA

Positions and radii in angstrom
Multipole moments in atomic units, ea_0^k for rank k

C          x = -1.385357  y = -1.024479  z =  2.224955 angstrom
           Maximum rank =  0   Radius =  0.650 angstrom
                   Q00  =  -0.201076

C          x =  0.874643  y = -0.724479  z =  1.091955 angstrom
           Maximum rank =  0   Radius =  0.650 angstrom
                   Q00  =  -0.087536

C          x = -0.500357  y = -1.006479  z =  0.994955 angstrom
           Maximum rank =  0   Radius =  0.650 angstrom
                   Q00  =  -0.069322

C          x =  1.655643  y = -0.791479  z = -0.034045 angstrom
           Maximum rank =  0   Radius =  0.650 angstrom
                   Q00  =   0.005121

C          x = -1.076357  y = -1.250479  z = -0.260045 angstrom
           Maximum rank =  0   Radius =  0.650 angstrom
                   Q00  =  -0.093105

C          x =  1.096643  y = -0.962479  z = -1.286045 angstrom
           Maximum rank =  0   Radius =  0.650 angstrom
                   Q00  =  -0.088861

C          x = -0.284357  y = -1.232479  z = -1.413045 angstrom
           Maximum rank =  0   Radius =  0.650 angstrom
                   Q00  =  -0.076881

H          x =  1.323643  y = -0.531479  z =  2.055955 angstrom
           Maximum rank =  0   Radius =  0.325 angstrom
                   Q00  =   0.060895

H          x =  2.718643  y = -0.609479  z =  0.047955 angstrom
           Maximum rank =  0   Radius =  0.325 angstrom
                   Q00  =   0.061185

H          x = -2.279357  y = -0.442479  z =  1.998955 angstrom
           Maximum rank =  0   Radius =  0.325 angstrom
                   Q00  =   0.097897

H          x = -0.878357  y = -0.529479  z =  3.054955 angstrom
           Maximum rank =  0   Radius =  0.325 angstrom
                   Q00  =   0.098510

H          x = -2.138357  y = -1.443479  z = -0.341045 angstrom
           Maximum rank =  0   Radius =  0.325 angstrom
                   Q00  =   0.058913

H          x =  1.723643  y = -0.938479  z = -2.169045 angstrom
           Maximum rank =  0   Radius =  0.325 angstrom
                   Q00  =   0.064094

H          x = -0.724357  y = -1.402479  z = -2.386045 angstrom
           Maximum rank =  0   Radius =  0.325 angstrom
                   Q00  =   0.070158

H          x = -1.686784  y = -2.039999  z =  2.521355 angstrom
           Maximum rank =  0   Radius =  0.325 angstrom
                   Q00  =   0.104853

C          x = -0.404357  y =  2.716521  z = -0.084045 angstrom
           Maximum rank =  0   Radius =  0.650 angstrom
                   Q00  =  -0.235644

C          x =  0.229643  y =  3.400521  z = -1.294045 angstrom
           Maximum rank =  0   Radius =  0.650 angstrom
                   Q00  =  -0.237732

H          x =  0.080643  y =  1.758521  z =  0.099955 angstrom
           Maximum rank =  0   Radius =  0.325 angstrom
                   Q00  =   0.100386

H          x = -0.288357  y =  3.346521  z =  0.797955 angstrom
           Maximum rank =  0   Radius =  0.325 angstrom
                   Q00  =   0.068077

H          x = -1.469357  y =  2.558521  z = -0.243045 angstrom
           Maximum rank =  0   Radius =  0.325 angstrom
                   Q00  =   0.073758

H          x = -0.311357  y =  4.320521  z = -1.513045 angstrom
           Maximum rank =  0   Radius =  0.325 angstrom
                   Q00  =   0.074609

H          x =  0.205430  y =  2.725401  z = -2.162165 angstrom
           Maximum rank =  0   Radius =  0.325 angstrom
                   Q00  =   0.078152

H          x =  1.274042  y =  3.650051  z = -1.055365 angstrom
           Maximum rank =  0   Radius =  0.325 angstrom
                   Q00  =   0.073550

Total multipoles referred to origin at
           x =   0.000000,  y =    0.000000,  z =    0.000000 angstrom
                   Q00  =  -0.000000

Finished at 19:28:9 on 26 Apr 2020

  DMA results are available in the Python driver through the
	  variable('DMA DISTRIBUTED MULTIPOLES')
  and
	  variable('DMA TOTAL MULTIPOLES')
  commands.

    Psi4 stopped on: Sunday, 26 April 2020 07:28PM
    Psi4 wall time for execution: 0:01:31.07

*** Psi4 exiting successfully. Buy a developer a beer!
