                               Psi4 1.3.2 release

  ==> Input File <==

--------------------------------------------------------------------------
import numpy as np
set {scf_type pk
basis cc-pvdz
d_convergence 10
gdma_switch   0
gdma_limit    0
gdma_origin   [ 0.0,  0.0,  0.0 ]
}
molecule test {
    units Angstrom
    0 1
    --
    0 1
    C               -0.576149905810458    -0.885741331751984     0.635003028651839
    C               -1.721149905810458    -1.541741331751984     1.451003028651839
    C                0.534850094189542    -1.930741331751984     0.708003028651839
    H               -0.257149905810458     0.038258668248016     1.109003028651839
    H               -0.836149905810458    -0.694741331751984    -0.409996971348161
    H               -1.515149905810458    -1.501741331751984     2.524003028651839
    H               -2.678149905810458    -1.066741331751984     1.250003028651839
    H                1.168850094189542    -1.913741331751984    -0.182996971348161
    H               -1.675069905810458    -2.574241331751984     1.074433028651839
    H               -0.023899905810458    -2.878241331751984     0.716993028651839
    H                1.160400094189542    -1.803041331751984     1.603763028651839
    C                1.289850094189542     1.617258668248016    -1.058996971348161
    C                0.429850094189542     2.695258668248016    -1.689996971348161
    H                1.286850094189542     0.731258668248016    -1.688996971348161
    H                2.304850094189542     1.981258668248016    -0.951996971348161
    H                0.894850094189542     1.368258668248016    -0.077996971348161
    H                0.820850094189542     2.958258668248015    -2.671996971348161
    H               -0.598539905810458     2.318458668248016    -1.792046971348161
    H                0.456470094189542     3.580958668248016    -1.038156971348161

}
e, wfn = energy('scf', return_wfn=True)
gdma(wfn)
dmavals = variable('DMA DISTRIBUTED MULTIPOLES')
charges = np.array(dmavals)
print(charges)
np.save('SSI-207PRO-216VAL-1-dimer.npy', np.array(charges))--------------------------------------------------------------------------

*** tstart() called on ds3
*** at Tue Apr 28 14:31:58 2020

   => Loading Basis Set <=

    Name: CC-PVDZ
    Role: ORBITAL
    Keyword: BASIS
    atoms 1-3, 12-13  entry C          line   138 file /theoryfs2/ds/metcalf/miniconda2/envs/tf2gpu/share/psi4/basis/cc-pvdz.gbs
    atoms 4-11, 14-19 entry H          line    22 file /theoryfs2/ds/metcalf/miniconda2/envs/tf2gpu/share/psi4/basis/cc-pvdz.gbs

         ---------------------------------------------------------
                                   SCF
               by Justin Turney, Rob Parrish, Andy Simmonett
                          and Daniel G. A. Smith
                              RHF Reference
                        1 Threads,    500 MiB Core
         ---------------------------------------------------------

  ==> Geometry <==

    Molecular point group: c1
    Full point group: C1

    Geometry (in Angstrom), charge = 0, multiplicity = 1:

       Center              X                  Y                   Z               Mass
    ------------   -----------------  -----------------  -----------------  -----------------
         C           -0.576149905810    -0.885741331752     0.635003028652    12.000000000000
         C           -1.721149905810    -1.541741331752     1.451003028652    12.000000000000
         C            0.534850094190    -1.930741331752     0.708003028652    12.000000000000
         H           -0.257149905810     0.038258668248     1.109003028652     1.007825032230
         H           -0.836149905810    -0.694741331752    -0.409996971348     1.007825032230
         H           -1.515149905810    -1.501741331752     2.524003028652     1.007825032230
         H           -2.678149905810    -1.066741331752     1.250003028652     1.007825032230
         H            1.168850094190    -1.913741331752    -0.182996971348     1.007825032230
         H           -1.675069905810    -2.574241331752     1.074433028652     1.007825032230
         H           -0.023899905810    -2.878241331752     0.716993028652     1.007825032230
         H            1.160400094190    -1.803041331752     1.603763028652     1.007825032230
         C            1.289850094190     1.617258668248    -1.058996971348    12.000000000000
         C            0.429850094190     2.695258668248    -1.689996971348    12.000000000000
         H            1.286850094190     0.731258668248    -1.688996971348     1.007825032230
         H            2.304850094190     1.981258668248    -0.951996971348     1.007825032230
         H            0.894850094190     1.368258668248    -0.077996971348     1.007825032230
         H            0.820850094190     2.958258668248    -2.671996971348     1.007825032230
         H           -0.598539905810     2.318458668248    -1.792046971348     1.007825032230
         H            0.456470094190     3.580958668248    -1.038156971348     1.007825032230

  Running in c1 symmetry.

  Rotational constants: A =      0.24713  B =      0.04167  C =      0.03709 [cm^-1]
  Rotational constants: A =   7408.88314  B =   1249.25991  C =   1111.82641 [MHz]
  Nuclear repulsion =  180.230737807641759

  Charge       = 0
  Multiplicity = 1
  Electrons    = 44
  Nalpha       = 22
  Nbeta        = 22

  ==> Algorithm <==

  SCF Algorithm Type is PK.
  DIIS enabled.
  MOM disabled.
  Fractional occupation disabled.
  Guess Type is SAD.
  Energy threshold   = 1.00e-06
  Density threshold  = 1.00e-10
  Integral threshold = 0.00e+00

  ==> Primary Basis <==

  Basis Set: CC-PVDZ
    Blend: CC-PVDZ
    Number of shells: 72
    Number of basis function: 140
    Number of Cartesian functions: 145
    Spherical Harmonics?: true
    Max angular momentum: 2

  ==> Pre-Iterations <==

   -------------------------------------------------------
    Irrep   Nso     Nmo     Nalpha   Nbeta   Ndocc  Nsocc
   -------------------------------------------------------
     A        140     140       0       0       0       0
   -------------------------------------------------------
    Total     140     140      22      22      22       0
   -------------------------------------------------------

  ==> Integral Setup <==

  Using integral reordering PK algorithm.
  Sizing the integral batches needed.
  Building batch lookup table.
   Calculation information:
      Number of atoms:                  19
      Number of AO shells:              72
      Number of primitives:            180
      Number of atomic orbitals:       145
      Number of basis functions:       140

      Integral cutoff                 1.00e-12
      Number of threads:                 1

	Batch   1 pq = [       0,    9405] index = [             0,44231715] size =     44231715
	Batch   2 pq = [    9405,    9870] index = [      44231715,48713385] size =      4481670
  Task number: 5
  Buffer size: 11059200
  Buffer per thread: 2
  We computed 2869393 shell quartets total.
  Whereas there are 3454506 unique shell quartets.

  ==> DiskJK: Disk-Based J/K Matrices <==

    J tasked:                  Yes
    K tasked:                  Yes
    wK tasked:                  No
    Memory [MiB]:              375
    Schwarz Cutoff:          1E-12

    OpenMP threads:              1

  Minimum eigenvalue in the overlap matrix is 5.1837943913E-03.
  Using Symmetric Orthogonalization.

  SCF Guess: Superposition of Atomic Densities via on-the-fly atomic UHF.

  ==> Iterations <==

                        Total Energy        Delta E     RMS |[F,P]|

   @RHF iter SAD:  -196.46809334400368   -1.96468e+02   0.00000e+00
   @RHF iter   1:  -197.29209967404029   -8.24006e-01   3.82640e-03 DIIS
   @RHF iter   2:  -197.45288059791659   -1.60781e-01   1.65151e-03 DIIS
   @RHF iter   3:  -197.48161166652301   -2.87311e-02   3.27209e-04 DIIS
   @RHF iter   4:  -197.48380688387797   -2.19522e-03   4.84271e-05 DIIS
   @RHF iter   5:  -197.48384547840880   -3.85945e-05   1.52529e-05 DIIS
   @RHF iter   6:  -197.48384897116017   -3.49275e-06   2.53956e-06 DIIS
   @RHF iter   7:  -197.48384908839151   -1.17231e-07   4.40348e-07 DIIS
   @RHF iter   8:  -197.48384909233781   -3.94630e-09   9.64730e-08 DIIS
   @RHF iter   9:  -197.48384909252289   -1.85082e-10   3.11680e-08 DIIS
   @RHF iter  10:  -197.48384909254432   -2.14300e-11   7.92880e-09 DIIS
   @RHF iter  11:  -197.48384909254474   -4.26326e-13   1.64222e-09 DIIS
   @RHF iter  12:  -197.48384909254492   -1.70530e-13   3.65902e-10 DIIS
   @RHF iter  13:  -197.48384909254594   -1.02318e-12   8.09050e-11 DIIS
  Energy and wave function converged.

  ==> Post-Iterations <==

    Orbital Energies [Eh]
    ---------------------

    Doubly Occupied:

       1A    -11.219291     2A    -11.217418     3A    -11.216857
       4A    -11.214175     5A    -11.212238     6A     -1.059667
       7A     -1.021778     8A     -0.911634     9A     -0.834326
      10A     -0.800468    11A     -0.636402    12A     -0.609990
      13A     -0.600727    14A     -0.599803    15A     -0.539045
      16A     -0.511086    17A     -0.499668    18A     -0.489540
      19A     -0.485053    20A     -0.475764    21A     -0.471028
      22A     -0.456569

    Virtual:

      23A      0.172515    24A      0.194345    25A      0.212827
      26A      0.221104    27A      0.234939    28A      0.249980
      29A      0.255727    30A      0.268603    31A      0.278024
      32A      0.281402    33A      0.302408    34A      0.314896
      35A      0.334665    36A      0.368287    37A      0.379598
      38A      0.403609    39A      0.418007    40A      0.561791
      41A      0.578049    42A      0.589458    43A      0.602726
      44A      0.627695    45A      0.628395    46A      0.643605
      47A      0.667631    48A      0.679049    49A      0.766957
      50A      0.784069    51A      0.828922    52A      0.843280
      53A      0.861060    54A      0.875838    55A      0.885481
      56A      0.885952    57A      0.894773    58A      0.897989
      59A      0.904715    60A      0.908319    61A      0.914473
      62A      0.922237    63A      0.942173    64A      0.947016
      65A      0.961521    66A      0.966309    67A      0.981993
      68A      1.009917    69A      1.091518    70A      1.128814
      71A      1.131128    72A      1.154942    73A      1.198475
      74A      1.266593    75A      1.385105    76A      1.462540
      77A      1.475010    78A      1.485916    79A      1.497688
      80A      1.549536    81A      1.611863    82A      1.626092
      83A      1.638805    84A      1.677513    85A      1.704591
      86A      1.739604    87A      1.749527    88A      1.812023
      89A      1.851343    90A      1.859586    91A      1.862735
      92A      1.883260    93A      1.898770    94A      1.901397
      95A      1.930946    96A      1.936989    97A      1.939278
      98A      1.952477    99A      1.964540   100A      1.967904
     101A      1.978974   102A      1.986377   103A      2.004647
     104A      2.016410   105A      2.035522   106A      2.057167
     107A      2.090453   108A      2.115308   109A      2.124555
     110A      2.150655   111A      2.172164   112A      2.248669
     113A      2.291487   114A      2.309704   115A      2.317689
     116A      2.345147   117A      2.414310   118A      2.436578
     119A      2.466141   120A      2.495155   121A      2.514113
     122A      2.536913   123A      2.578297   124A      2.588358
     125A      2.640141   126A      2.680265   127A      2.760632
     128A      2.766343   129A      2.769673   130A      2.788564
     131A      2.811274   132A      2.831731   133A      2.843955
     134A      2.855192   135A      2.867503   136A      2.923308
     137A      2.927159   138A      2.980289   139A      2.986119
     140A      3.052340

    Final Occupation by Irrep:
              A
    DOCC [    22 ]

  @RHF Final Energy:  -197.48384909254594

   => Energetics <=

    Nuclear Repulsion Energy =            180.2307378076417592
    One-Electron Energy =                -621.2641203018918077
    Two-Electron Energy =                 243.5495334017041387
    Total Energy =                       -197.4838490925459382

Computation Completed

Properties will be evaluated at   0.000000,   0.000000,   0.000000 [a0]

Properties computed using the SCF density matrix

  Nuclear Dipole Moment: [e a0]
     X:     0.4772      Y:     0.5102      Z:    -0.5025

  Electronic Dipole Moment: [e a0]
     X:    -0.4657      Y:    -0.4818      Z:     0.5034

  Dipole Moment: [e a0]
     X:     0.0114      Y:     0.0284      Z:     0.0009     Total:     0.0306

  Dipole Moment: [D]
     X:     0.0291      Y:     0.0721      Z:     0.0023     Total:     0.0777

*** tstop() called on ds3 at Tue Apr 28 14:32:37 2020
Module time:
	user time   =      14.53 seconds =       0.24 minutes
	system time =       5.26 seconds =       0.09 minutes
	total time  =         39 seconds =       0.65 minutes
Total time:
	user time   =      14.53 seconds =       0.24 minutes
	system time =       5.26 seconds =       0.09 minutes
	total time  =         39 seconds =       0.65 minutes
                                     G D M A

                                 by Anthony Stone

                           version 2.2.06, 22 June 2011

               Distributed Multipoles from Gaussian wavefunctions

Starting at 14:32:37 on 28 Apr 2020

Using SCF density matrix from file ./SSI/SSI-207PRO-216VAL-1-dimer.test.26590.fchk

                         Distributed Multipole Analysis

Standard DMA

Positions and radii in angstrom
Multipole moments in atomic units, ea_0^k for rank k

C          x = -0.576150  y = -0.885741  z =  0.635003 angstrom
           Maximum rank =  0   Radius =  0.650 angstrom
                   Q00  =  -0.102198

C          x = -1.721150  y = -1.541741  z =  1.451003 angstrom
           Maximum rank =  0   Radius =  0.650 angstrom
                   Q00  =  -0.221251

C          x =  0.534850  y = -1.930741  z =  0.708003 angstrom
           Maximum rank =  0   Radius =  0.650 angstrom
                   Q00  =  -0.226351

H          x = -0.257150  y =  0.038259  z =  1.109003 angstrom
           Maximum rank =  0   Radius =  0.325 angstrom
                   Q00  =   0.052022

H          x = -0.836150  y = -0.694741  z = -0.409997 angstrom
           Maximum rank =  0   Radius =  0.325 angstrom
                   Q00  =   0.057554

H          x = -1.515150  y = -1.501741  z =  2.524003 angstrom
           Maximum rank =  0   Radius =  0.325 angstrom
                   Q00  =   0.084179

H          x = -2.678150  y = -1.066741  z =  1.250003 angstrom
           Maximum rank =  0   Radius =  0.325 angstrom
                   Q00  =   0.085121

H          x =  1.168850  y = -1.913741  z = -0.182997 angstrom
           Maximum rank =  0   Radius =  0.325 angstrom
                   Q00  =   0.080662

H          x = -1.675070  y = -2.574241  z =  1.074433 angstrom
           Maximum rank =  0   Radius =  0.325 angstrom
                   Q00  =   0.053126

H          x = -0.023900  y = -2.878241  z =  0.716993 angstrom
           Maximum rank =  0   Radius =  0.325 angstrom
                   Q00  =   0.057791

H          x =  1.160400  y = -1.803041  z =  1.603763 angstrom
           Maximum rank =  0   Radius =  0.325 angstrom
                   Q00  =   0.081985

C          x =  1.289850  y =  1.617259  z = -1.058997 angstrom
           Maximum rank =  0   Radius =  0.650 angstrom
                   Q00  =  -0.234491

C          x =  0.429850  y =  2.695259  z = -1.689997 angstrom
           Maximum rank =  0   Radius =  0.650 angstrom
                   Q00  =  -0.233245

H          x =  1.286850  y =  0.731259  z = -1.688997 angstrom
           Maximum rank =  0   Radius =  0.325 angstrom
                   Q00  =   0.075308

H          x =  2.304850  y =  1.981259  z = -0.951997 angstrom
           Maximum rank =  0   Radius =  0.325 angstrom
                   Q00  =   0.076590

H          x =  0.894850  y =  1.368259  z = -0.077997 angstrom
           Maximum rank =  0   Radius =  0.325 angstrom
                   Q00  =   0.083405

H          x =  0.820850  y =  2.958259  z = -2.671997 angstrom
           Maximum rank =  0   Radius =  0.325 angstrom
                   Q00  =   0.079077

H          x = -0.598540  y =  2.318459  z = -1.792047 angstrom
           Maximum rank =  0   Radius =  0.325 angstrom
                   Q00  =   0.075593

H          x =  0.456470  y =  3.580959  z = -1.038157 angstrom
           Maximum rank =  0   Radius =  0.325 angstrom
                   Q00  =   0.075123

Total multipoles referred to origin at
           x =   0.000000,  y =    0.000000,  z =    0.000000 angstrom
                   Q00  =  -0.000000

Finished at 14:32:37 on 28 Apr 2020

  DMA results are available in the Python driver through the
	  variable('DMA DISTRIBUTED MULTIPOLES')
  and
	  variable('DMA TOTAL MULTIPOLES')
  commands.

    Psi4 stopped on: Tuesday, 28 April 2020 02:32PM
    Psi4 wall time for execution: 0:00:39.44

*** Psi4 exiting successfully. Buy a developer a beer!
