                               Psi4 1.3.2 release

  ==> Input File <==

--------------------------------------------------------------------------
import numpy as np
set {scf_type pk
basis cc-pvdz
d_convergence 10
gdma_switch   0
gdma_limit    0
gdma_origin   [ 0.0,  0.0,  0.0 ]
}
molecule test {
    units Angstrom
    0 1
    --
    0 1
    C                1.432224581545509     2.445506239777397    -0.937181204316826
    C                0.928224581545509     0.559506239777397     0.630818795683174
    C                1.485224581545509     0.999506239777397    -0.565181204316826
    C                1.001224581545509    -0.782493760222603     0.993818795683174
    C                1.637224581545509    -1.687493760222603     0.165818795683174
    C                2.126224581545510     0.092506239777397    -1.388181204316826
    C                2.198224581545509    -1.254493760222603    -1.026181204316826
    H                0.431224581545509     1.262506239777397     1.284818795683174
    H                0.561224581545509    -1.114493760222603     1.924818795683174
    H                2.260224581545510     2.689506239777397    -1.594181204316826
    H                1.563224581545509     3.030506239777397    -0.026181204316826
    H                1.696224581545509    -2.728493760222603     0.450818795683174
    H                2.569224581545509     0.420506239777397    -2.318181204316827
    H                2.699224581545509    -1.955493760222603    -1.677181204316826
    H                0.489064581545509     2.749796239777397    -1.414531204316826
    C               -2.748775418454491    -0.125493760222603     0.937818795683174
    C               -3.745775418454491     1.005506239777397     0.696818795683174
    C               -3.162775418454491    -1.475493760222603     0.355818795683174
    H               -1.811775418454491     0.149506239777397     0.455818795683174
    H               -2.547775418454491    -0.222493760222603     2.005818795683174
    H               -4.647775418454491     0.802506239777397     1.275818795683174
    H               -3.417775418454491    -1.376493760222603    -0.699181204316826
    H               -2.282775418454491    -2.121493760222603     0.395818795683174
    H               -3.983495418454491     1.101046239777397    -0.372931204316826
    H               -3.311495418454490     1.957886239777397     1.034998795683174
    H               -3.974455418454490    -1.990323760222603     0.890728795683174

}
e, wfn = energy('scf', return_wfn=True)
gdma(wfn)
dmavals = variable('DMA DISTRIBUTED MULTIPOLES')
charges = np.array(dmavals)
print(charges)
np.save('SSI-030PHE-061GLU-2-dimer.npy', np.array(charges))--------------------------------------------------------------------------

*** tstart() called on ds3
*** at Mon Apr 27 19:27:00 2020

   => Loading Basis Set <=

    Name: CC-PVDZ
    Role: ORBITAL
    Keyword: BASIS
    atoms 1-7, 16-18  entry C          line   138 file /theoryfs2/ds/metcalf/miniconda2/envs/tf2gpu/share/psi4/basis/cc-pvdz.gbs
    atoms 8-15, 19-26 entry H          line    22 file /theoryfs2/ds/metcalf/miniconda2/envs/tf2gpu/share/psi4/basis/cc-pvdz.gbs

         ---------------------------------------------------------
                                   SCF
               by Justin Turney, Rob Parrish, Andy Simmonett
                          and Daniel G. A. Smith
                              RHF Reference
                        1 Threads,    500 MiB Core
         ---------------------------------------------------------

  ==> Geometry <==

    Molecular point group: c1
    Full point group: C1

    Geometry (in Angstrom), charge = 0, multiplicity = 1:

       Center              X                  Y                   Z               Mass
    ------------   -----------------  -----------------  -----------------  -----------------
         C            1.432224581546     2.445506239777    -0.937181204317    12.000000000000
         C            0.928224581546     0.559506239777     0.630818795683    12.000000000000
         C            1.485224581546     0.999506239777    -0.565181204317    12.000000000000
         C            1.001224581546    -0.782493760223     0.993818795683    12.000000000000
         C            1.637224581546    -1.687493760223     0.165818795683    12.000000000000
         C            2.126224581546     0.092506239777    -1.388181204317    12.000000000000
         C            2.198224581546    -1.254493760223    -1.026181204317    12.000000000000
         H            0.431224581546     1.262506239777     1.284818795683     1.007825032230
         H            0.561224581546    -1.114493760223     1.924818795683     1.007825032230
         H            2.260224581546     2.689506239777    -1.594181204317     1.007825032230
         H            1.563224581546     3.030506239777    -0.026181204317     1.007825032230
         H            1.696224581546    -2.728493760223     0.450818795683     1.007825032230
         H            2.569224581546     0.420506239777    -2.318181204317     1.007825032230
         H            2.699224581546    -1.955493760223    -1.677181204317     1.007825032230
         H            0.489064581546     2.749796239777    -1.414531204317     1.007825032230
         C           -2.748775418454    -0.125493760223     0.937818795683    12.000000000000
         C           -3.745775418454     1.005506239777     0.696818795683    12.000000000000
         C           -3.162775418454    -1.475493760223     0.355818795683    12.000000000000
         H           -1.811775418454     0.149506239777     0.455818795683     1.007825032230
         H           -2.547775418454    -0.222493760223     2.005818795683     1.007825032230
         H           -4.647775418454     0.802506239777     1.275818795683     1.007825032230
         H           -3.417775418454    -1.376493760223    -0.699181204317     1.007825032230
         H           -2.282775418454    -2.121493760223     0.395818795683     1.007825032230
         H           -3.983495418454     1.101046239777    -0.372931204317     1.007825032230
         H           -3.311495418454     1.957886239777     1.034998795683     1.007825032230
         H           -3.974455418454    -1.990323760223     0.890728795683     1.007825032230

  Running in c1 symmetry.

  Rotational constants: A =      0.05487  B =      0.02052  C =      0.01677 [cm^-1]
  Rotational constants: A =   1645.02218  B =    615.12244  C =    502.70682 [MHz]
  Nuclear repulsion =  486.899038773291409

  Charge       = 0
  Multiplicity = 1
  Electrons    = 76
  Nalpha       = 38
  Nbeta        = 38

  ==> Algorithm <==

  SCF Algorithm Type is PK.
  DIIS enabled.
  MOM disabled.
  Fractional occupation disabled.
  Guess Type is SAD.
  Energy threshold   = 1.00e-06
  Density threshold  = 1.00e-10
  Integral threshold = 0.00e+00

  ==> Primary Basis <==

  Basis Set: CC-PVDZ
    Blend: CC-PVDZ
    Number of shells: 108
    Number of basis function: 220
    Number of Cartesian functions: 230
    Spherical Harmonics?: true
    Max angular momentum: 2

  ==> Pre-Iterations <==

   -------------------------------------------------------
    Irrep   Nso     Nmo     Nalpha   Nbeta   Ndocc  Nsocc
   -------------------------------------------------------
     A        220     220       0       0       0       0
   -------------------------------------------------------
    Total     220     220      38      38      38       0
   -------------------------------------------------------

  ==> Integral Setup <==

  Using integral reordering PK algorithm.
  Sizing the integral batches needed.
  Building batch lookup table.
   Calculation information:
      Number of atoms:                  26
      Number of AO shells:             108
      Number of primitives:            300
      Number of atomic orbitals:       230
      Number of basis functions:       220

      Integral cutoff                 1.00e-12
      Number of threads:                 1

	Batch   1 pq = [       0,    9405] index = [             0,44231715] size =     44231715
	Batch   2 pq = [    9405,   13301] index = [      44231715,88464951] size =     44233236
	Batch   3 pq = [   13301,   16290] index = [      88464951,132690195] size =     44225244
	Batch   4 pq = [   16290,   18810] index = [     132690195,176917455] size =     44227260
	Batch   5 pq = [   18810,   21030] index = [     176917455,221140965] size =     44223510
	Batch   6 pq = [   21030,   23037] index = [     221140965,265363203] size =     44222238
	Batch   7 pq = [   23037,   24310] index = [     265363203,295500205] size =     30137002
  Task number: 27
  Buffer size: 11059200
  Buffer per thread: 2
  We computed 15237240 shell quartets total.
  Whereas there are 17325441 unique shell quartets.

  ==> DiskJK: Disk-Based J/K Matrices <==

    J tasked:                  Yes
    K tasked:                  Yes
    wK tasked:                  No
    Memory [MiB]:              375
    Schwarz Cutoff:          1E-12

    OpenMP threads:              1

  Minimum eigenvalue in the overlap matrix is 3.0338846568E-04.
  Using Symmetric Orthogonalization.

  SCF Guess: Superposition of Atomic Densities via on-the-fly atomic UHF.

  ==> Iterations <==

                        Total Energy        Delta E     RMS |[F,P]|

   @RHF iter SAD:  -386.94061952509674   -3.86941e+02   0.00000e+00
   @RHF iter   1:  -387.76896714142174   -8.28348e-01   2.76944e-03 DIIS
   @RHF iter   2:  -387.98958874130165   -2.20622e-01   1.17310e-03 DIIS
   @RHF iter   3:  -388.02565443630277   -3.60657e-02   2.51464e-04 DIIS
   @RHF iter   4:  -388.02855171877991   -2.89728e-03   5.43896e-05 DIIS
   @RHF iter   5:  -388.02864664725354   -9.49285e-05   1.72311e-05 DIIS
   @RHF iter   6:  -388.02865578037932   -9.13313e-06   4.99709e-06 DIIS
   @RHF iter   7:  -388.02865664637500   -8.65996e-07   1.12657e-06 DIIS
   @RHF iter   8:  -388.02865669722968   -5.08547e-08   2.59202e-07 DIIS
   @RHF iter   9:  -388.02865670169138   -4.46170e-09   9.78738e-08 DIIS
   @RHF iter  10:  -388.02865670241573   -7.24356e-10   4.55484e-08 DIIS
   @RHF iter  11:  -388.02865670265709   -2.41357e-10   1.87636e-08 DIIS
   @RHF iter  12:  -388.02865670271154   -5.44560e-11   7.90242e-09 DIIS
   @RHF iter  13:  -388.02865670272007   -8.52651e-12   2.76007e-09 DIIS
   @RHF iter  14:  -388.02865670271888    1.19371e-12   7.60634e-10 DIIS
   @RHF iter  15:  -388.02865670271927   -3.97904e-13   2.91173e-10 DIIS
   @RHF iter  16:  -388.02865670272098   -1.70530e-12   1.05212e-10 DIIS
   @RHF iter  17:  -388.02865670272053    4.54747e-13   4.26187e-11 DIIS
  Energy and wave function converged.

  ==> Post-Iterations <==

    Orbital Energies [Eh]
    ---------------------

    Doubly Occupied:

       1A    -11.238428     2A    -11.235433     3A    -11.234962
       4A    -11.230225     5A    -11.230053     6A    -11.229834
       7A    -11.227813     8A    -11.214326     9A    -11.213723
      10A    -11.211303    11A     -1.156485    12A     -1.048798
      13A     -1.048173    14A     -1.012170    15A     -0.933081
      16A     -0.921900    17A     -0.827681    18A     -0.796634
      19A     -0.790694    20A     -0.692685    21A     -0.633917
      22A     -0.630529    23A     -0.621317    24A     -0.588620
      25A     -0.581970    26A     -0.578201    27A     -0.565258
      28A     -0.545157    29A     -0.535472    30A     -0.531344
      31A     -0.489741    32A     -0.486390    33A     -0.482350
      34A     -0.469000    35A     -0.465882    36A     -0.457420
      37A     -0.331745    38A     -0.324476

    Virtual:

      39A      0.132639    40A      0.142326    41A      0.169590
      42A      0.194884    43A      0.196244    44A      0.211669
      45A      0.226989    46A      0.233413    47A      0.249709
      48A      0.254738    49A      0.257638    50A      0.263139
      51A      0.284087    52A      0.285665    53A      0.293625
      54A      0.299582    55A      0.307071    56A      0.329316
      57A      0.366178    58A      0.370187    59A      0.384392
      60A      0.432095    61A      0.453905    62A      0.464121
      63A      0.479263    64A      0.493223    65A      0.561347
      66A      0.577115    67A      0.593729    68A      0.608169
      69A      0.614292    70A      0.623821    71A      0.636300
      72A      0.649575    73A      0.686332    74A      0.694288
      75A      0.701519    76A      0.717281    77A      0.741993
      78A      0.746729    79A      0.748951    80A      0.759268
      81A      0.775258    82A      0.776355    83A      0.780418
      84A      0.806281    85A      0.823693    86A      0.830552
      87A      0.850973    88A      0.859734    89A      0.869359
      90A      0.880021    91A      0.880250    92A      0.891767
      93A      0.897404    94A      0.902788    95A      0.905664
      96A      0.905720    97A      0.916661    98A      0.921889
      99A      0.929558   100A      0.934865   101A      0.943311
     102A      0.951748   103A      0.955817   104A      0.978053
     105A      0.991969   106A      1.011398   107A      1.030471
     108A      1.058653   109A      1.127042   110A      1.130412
     111A      1.136751   112A      1.141937   113A      1.156400
     114A      1.160168   115A      1.189619   116A      1.220514
     117A      1.244255   118A      1.253090   119A      1.258642
     120A      1.279363   121A      1.306969   122A      1.310022
     123A      1.322160   124A      1.340416   125A      1.395122
     126A      1.414557   127A      1.452663   128A      1.492674
     129A      1.500255   130A      1.517050   131A      1.540049
     132A      1.566653   133A      1.598223   134A      1.641058
     135A      1.671613   136A      1.685065   137A      1.693014
     138A      1.702807   139A      1.711606   140A      1.738661
     141A      1.753525   142A      1.766691   143A      1.790672
     144A      1.812652   145A      1.861380   146A      1.868204
     147A      1.873405   148A      1.884559   149A      1.893534
     150A      1.897915   151A      1.911369   152A      1.912257
     153A      1.919856   154A      1.926777   155A      1.930622
     156A      1.943602   157A      1.954366   158A      1.959348
     159A      1.967662   160A      1.974332   161A      1.987397
     162A      1.989207   163A      1.995285   164A      2.009039
     165A      2.011561   166A      2.019540   167A      2.042805
     168A      2.062452   169A      2.064767   170A      2.077675
     171A      2.111991   172A      2.125472   173A      2.152830
     174A      2.154440   175A      2.156860   176A      2.170010
     177A      2.182830   178A      2.185395   179A      2.258218
     180A      2.277874   181A      2.289686   182A      2.297146
     183A      2.306448   184A      2.312868   185A      2.324012
     186A      2.327985   187A      2.344697   188A      2.374985
     189A      2.470776   190A      2.479666   191A      2.490951
     192A      2.503652   193A      2.545174   194A      2.549742
     195A      2.570114   196A      2.616170   197A      2.626269
     198A      2.632151   199A      2.738881   200A      2.756782
     201A      2.762179   202A      2.767763   203A      2.777022
     204A      2.787027   205A      2.791470   206A      2.813537
     207A      2.825120   208A      2.857033   209A      2.874490
     210A      2.915664   211A      2.970316   212A      2.990929
     213A      2.998319   214A      3.020449   215A      3.035584
     216A      3.078367   217A      3.166900   218A      3.212277
     219A      3.305376   220A      3.985318

    Final Occupation by Irrep:
              A
    DOCC [    38 ]

  @RHF Final Energy:  -388.02865670272053

   => Energetics <=

    Nuclear Repulsion Energy =            486.8990387732914087
    One-Electron Energy =               -1488.2290083407292514
    Two-Electron Energy =                 613.3013128647173744
    Total Energy =                       -388.0286567027204683

Computation Completed

Properties will be evaluated at   0.000000,   0.000000,   0.000000 [a0]

Properties computed using the SCF density matrix

  Nuclear Dipole Moment: [e a0]
     X:   -12.8505      Y:     2.4885      Z:     1.5160

  Electronic Dipole Moment: [e a0]
     X:    12.9711      Y:    -2.3760      Z:    -1.5607

  Dipole Moment: [e a0]
     X:     0.1206      Y:     0.1125      Z:    -0.0447     Total:     0.1709

  Dipole Moment: [D]
     X:     0.3065      Y:     0.2858      Z:    -0.1137     Total:     0.4343

*** tstop() called on ds3 at Mon Apr 27 19:30:57 2020
Module time:
	user time   =     102.69 seconds =       1.71 minutes
	system time =      41.34 seconds =       0.69 minutes
	total time  =        237 seconds =       3.95 minutes
Total time:
	user time   =     102.69 seconds =       1.71 minutes
	system time =      41.34 seconds =       0.69 minutes
	total time  =        237 seconds =       3.95 minutes
                                     G D M A

                                 by Anthony Stone

                           version 2.2.06, 22 June 2011

               Distributed Multipoles from Gaussian wavefunctions

Starting at 19:30:57 on 27 Apr 2020

Using SCF density matrix from file ./SSI/SSI-030PHE-061GLU-2-dimer.test.6475.fchk

                         Distributed Multipole Analysis

Standard DMA

Positions and radii in angstrom
Multipole moments in atomic units, ea_0^k for rank k

C          x =  1.432225  y =  2.445506  z = -0.937181 angstrom
           Maximum rank =  0   Radius =  0.650 angstrom
                   Q00  =  -0.198587

C          x =  0.928225  y =  0.559506  z =  0.630819 angstrom
           Maximum rank =  0   Radius =  0.650 angstrom
                   Q00  =  -0.002860

C          x =  1.485225  y =  0.999506  z = -0.565181 angstrom
           Maximum rank =  0   Radius =  0.650 angstrom
                   Q00  =  -0.099056

C          x =  1.001225  y = -0.782494  z =  0.993819 angstrom
           Maximum rank =  0   Radius =  0.650 angstrom
                   Q00  =  -0.068206

C          x =  1.637225  y = -1.687494  z =  0.165819 angstrom
           Maximum rank =  0   Radius =  0.650 angstrom
                   Q00  =  -0.085451

C          x =  2.126225  y =  0.092506  z = -1.388181 angstrom
           Maximum rank =  0   Radius =  0.650 angstrom
                   Q00  =  -0.080395

C          x =  2.198225  y = -1.254494  z = -1.026181 angstrom
           Maximum rank =  0   Radius =  0.650 angstrom
                   Q00  =  -0.068388

H          x =  0.431225  y =  1.262506  z =  1.284819 angstrom
           Maximum rank =  0   Radius =  0.325 angstrom
                   Q00  =   0.057279

H          x =  0.561225  y = -1.114494  z =  1.924819 angstrom
           Maximum rank =  0   Radius =  0.325 angstrom
                   Q00  =   0.065049

H          x =  2.260225  y =  2.689506  z = -1.594181 angstrom
           Maximum rank =  0   Radius =  0.325 angstrom
                   Q00  =   0.098939

H          x =  1.563225  y =  3.030506  z = -0.026181 angstrom
           Maximum rank =  0   Radius =  0.325 angstrom
                   Q00  =   0.096038

H          x =  1.696225  y = -2.728494  z =  0.450819 angstrom
           Maximum rank =  0   Radius =  0.325 angstrom
                   Q00  =   0.060106

H          x =  2.569225  y =  0.420506  z = -2.318181 angstrom
           Maximum rank =  0   Radius =  0.325 angstrom
                   Q00  =   0.057603

H          x =  2.699225  y = -1.955494  z = -1.677181 angstrom
           Maximum rank =  0   Radius =  0.325 angstrom
                   Q00  =   0.064653

H          x =  0.489065  y =  2.749796  z = -1.414531 angstrom
           Maximum rank =  0   Radius =  0.325 angstrom
                   Q00  =   0.104201

C          x = -2.748775  y = -0.125494  z =  0.937819 angstrom
           Maximum rank =  0   Radius =  0.650 angstrom
                   Q00  =  -0.059799

C          x = -3.745775  y =  1.005506  z =  0.696819 angstrom
           Maximum rank =  0   Radius =  0.650 angstrom
                   Q00  =  -0.253809

C          x = -3.162775  y = -1.475494  z =  0.355819 angstrom
           Maximum rank =  0   Radius =  0.650 angstrom
                   Q00  =  -0.252738

H          x = -1.811775  y =  0.149506  z =  0.455819 angstrom
           Maximum rank =  0   Radius =  0.325 angstrom
                   Q00  =   0.055356

H          x = -2.547775  y = -0.222494  z =  2.005819 angstrom
           Maximum rank =  0   Radius =  0.325 angstrom
                   Q00  =   0.043300

H          x = -4.647775  y =  0.802506  z =  1.275819 angstrom
           Maximum rank =  0   Radius =  0.325 angstrom
                   Q00  =   0.075130

H          x = -3.417775  y = -1.376494  z = -0.699181 angstrom
           Maximum rank =  0   Radius =  0.325 angstrom
                   Q00  =   0.078901

H          x = -2.282775  y = -2.121494  z =  0.395819 angstrom
           Maximum rank =  0   Radius =  0.325 angstrom
                   Q00  =   0.080494

H          x = -3.983495  y =  1.101046  z = -0.372931 angstrom
           Maximum rank =  0   Radius =  0.325 angstrom
                   Q00  =   0.077763

H          x = -3.311495  y =  1.957886  z =  1.034999 angstrom
           Maximum rank =  0   Radius =  0.325 angstrom
                   Q00  =   0.077927

H          x = -3.974455  y = -1.990324  z =  0.890729 angstrom
           Maximum rank =  0   Radius =  0.325 angstrom
                   Q00  =   0.076553

Total multipoles referred to origin at
           x =   0.000000,  y =    0.000000,  z =    0.000000 angstrom
                   Q00  =  -0.000000

Finished at 19:30:57 on 27 Apr 2020

  DMA results are available in the Python driver through the
	  variable('DMA DISTRIBUTED MULTIPOLES')
  and
	  variable('DMA TOTAL MULTIPOLES')
  commands.

    Psi4 stopped on: Monday, 27 April 2020 07:30PM
    Psi4 wall time for execution: 0:03:57.80

*** Psi4 exiting successfully. Buy a developer a beer!
