                               Psi4 1.3.2 release

  ==> Input File <==

--------------------------------------------------------------------------
import numpy as np
set {scf_type pk
basis cc-pvdz
d_convergence 10
gdma_switch   0
gdma_limit    0
gdma_origin   [ 0.0,  0.0,  0.0 ]
}
molecule test {
    units Angstrom
    0 1
    --
    0 1
    C               -2.943126509650670     1.637927047787735    -1.519810299463970
    C               -1.755126509650670     0.264927047787735     0.189189700536030
    N               -0.609126509650671     0.364927047787735    -0.448810299463970
    N               -2.857126509650670     0.830927047787735    -0.297810299463970
    N               -1.809126509650670    -0.401072952212265     1.309189700536030
    H               -0.503126509650671     0.922927047787735    -1.266810299463970
    H                0.238873490349330    -0.054072952212265    -0.036810299463970
    H               -3.702126509650670     0.719927047787735     0.253189700536030
    H               -2.677126509650670    -0.833072952212265     1.538189700536030
    H               -0.945126509650670    -0.811072952212265     1.687189700536030
    H               -1.999126509650671     1.634927047787735    -2.064810299463970
    H               -3.148126509650671     2.678927047787735    -1.253810299463970
    H               -3.718496509650671     1.259607047787735    -2.202220299463969
    C                3.896873490349329    -1.006072952212265     0.250189700536030
    C                2.419873490349330    -0.652072952212265     0.191189700536030
    O                2.073873490349329     0.544927047787735     0.132189700536030
    O                1.560873490349330    -1.562072952212265     0.202189700536030
    H                4.119873490349329    -1.746072952212265    -0.520810299463970
    H                4.116873490349329    -1.447072952212265     1.223189700536030
    H                4.558403490349328    -0.138772952212265     0.108179700536030

}
e, wfn = energy('scf', return_wfn=True)
gdma(wfn)
dmavals = variable('DMA DISTRIBUTED MULTIPOLES')
charges = np.array(dmavals)
print(charges)
np.save('SSI-099ARG-177ASP-1-dimer.npy', np.array(charges))--------------------------------------------------------------------------

*** tstart() called on ds3
*** at Sun Apr 26 18:38:02 2020

   => Loading Basis Set <=

    Name: CC-PVDZ
    Role: ORBITAL
    Keyword: BASIS
    atoms 1-2, 14-15  entry C          line   138 file /theoryfs2/ds/metcalf/miniconda2/envs/tf2gpu/share/psi4/basis/cc-pvdz.gbs
    atoms 3-5         entry N          line   168 file /theoryfs2/ds/metcalf/miniconda2/envs/tf2gpu/share/psi4/basis/cc-pvdz.gbs
    atoms 6-13, 18-20 entry H          line    22 file /theoryfs2/ds/metcalf/miniconda2/envs/tf2gpu/share/psi4/basis/cc-pvdz.gbs
    atoms 16-17       entry O          line   198 file /theoryfs2/ds/metcalf/miniconda2/envs/tf2gpu/share/psi4/basis/cc-pvdz.gbs

         ---------------------------------------------------------
                                   SCF
               by Justin Turney, Rob Parrish, Andy Simmonett
                          and Daniel G. A. Smith
                              RHF Reference
                        1 Threads,    500 MiB Core
         ---------------------------------------------------------

  ==> Geometry <==

    Molecular point group: c1
    Full point group: C1

    Geometry (in Angstrom), charge = 0, multiplicity = 1:

       Center              X                  Y                   Z               Mass
    ------------   -----------------  -----------------  -----------------  -----------------
         C           -2.943126509651     1.637927047788    -1.519810299464    12.000000000000
         C           -1.755126509651     0.264927047788     0.189189700536    12.000000000000
         N           -0.609126509651     0.364927047788    -0.448810299464    14.003074004430
         N           -2.857126509651     0.830927047788    -0.297810299464    14.003074004430
         N           -1.809126509651    -0.401072952212     1.309189700536    14.003074004430
         H           -0.503126509651     0.922927047788    -1.266810299464     1.007825032230
         H            0.238873490349    -0.054072952212    -0.036810299464     1.007825032230
         H           -3.702126509651     0.719927047788     0.253189700536     1.007825032230
         H           -2.677126509651    -0.833072952212     1.538189700536     1.007825032230
         H           -0.945126509651    -0.811072952212     1.687189700536     1.007825032230
         H           -1.999126509651     1.634927047788    -2.064810299464     1.007825032230
         H           -3.148126509651     2.678927047788    -1.253810299464     1.007825032230
         H           -3.718496509651     1.259607047788    -2.202220299464     1.007825032230
         C            3.896873490349    -1.006072952212     0.250189700536    12.000000000000
         C            2.419873490349    -0.652072952212     0.191189700536    12.000000000000
         O            2.073873490349     0.544927047788     0.132189700536    15.994914619570
         O            1.560873490349    -1.562072952212     0.202189700536    15.994914619570
         H            4.119873490349    -1.746072952212    -0.520810299464     1.007825032230
         H            4.116873490349    -1.447072952212     1.223189700536     1.007825032230
         H            4.558403490349    -0.138772952212     0.108179700536     1.007825032230

  Running in c1 symmetry.

  Rotational constants: A =      0.12562  B =      0.01941  C =      0.01772 [cm^-1]
  Rotational constants: A =   3765.98184  B =    582.00481  C =    531.17122 [MHz]
  Nuclear repulsion =  455.262704572822713

  Charge       = 0
  Multiplicity = 1
  Electrons    = 72
  Nalpha       = 36
  Nbeta        = 36

  ==> Algorithm <==

  SCF Algorithm Type is PK.
  DIIS enabled.
  MOM disabled.
  Fractional occupation disabled.
  Guess Type is SAD.
  Energy threshold   = 1.00e-06
  Density threshold  = 1.00e-10
  Integral threshold = 0.00e+00

  ==> Primary Basis <==

  Basis Set: CC-PVDZ
    Blend: CC-PVDZ
    Number of shells: 87
    Number of basis function: 181
    Number of Cartesian functions: 190
    Spherical Harmonics?: true
    Max angular momentum: 2

  ==> Pre-Iterations <==

   -------------------------------------------------------
    Irrep   Nso     Nmo     Nalpha   Nbeta   Ndocc  Nsocc
   -------------------------------------------------------
     A        181     181       0       0       0       0
   -------------------------------------------------------
    Total     181     181      36      36      36       0
   -------------------------------------------------------

  ==> Integral Setup <==

  Using integral reordering PK algorithm.
  Sizing the integral batches needed.
  Building batch lookup table.
   Calculation information:
      Number of atoms:                  20
      Number of AO shells:              87
      Number of primitives:            253
      Number of atomic orbitals:       190
      Number of basis functions:       181

      Integral cutoff                 1.00e-12
      Number of threads:                 1

	Batch   1 pq = [       0,    9405] index = [             0,44231715] size =     44231715
	Batch   2 pq = [    9405,   13301] index = [      44231715,88464951] size =     44233236
	Batch   3 pq = [   13301,   16471] index = [      88464951,135655156] size =     47190205
  Task number: 13
  Buffer size: 11059200
  Buffer per thread: 2
  We computed 5607137 shell quartets total.
  Whereas there are 7328706 unique shell quartets.

  ==> DiskJK: Disk-Based J/K Matrices <==

    J tasked:                  Yes
    K tasked:                  Yes
    wK tasked:                  No
    Memory [MiB]:              375
    Schwarz Cutoff:          1E-12

    OpenMP threads:              1

  Minimum eigenvalue in the overlap matrix is 3.6516555164E-03.
  Using Symmetric Orthogonalization.

  SCF Guess: Superposition of Atomic Densities via on-the-fly atomic UHF.

  ==> Iterations <==

                        Total Energy        Delta E     RMS |[F,P]|

   @RHF iter SAD:  -469.76109443431835   -4.69761e+02   0.00000e+00
   @RHF iter   1:  -470.69084845000924   -9.29754e-01   4.26648e-03 DIIS
   @RHF iter   2:  -470.91895601520906   -2.28108e-01   2.22596e-03 DIIS
   @RHF iter   3:  -470.97781453134542   -5.88585e-02   3.89467e-04 DIIS
   @RHF iter   4:  -470.98106638809458   -3.25186e-03   1.30811e-04 DIIS
   @RHF iter   5:  -470.98142969576043   -3.63308e-04   2.38566e-05 DIIS
   @RHF iter   6:  -470.98144792501046   -1.82293e-05   7.52276e-06 DIIS
   @RHF iter   7:  -470.98144940344940   -1.47844e-06   2.33520e-06 DIIS
   @RHF iter   8:  -470.98144960801960   -2.04570e-07   8.52074e-07 DIIS
   @RHF iter   9:  -470.98144963050089   -2.24813e-08   3.56184e-07 DIIS
   @RHF iter  10:  -470.98144963451568   -4.01479e-09   1.17492e-07 DIIS
   @RHF iter  11:  -470.98144963509395   -5.78268e-10   3.44230e-08 DIIS
   @RHF iter  12:  -470.98144963513647   -4.25189e-11   1.67205e-08 DIIS
   @RHF iter  13:  -470.98144963514585   -9.37916e-12   4.11781e-09 DIIS
   @RHF iter  14:  -470.98144963514625   -3.97904e-13   1.46809e-09 DIIS
   @RHF iter  15:  -470.98144963515057   -4.32010e-12   5.86870e-10 DIIS
   @RHF iter  16:  -470.98144963514625    4.32010e-12   2.15232e-10 DIIS
   @RHF iter  17:  -470.98144963514676   -5.11591e-13   8.71304e-11 DIIS
  Energy and wave function converged.

  ==> Post-Iterations <==

    Orbital Energies [Eh]
    ---------------------

    Doubly Occupied:

       1A    -20.408858     2A    -20.407213     3A    -15.651836
       4A    -15.638043     5A    -15.601252     6A    -11.432157
       7A    -11.328831     8A    -11.257790     9A    -11.166157
      10A     -1.397046    11A     -1.305800    12A     -1.262854
      13A     -1.224664    14A     -1.182946    15A     -1.015878
      16A     -0.917086    17A     -0.884251    18A     -0.827540
      19A     -0.789279    20A     -0.715071    21A     -0.683814
      22A     -0.679085    23A     -0.666314    24A     -0.631218
      25A     -0.612981    26A     -0.602403    27A     -0.546963
      28A     -0.537805    29A     -0.533485    30A     -0.471819
      31A     -0.463556    32A     -0.445160    33A     -0.436872
      34A     -0.332681    35A     -0.318889    36A     -0.312176

    Virtual:

      37A      0.121465    38A      0.150619    39A      0.169200
      40A      0.181234    41A      0.212135    42A      0.217461
      43A      0.229478    44A      0.254080    45A      0.281124
      46A      0.289405    47A      0.315590    48A      0.323469
      49A      0.357344    50A      0.406222    51A      0.423812
      52A      0.454779    53A      0.488114    54A      0.499492
      55A      0.543892    56A      0.555794    57A      0.576424
      58A      0.593507    59A      0.641100    60A      0.687249
      61A      0.690576    62A      0.703798    63A      0.711954
      64A      0.720232    65A      0.749905    66A      0.765294
      67A      0.777280    68A      0.805544    69A      0.810402
      70A      0.819527    71A      0.847053    72A      0.857951
      73A      0.871221    74A      0.886672    75A      0.917531
      76A      0.926791    77A      0.947158    78A      0.951198
      79A      0.956488    80A      0.980672    81A      0.994554
      82A      1.002176    83A      1.033695    84A      1.056015
      85A      1.065639    86A      1.098736    87A      1.122067
      88A      1.143983    89A      1.154218    90A      1.210658
      91A      1.227032    92A      1.254301    93A      1.275241
      94A      1.292135    95A      1.301409    96A      1.330849
      97A      1.355836    98A      1.389544    99A      1.406720
     100A      1.441228   101A      1.471524   102A      1.504077
     103A      1.509638   104A      1.520548   105A      1.582517
     106A      1.590363   107A      1.602454   108A      1.619235
     109A      1.635268   110A      1.649151   111A      1.673673
     112A      1.718950   113A      1.725735   114A      1.736731
     115A      1.786788   116A      1.812591   117A      1.836485
     118A      1.855816   119A      1.871937   120A      1.893976
     121A      1.904332   122A      1.914508   123A      1.941837
     124A      1.956061   125A      1.966218   126A      1.972004
     127A      1.996508   128A      2.007562   129A      2.027165
     130A      2.047295   131A      2.082845   132A      2.132452
     133A      2.147350   134A      2.154795   135A      2.188637
     136A      2.198486   137A      2.221001   138A      2.276494
     139A      2.296835   140A      2.304956   141A      2.350054
     142A      2.367860   143A      2.413423   144A      2.451694
     145A      2.469914   146A      2.481093   147A      2.504359
     148A      2.533400   149A      2.538416   150A      2.575098
     151A      2.609305   152A      2.619404   153A      2.666431
     154A      2.691987   155A      2.731436   156A      2.750062
     157A      2.786554   158A      2.803506   159A      2.846803
     160A      2.851452   161A      2.875956   162A      2.895914
     163A      2.931726   164A      2.973448   165A      3.037659
     166A      3.067286   167A      3.092002   168A      3.144266
     169A      3.159719   170A      3.188527   171A      3.222547
     172A      3.260431   173A      3.332744   174A      3.505962
     175A      3.625920   176A      3.667642   177A      3.700266
     178A      3.807862   179A      3.929625   180A      3.957850
     181A      4.084535

    Final Occupation by Irrep:
              A
    DOCC [    36 ]

  @RHF Final Energy:  -470.98144963514676

   => Energetics <=

    Nuclear Repulsion Energy =            455.2627045728227131
    One-Electron Energy =               -1547.1087625881580152
    Two-Electron Energy =                 620.8646083801885425
    Total Energy =                       -470.9814496351467596

Computation Completed

Properties will be evaluated at   0.000000,   0.000000,   0.000000 [a0]

Properties computed using the SCF density matrix

  Nuclear Dipole Moment: [e a0]
     X:    -3.3976      Y:     2.0423      Z:    -2.3768

  Electronic Dipole Moment: [e a0]
     X:    -1.5876      Y:    -0.9908      Z:     2.1616

  Dipole Moment: [e a0]
     X:    -4.9852      Y:     1.0515      Z:    -0.2152     Total:     5.0995

  Dipole Moment: [D]
     X:   -12.6712      Y:     2.6726      Z:    -0.5471     Total:    12.9615

*** tstop() called on ds3 at Sun Apr 26 18:39:04 2020
Module time:
	user time   =      42.73 seconds =       0.71 minutes
	system time =      21.22 seconds =       0.35 minutes
	total time  =         62 seconds =       1.03 minutes
Total time:
	user time   =      42.73 seconds =       0.71 minutes
	system time =      21.22 seconds =       0.35 minutes
	total time  =         62 seconds =       1.03 minutes
                                     G D M A

                                 by Anthony Stone

                           version 2.2.06, 22 June 2011

               Distributed Multipoles from Gaussian wavefunctions

Starting at 18:39:4 on 26 Apr 2020

Using SCF density matrix from file ./SSI/SSI-099ARG-177ASP-1-dimer.test.26070.fchk

                         Distributed Multipole Analysis

Standard DMA

Positions and radii in angstrom
Multipole moments in atomic units, ea_0^k for rank k

C          x = -2.943127  y =  1.637927  z = -1.519810 angstrom
           Maximum rank =  0   Radius =  0.650 angstrom
                   Q00  =  -0.109766

C          x = -1.755127  y =  0.264927  z =  0.189190 angstrom
           Maximum rank =  0   Radius =  0.650 angstrom
                   Q00  =   1.062451

N          x = -0.609127  y =  0.364927  z = -0.448810 angstrom
           Maximum rank =  0   Radius =  0.650 angstrom
                   Q00  =  -0.555555

N          x = -2.857127  y =  0.830927  z = -0.297810 angstrom
           Maximum rank =  0   Radius =  0.650 angstrom
                   Q00  =  -0.503890

N          x = -1.809127  y = -0.401073  z =  1.309190 angstrom
           Maximum rank =  0   Radius =  0.650 angstrom
                   Q00  =  -0.565379

H          x = -0.503127  y =  0.922927  z = -1.266810 angstrom
           Maximum rank =  0   Radius =  0.325 angstrom
                   Q00  =   0.235339

H          x =  0.238873  y = -0.054073  z = -0.036810 angstrom
           Maximum rank =  0   Radius =  0.325 angstrom
                   Q00  =   0.293805

H          x = -3.702127  y =  0.719927  z =  0.253190 angstrom
           Maximum rank =  0   Radius =  0.325 angstrom
                   Q00  =   0.202208

H          x = -2.677127  y = -0.833073  z =  1.538190 angstrom
           Maximum rank =  0   Radius =  0.325 angstrom
                   Q00  =   0.218532

H          x = -0.945127  y = -0.811073  z =  1.687190 angstrom
           Maximum rank =  0   Radius =  0.325 angstrom
                   Q00  =   0.283774

H          x = -1.999127  y =  1.634927  z = -2.064810 angstrom
           Maximum rank =  0   Radius =  0.325 angstrom
                   Q00  =   0.119022

H          x = -3.148127  y =  2.678927  z = -1.253810 angstrom
           Maximum rank =  0   Radius =  0.325 angstrom
                   Q00  =   0.118117

H          x = -3.718497  y =  1.259607  z = -2.202220 angstrom
           Maximum rank =  0   Radius =  0.325 angstrom
                   Q00  =   0.122960

C          x =  3.896873  y = -1.006073  z =  0.250190 angstrom
           Maximum rank =  0   Radius =  0.650 angstrom
                   Q00  =  -0.243943

C          x =  2.419873  y = -0.652073  z =  0.191190 angstrom
           Maximum rank =  0   Radius =  0.650 angstrom
                   Q00  =   0.858158

O          x =  2.073873  y =  0.544927  z =  0.132190 angstrom
           Maximum rank =  0   Radius =  0.650 angstrom
                   Q00  =  -0.890614

O          x =  1.560873  y = -1.562073  z =  0.202190 angstrom
           Maximum rank =  0   Radius =  0.650 angstrom
                   Q00  =  -0.910557

H          x =  4.119873  y = -1.746073  z = -0.520810 angstrom
           Maximum rank =  0   Radius =  0.325 angstrom
                   Q00  =   0.090681

H          x =  4.116873  y = -1.447073  z =  1.223190 angstrom
           Maximum rank =  0   Radius =  0.325 angstrom
                   Q00  =   0.096774

H          x =  4.558403  y = -0.138773  z =  0.108180 angstrom
           Maximum rank =  0   Radius =  0.325 angstrom
                   Q00  =   0.077884

Total multipoles referred to origin at
           x =   0.000000,  y =    0.000000,  z =    0.000000 angstrom
                   Q00  =  -0.000000

Finished at 18:39:4 on 26 Apr 2020

  DMA results are available in the Python driver through the
	  variable('DMA DISTRIBUTED MULTIPOLES')
  and
	  variable('DMA TOTAL MULTIPOLES')
  commands.

    Psi4 stopped on: Sunday, 26 April 2020 06:39PM
    Psi4 wall time for execution: 0:01:02.26

*** Psi4 exiting successfully. Buy a developer a beer!
