                               Psi4 1.3.2 release

  ==> Input File <==

--------------------------------------------------------------------------
import numpy as np
set {scf_type pk
basis cc-pvdz
d_convergence 10
gdma_switch   0
gdma_limit    0
gdma_origin   [ 0.0,  0.0,  0.0 ]
}
molecule test {
    units Angstrom
    -1 1
    --
    -1 1
    C               -1.510459745231616     0.849271326260799    -1.982771733352319
    C               -1.950459745231616     2.323271326260799    -2.105771733352319
    C               -0.140459745231616     0.595271326260799    -2.631771733352319
    O                0.876540254768384     1.130271326260799    -2.132771733352319
    O               -0.091459745231616    -0.105728673739201    -3.670771733352319
    H               -1.451459745231616     0.626271326260799    -0.919771733352319
    H               -2.258459745231616     0.197271326260799    -2.437771733352319
    H               -1.166459745231616     2.957271326260799    -1.688771733352319
    H               -2.887339745231616     2.441311326260799    -1.541561733352319
    H               -2.024819745231616     2.677031326260800    -3.144671733352319
    C                1.096540254768384    -1.866728673739201     4.126228266647681
    C                0.208540254768384     0.399271326260799     1.401228266647681
    C                0.673540254768384    -1.217728673739200     2.828228266647681
    C                0.336540254768384    -1.783728673739200     1.634228266647681
    N                0.583540254768384     0.151271326260799     2.650228266647681
    N                0.053540254768384    -0.760728673739201     0.766228266647681
    H                0.070540254768384     1.409271326260799     1.032228266647681
    H               -0.223459745231616    -0.875728673739200    -0.196771733352319
    H                0.276540254768384    -2.813728673739201     1.336228266647681
    H                2.040540254768384    -1.404728673739201     4.417228266647681
    H                1.262540254768384    -2.918728673739201     3.912228266647681
    H                0.365000254768384    -1.739848673739201     4.937868266647681

}
e, wfn = energy('scf', return_wfn=True)
gdma(wfn)
dmavals = variable('DMA DISTRIBUTED MULTIPOLES')
charges = np.array(dmavals)
print(charges)
np.save('SSI-103ASP-269HIE-1-dimer.npy', np.array(charges))--------------------------------------------------------------------------

*** tstart() called on ds3
*** at Tue Apr 28 19:53:01 2020

   => Loading Basis Set <=

    Name: CC-PVDZ
    Role: ORBITAL
    Keyword: BASIS
    atoms 1-3, 11-14  entry C          line   138 file /theoryfs2/ds/metcalf/miniconda2/envs/tf2gpu/share/psi4/basis/cc-pvdz.gbs
    atoms 4-5         entry O          line   198 file /theoryfs2/ds/metcalf/miniconda2/envs/tf2gpu/share/psi4/basis/cc-pvdz.gbs
    atoms 6-10, 17-22 entry H          line    22 file /theoryfs2/ds/metcalf/miniconda2/envs/tf2gpu/share/psi4/basis/cc-pvdz.gbs
    atoms 15-16       entry N          line   168 file /theoryfs2/ds/metcalf/miniconda2/envs/tf2gpu/share/psi4/basis/cc-pvdz.gbs

         ---------------------------------------------------------
                                   SCF
               by Justin Turney, Rob Parrish, Andy Simmonett
                          and Daniel G. A. Smith
                              RHF Reference
                        1 Threads,    500 MiB Core
         ---------------------------------------------------------

  ==> Geometry <==

    Molecular point group: c1
    Full point group: C1

    Geometry (in Angstrom), charge = -1, multiplicity = 1:

       Center              X                  Y                   Z               Mass
    ------------   -----------------  -----------------  -----------------  -----------------
         C           -1.510459745232     0.849271326261    -1.982771733352    12.000000000000
         C           -1.950459745232     2.323271326261    -2.105771733352    12.000000000000
         C           -0.140459745232     0.595271326261    -2.631771733352    12.000000000000
         O            0.876540254768     1.130271326261    -2.132771733352    15.994914619570
         O           -0.091459745232    -0.105728673739    -3.670771733352    15.994914619570
         H           -1.451459745232     0.626271326261    -0.919771733352     1.007825032230
         H           -2.258459745232     0.197271326261    -2.437771733352     1.007825032230
         H           -1.166459745232     2.957271326261    -1.688771733352     1.007825032230
         H           -2.887339745232     2.441311326261    -1.541561733352     1.007825032230
         H           -2.024819745232     2.677031326261    -3.144671733352     1.007825032230
         C            1.096540254768    -1.866728673739     4.126228266648    12.000000000000
         C            0.208540254768     0.399271326261     1.401228266648    12.000000000000
         C            0.673540254768    -1.217728673739     2.828228266648    12.000000000000
         C            0.336540254768    -1.783728673739     1.634228266648    12.000000000000
         N            0.583540254768     0.151271326261     2.650228266648    14.003074004430
         N            0.053540254768    -0.760728673739     0.766228266648    14.003074004430
         H            0.070540254768     1.409271326261     1.032228266648     1.007825032230
         H           -0.223459745232    -0.875728673739    -0.196771733352     1.007825032230
         H            0.276540254768    -2.813728673739     1.336228266648     1.007825032230
         H            2.040540254768    -1.404728673739     4.417228266648     1.007825032230
         H            1.262540254768    -2.918728673739     3.912228266648     1.007825032230
         H            0.365000254768    -1.739848673739     4.937868266648     1.007825032230

  Running in c1 symmetry.

  Rotational constants: A =      0.08086  B =      0.01331  C =      0.01251 [cm^-1]
  Rotational constants: A =   2424.18542  B =    398.92194  C =    374.90271 [MHz]
  Nuclear repulsion =  569.306139719082012

  Charge       = -1
  Multiplicity = 1
  Electrons    = 84
  Nalpha       = 42
  Nbeta        = 42

  ==> Algorithm <==

  SCF Algorithm Type is PK.
  DIIS enabled.
  MOM disabled.
  Fractional occupation disabled.
  Guess Type is SAD.
  Energy threshold   = 1.00e-06
  Density threshold  = 1.00e-10
  Integral threshold = 0.00e+00

  ==> Primary Basis <==

  Basis Set: CC-PVDZ
    Blend: CC-PVDZ
    Number of shells: 99
    Number of basis function: 209
    Number of Cartesian functions: 220
    Spherical Harmonics?: true
    Max angular momentum: 2

  ==> Pre-Iterations <==

   -------------------------------------------------------
    Irrep   Nso     Nmo     Nalpha   Nbeta   Ndocc  Nsocc
   -------------------------------------------------------
     A        209     209       0       0       0       0
   -------------------------------------------------------
    Total     209     209      42      42      42       0
   -------------------------------------------------------

  ==> Integral Setup <==

  Using integral reordering PK algorithm.
  Sizing the integral batches needed.
  Building batch lookup table.
   Calculation information:
      Number of atoms:                  22
      Number of AO shells:              99
      Number of primitives:            297
      Number of atomic orbitals:       220
      Number of basis functions:       209

      Integral cutoff                 1.00e-12
      Number of threads:                 1

	Batch   1 pq = [       0,    9405] index = [             0,44231715] size =     44231715
	Batch   2 pq = [    9405,   13301] index = [      44231715,88464951] size =     44233236
	Batch   3 pq = [   13301,   16290] index = [      88464951,132690195] size =     44225244
	Batch   4 pq = [   16290,   18810] index = [     132690195,176917455] size =     44227260
	Batch   5 pq = [   18810,   21030] index = [     176917455,221140965] size =     44223510
	Batch   6 pq = [   21030,   21945] index = [     221140965,240802485] size =     19661520
  Task number: 22
  Buffer size: 11059200
  Buffer per thread: 2
  We computed 9496510 shell quartets total.
  Whereas there are 12253725 unique shell quartets.

  ==> DiskJK: Disk-Based J/K Matrices <==

    J tasked:                  Yes
    K tasked:                  Yes
    wK tasked:                  No
    Memory [MiB]:              375
    Schwarz Cutoff:          1E-12

    OpenMP threads:              1

  Minimum eigenvalue in the overlap matrix is 1.1890657780E-03.
  Using Symmetric Orthogonalization.

  SCF Guess: Superposition of Atomic Densities via on-the-fly atomic UHF.

  ==> Iterations <==

                        Total Energy        Delta E     RMS |[F,P]|

   @RHF iter SAD:  -528.66431152493328   -5.28664e+02   0.00000e+00
   @RHF iter   1:  -529.82494767136200   -1.16064e+00   3.85002e-03 DIIS
   @RHF iter   2:  -530.07511313455211   -2.50165e-01   2.21741e-03 DIIS
   @RHF iter   3:  -530.15679504845650   -8.16819e-02   3.79003e-04 DIIS
   @RHF iter   4:  -530.16079665096754   -4.00160e-03   1.50101e-04 DIIS
   @RHF iter   5:  -530.16141478674490   -6.18136e-04   2.97957e-05 DIIS
   @RHF iter   6:  -530.16144465824334   -2.98715e-05   1.38911e-05 DIIS
   @RHF iter   7:  -530.16145062810131   -5.96986e-06   3.44939e-06 DIIS
   @RHF iter   8:  -530.16145148111571   -8.53014e-07   1.59439e-06 DIIS
   @RHF iter   9:  -530.16145167232219   -1.91206e-07   6.42314e-07 DIIS
   @RHF iter  10:  -530.16145170729544   -3.49733e-08   1.96937e-07 DIIS
   @RHF iter  11:  -530.16145171007201   -2.77657e-09   7.18624e-08 DIIS
   @RHF iter  12:  -530.16145171037283   -3.00815e-10   3.34740e-08 DIIS
   @RHF iter  13:  -530.16145171043058   -5.77529e-11   1.28361e-08 DIIS
   @RHF iter  14:  -530.16145171044218   -1.15961e-11   4.58513e-09 DIIS
   @RHF iter  15:  -530.16145171044252   -3.41061e-13   2.00465e-09 DIIS
   @RHF iter  16:  -530.16145171043956    2.95586e-12   9.13958e-10 DIIS
   @RHF iter  17:  -530.16145171044218   -2.61480e-12   3.66086e-10 DIIS
   @RHF iter  18:  -530.16145171044445   -2.27374e-12   1.12339e-10 DIIS
   @RHF iter  19:  -530.16145171044275    1.70530e-12   5.08436e-11 DIIS
  Energy and wave function converged.

  ==> Post-Iterations <==

    Orbital Energies [Eh]
    ---------------------

    Doubly Occupied:

       1A    -20.277265     2A    -20.273486     3A    -15.504531
       4A    -15.421758     5A    -11.181755     6A    -11.148513
       7A    -11.144075     8A    -11.143456     9A    -11.130649
      10A    -11.094845    11A    -11.074249    12A     -1.231190
      13A     -1.163431    14A     -1.049019    15A     -1.044981
      16A     -0.932030    17A     -0.886921    18A     -0.845044
      19A     -0.721200    20A     -0.705359    21A     -0.662960
      22A     -0.630792    23A     -0.527606    24A     -0.507973
      25A     -0.501812    26A     -0.492655    27A     -0.467577
      28A     -0.461372    29A     -0.447943    30A     -0.446443
      31A     -0.429315    32A     -0.398974    33A     -0.385805
      34A     -0.381747    35A     -0.339316    36A     -0.317092
      37A     -0.307675    38A     -0.271835    39A     -0.206154
      40A     -0.195967    41A     -0.185928    42A     -0.174272

    Virtual:

      43A      0.279885    44A      0.299109    45A      0.305053
      46A      0.311312    47A      0.318020    48A      0.338823
      49A      0.349148    50A      0.362468    51A      0.375651
      52A      0.385027    53A      0.394704    54A      0.413077
      55A      0.424642    56A      0.458172    57A      0.472966
      58A      0.509489    59A      0.520428    60A      0.550515
      61A      0.572966    62A      0.583123    63A      0.614064
      64A      0.683116    65A      0.702159    66A      0.710037
      67A      0.721581    68A      0.734006    69A      0.738431
      70A      0.769242    71A      0.780670    72A      0.812967
      73A      0.817233    74A      0.850787    75A      0.860662
      76A      0.870504    77A      0.884352    78A      0.917088
      79A      0.933136    80A      0.938892    81A      0.955378
      82A      0.965297    83A      0.982097    84A      0.985426
      85A      0.992166    86A      1.002171    87A      1.011688
      88A      1.026521    89A      1.030690    90A      1.037004
      91A      1.047473    92A      1.058753    93A      1.068896
      94A      1.077838    95A      1.094298    96A      1.108208
      97A      1.137637    98A      1.168247    99A      1.181336
     100A      1.201864   101A      1.208680   102A      1.231310
     103A      1.251219   104A      1.272394   105A      1.288369
     106A      1.305843   107A      1.306550   108A      1.350520
     109A      1.382742   110A      1.389870   111A      1.420054
     112A      1.433294   113A      1.438577   114A      1.495297
     115A      1.513360   116A      1.524357   117A      1.539983
     118A      1.553440   119A      1.591162   120A      1.599878
     121A      1.601555   122A      1.627084   123A      1.639468
     124A      1.662799   125A      1.665992   126A      1.684383
     127A      1.690912   128A      1.715445   129A      1.735178
     130A      1.761451   131A      1.804580   132A      1.807233
     133A      1.812968   134A      1.888530   135A      1.915766
     136A      1.924897   137A      1.949016   138A      1.970470
     139A      1.984060   140A      2.015958   141A      2.020211
     142A      2.033289   143A      2.040278   144A      2.059807
     145A      2.073130   146A      2.080049   147A      2.085533
     148A      2.097728   149A      2.108857   150A      2.119990
     151A      2.131106   152A      2.148645   153A      2.154605
     154A      2.163039   155A      2.171740   156A      2.234712
     157A      2.262181   158A      2.276049   159A      2.290257
     160A      2.300666   161A      2.323773   162A      2.327554
     163A      2.339170   164A      2.395155   165A      2.436469
     166A      2.446756   167A      2.469530   168A      2.487395
     169A      2.550682   170A      2.557017   171A      2.568455
     172A      2.584775   173A      2.617683   174A      2.645882
     175A      2.670246   176A      2.695677   177A      2.725325
     178A      2.741738   179A      2.781471   180A      2.811193
     181A      2.838646   182A      2.852893   183A      2.868822
     184A      2.888864   185A      2.911043   186A      2.914819
     187A      2.956005   188A      2.967189   189A      2.982218
     190A      2.992382   191A      3.029529   192A      3.033188
     193A      3.072506   194A      3.104082   195A      3.209718
     196A      3.231803   197A      3.272266   198A      3.282941
     199A      3.308010   200A      3.343062   201A      3.347216
     202A      3.579131   203A      3.625302   204A      3.755816
     205A      3.814382   206A      3.917151   207A      4.037868
     208A      4.068254   209A      4.177909

    Final Occupation by Irrep:
              A
    DOCC [    42 ]

  @RHF Final Energy:  -530.16145171044275

   => Energetics <=

    Nuclear Repulsion Energy =            569.3061397190820117
    One-Electron Energy =               -1865.5052476438104350
    Two-Electron Energy =                 766.0376562142856756
    Total Energy =                       -530.1614517104427478

Computation Completed

Properties will be evaluated at   0.000000,   0.000000,   0.000000 [a0]

Properties computed using the SCF density matrix

  Nuclear Dipole Moment: [e a0]
     X:    -5.6199      Y:     0.5276      Z:     5.3118

  Electronic Dipole Moment: [e a0]
     X:     4.4056      Y:    -1.8191      Z:    -1.6071

  Dipole Moment: [e a0]
     X:    -1.2144      Y:    -1.2915      Z:     3.7047     Total:     4.1070

  Dipole Moment: [D]
     X:    -3.0866      Y:    -3.2827      Z:     9.4165     Total:    10.4390

*** tstop() called on ds3 at Tue Apr 28 19:54:48 2020
Module time:
	user time   =      74.27 seconds =       1.24 minutes
	system time =      36.59 seconds =       0.61 minutes
	total time  =        107 seconds =       1.78 minutes
Total time:
	user time   =      74.27 seconds =       1.24 minutes
	system time =      36.59 seconds =       0.61 minutes
	total time  =        107 seconds =       1.78 minutes
                                     G D M A

                                 by Anthony Stone

                           version 2.2.06, 22 June 2011

               Distributed Multipoles from Gaussian wavefunctions

Starting at 19:54:48 on 28 Apr 2020

Using SCF density matrix from file ./SSI/SSI-103ASP-269HIE-1-dimer.test.12340.fchk

                         Distributed Multipole Analysis

Standard DMA

Positions and radii in angstrom
Multipole moments in atomic units, ea_0^k for rank k

C          x = -1.510460  y =  0.849271  z = -1.982772 angstrom
           Maximum rank =  0   Radius =  0.650 angstrom
                   Q00  =  -0.110296

C          x = -1.950460  y =  2.323271  z = -2.105772 angstrom
           Maximum rank =  0   Radius =  0.650 angstrom
                   Q00  =  -0.207659

C          x = -0.140460  y =  0.595271  z = -2.631772 angstrom
           Maximum rank =  0   Radius =  0.650 angstrom
                   Q00  =   0.932364

O          x =  0.876540  y =  1.130271  z = -2.132772 angstrom
           Maximum rank =  0   Radius =  0.650 angstrom
                   Q00  =  -0.930880

O          x = -0.091460  y = -0.105729  z = -3.670772 angstrom
           Maximum rank =  0   Radius =  0.650 angstrom
                   Q00  =  -0.916291

H          x = -1.451460  y =  0.626271  z = -0.919772 angstrom
           Maximum rank =  0   Radius =  0.325 angstrom
                   Q00  =   0.001636

H          x = -2.258460  y =  0.197271  z = -2.437772 angstrom
           Maximum rank =  0   Radius =  0.325 angstrom
                   Q00  =   0.034460

H          x = -1.166460  y =  2.957271  z = -1.688772 angstrom
           Maximum rank =  0   Radius =  0.325 angstrom
                   Q00  =   0.082491

H          x = -2.887340  y =  2.441311  z = -1.541562 angstrom
           Maximum rank =  0   Radius =  0.325 angstrom
                   Q00  =   0.037266

H          x = -2.024820  y =  2.677031  z = -3.144672 angstrom
           Maximum rank =  0   Radius =  0.325 angstrom
                   Q00  =   0.071823

C          x =  1.096540  y = -1.866729  z =  4.126228 angstrom
           Maximum rank =  0   Radius =  0.650 angstrom
                   Q00  =  -0.185444

C          x =  0.208540  y =  0.399271  z =  1.401228 angstrom
           Maximum rank =  0   Radius =  0.650 angstrom
                   Q00  =   0.486209

C          x =  0.673540  y = -1.217729  z =  2.828228 angstrom
           Maximum rank =  0   Radius =  0.650 angstrom
                   Q00  =   0.200837

C          x =  0.336540  y = -1.783729  z =  1.634228 angstrom
           Maximum rank =  0   Radius =  0.650 angstrom
                   Q00  =   0.000187

N          x =  0.583540  y =  0.151271  z =  2.650228 angstrom
           Maximum rank =  0   Radius =  0.650 angstrom
                   Q00  =  -0.779836

N          x =  0.053540  y = -0.760729  z =  0.766228 angstrom
           Maximum rank =  0   Radius =  0.650 angstrom
                   Q00  =  -0.464874

H          x =  0.070540  y =  1.409271  z =  1.032228 angstrom
           Maximum rank =  0   Radius =  0.325 angstrom
                   Q00  =   0.132719

H          x = -0.223460  y = -0.875729  z = -0.196772 angstrom
           Maximum rank =  0   Radius =  0.325 angstrom
                   Q00  =   0.255903

H          x =  0.276540  y = -2.813729  z =  1.336228 angstrom
           Maximum rank =  0   Radius =  0.325 angstrom
                   Q00  =   0.083298

H          x =  2.040540  y = -1.404729  z =  4.417228 angstrom
           Maximum rank =  0   Radius =  0.325 angstrom
                   Q00  =   0.099794

H          x =  1.262540  y = -2.918729  z =  3.912228 angstrom
           Maximum rank =  0   Radius =  0.325 angstrom
                   Q00  =   0.085196

H          x =  0.365000  y = -1.739849  z =  4.937868 angstrom
           Maximum rank =  0   Radius =  0.325 angstrom
                   Q00  =   0.091096

Total multipoles referred to origin at
           x =   0.000000,  y =    0.000000,  z =    0.000000 angstrom
                   Q00  =  -1.000000

Finished at 19:54:48 on 28 Apr 2020

  DMA results are available in the Python driver through the
	  variable('DMA DISTRIBUTED MULTIPOLES')
  and
	  variable('DMA TOTAL MULTIPOLES')
  commands.

    Psi4 stopped on: Tuesday, 28 April 2020 07:54PM
    Psi4 wall time for execution: 0:01:47.18

*** Psi4 exiting successfully. Buy a developer a beer!
