                               Psi4 1.3.2 release

  ==> Input File <==

--------------------------------------------------------------------------
import numpy as np
set {scf_type pk
basis cc-pvdz
d_convergence 10
gdma_switch   0
gdma_limit    0
gdma_origin   [ 0.0,  0.0,  0.0 ]
}
molecule test {
    units Angstrom
    0 1
    --
    0 1
    C               -2.385736770029183     1.237836819080561    -0.746379502131128
    C               -1.899736770029183     1.295836819080561     0.689620497868872
    O               -0.985736770029183     0.510836819080561     1.031620497868872
    O               -2.423736770029183     2.118836819080562     1.473620497868872
    H               -1.794736770029183     0.494836819080561    -1.284379502131128
    H               -2.216736770029183     2.194836819080562    -1.235379502131128
    H               -3.450826770029182     0.971563819080561    -0.814749502131128
    C                0.400263229970817    -2.087163180919438    -1.739379502131128
    C                1.804263229970817    -0.771163180919439    -0.172379502131128
    N                0.620263229970818    -1.184163180919439    -0.601379502131128
    N                2.913263229970818    -1.180163180919439    -0.759379502131129
    N                1.874263229970818     0.077836819080561     0.832620497868871
    H               -0.185736770029183    -0.797163180919439    -0.113379502131128
    H                2.869263229970818    -1.861163180919439    -1.499379502131128
    H                3.811263229970817    -0.880163180919439    -0.415379502131128
    H                0.986263229970818     0.384836819080561     1.230620497868872
    H                2.755263229970817     0.368836819080561     1.220620497868872
    H               -0.591736770029183    -2.535163180919438    -1.639379502131128
    H                1.129263229970817    -2.901163180919438    -1.739379502131128
    H                0.439033229970817    -1.540053180919439    -2.692879502131128

}
e, wfn = energy('scf', return_wfn=True)
gdma(wfn)
dmavals = variable('DMA DISTRIBUTED MULTIPOLES')
charges = np.array(dmavals)
print(charges)
np.save('SSI-097GLU-101ARG-1-dimer.npy', np.array(charges))--------------------------------------------------------------------------

*** tstart() called on ds3
*** at Tue Apr 28 09:51:55 2020

   => Loading Basis Set <=

    Name: CC-PVDZ
    Role: ORBITAL
    Keyword: BASIS
    atoms 1-2, 8-9   entry C          line   138 file /theoryfs2/ds/metcalf/miniconda2/envs/tf2gpu/share/psi4/basis/cc-pvdz.gbs
    atoms 3-4        entry O          line   198 file /theoryfs2/ds/metcalf/miniconda2/envs/tf2gpu/share/psi4/basis/cc-pvdz.gbs
    atoms 5-7, 13-20 entry H          line    22 file /theoryfs2/ds/metcalf/miniconda2/envs/tf2gpu/share/psi4/basis/cc-pvdz.gbs
    atoms 10-12      entry N          line   168 file /theoryfs2/ds/metcalf/miniconda2/envs/tf2gpu/share/psi4/basis/cc-pvdz.gbs

         ---------------------------------------------------------
                                   SCF
               by Justin Turney, Rob Parrish, Andy Simmonett
                          and Daniel G. A. Smith
                              RHF Reference
                        1 Threads,    500 MiB Core
         ---------------------------------------------------------

  ==> Geometry <==

    Molecular point group: c1
    Full point group: C1

    Geometry (in Angstrom), charge = 0, multiplicity = 1:

       Center              X                  Y                   Z               Mass
    ------------   -----------------  -----------------  -----------------  -----------------
         C           -2.385736770029     1.237836819081    -0.746379502131    12.000000000000
         C           -1.899736770029     1.295836819081     0.689620497869    12.000000000000
         O           -0.985736770029     0.510836819081     1.031620497869    15.994914619570
         O           -2.423736770029     2.118836819081     1.473620497869    15.994914619570
         H           -1.794736770029     0.494836819081    -1.284379502131     1.007825032230
         H           -2.216736770029     2.194836819081    -1.235379502131     1.007825032230
         H           -3.450826770029     0.971563819081    -0.814749502131     1.007825032230
         C            0.400263229971    -2.087163180919    -1.739379502131    12.000000000000
         C            1.804263229971    -0.771163180919    -0.172379502131    12.000000000000
         N            0.620263229971    -1.184163180919    -0.601379502131    14.003074004430
         N            2.913263229971    -1.180163180919    -0.759379502131    14.003074004430
         N            1.874263229971     0.077836819081     0.832620497869    14.003074004430
         H           -0.185736770029    -0.797163180919    -0.113379502131     1.007825032230
         H            2.869263229971    -1.861163180919    -1.499379502131     1.007825032230
         H            3.811263229971    -0.880163180919    -0.415379502131     1.007825032230
         H            0.986263229971     0.384836819081     1.230620497869     1.007825032230
         H            2.755263229971     0.368836819081     1.220620497869     1.007825032230
         H           -0.591736770029    -2.535163180919    -1.639379502131     1.007825032230
         H            1.129263229971    -2.901163180919    -1.739379502131     1.007825032230
         H            0.439033229971    -1.540053180919    -2.692879502131     1.007825032230

  Running in c1 symmetry.

  Rotational constants: A =      0.09156  B =      0.02356  C =      0.01973 [cm^-1]
  Rotational constants: A =   2745.00118  B =    706.28321  C =    591.55628 [MHz]
  Nuclear repulsion =  461.098336163099304

  Charge       = 0
  Multiplicity = 1
  Electrons    = 72
  Nalpha       = 36
  Nbeta        = 36

  ==> Algorithm <==

  SCF Algorithm Type is PK.
  DIIS enabled.
  MOM disabled.
  Fractional occupation disabled.
  Guess Type is SAD.
  Energy threshold   = 1.00e-06
  Density threshold  = 1.00e-10
  Integral threshold = 0.00e+00

  ==> Primary Basis <==

  Basis Set: CC-PVDZ
    Blend: CC-PVDZ
    Number of shells: 87
    Number of basis function: 181
    Number of Cartesian functions: 190
    Spherical Harmonics?: true
    Max angular momentum: 2

  ==> Pre-Iterations <==

   -------------------------------------------------------
    Irrep   Nso     Nmo     Nalpha   Nbeta   Ndocc  Nsocc
   -------------------------------------------------------
     A        181     181       0       0       0       0
   -------------------------------------------------------
    Total     181     181      36      36      36       0
   -------------------------------------------------------

  ==> Integral Setup <==

  Using integral reordering PK algorithm.
  Sizing the integral batches needed.
  Building batch lookup table.
   Calculation information:
      Number of atoms:                  20
      Number of AO shells:              87
      Number of primitives:            253
      Number of atomic orbitals:       190
      Number of basis functions:       181

      Integral cutoff                 1.00e-12
      Number of threads:                 1

	Batch   1 pq = [       0,    9405] index = [             0,44231715] size =     44231715
	Batch   2 pq = [    9405,   13301] index = [      44231715,88464951] size =     44233236
	Batch   3 pq = [   13301,   16471] index = [      88464951,135655156] size =     47190205
  Task number: 13
  Buffer size: 11059200
  Buffer per thread: 2
  We computed 6260851 shell quartets total.
  Whereas there are 7328706 unique shell quartets.

  ==> DiskJK: Disk-Based J/K Matrices <==

    J tasked:                  Yes
    K tasked:                  Yes
    wK tasked:                  No
    Memory [MiB]:              375
    Schwarz Cutoff:          1E-12

    OpenMP threads:              1

  Minimum eigenvalue in the overlap matrix is 3.8920879183E-03.
  Using Symmetric Orthogonalization.

  SCF Guess: Superposition of Atomic Densities via on-the-fly atomic UHF.

  ==> Iterations <==

                        Total Energy        Delta E     RMS |[F,P]|

   @RHF iter SAD:  -469.71711633149567   -4.69717e+02   0.00000e+00
   @RHF iter   1:  -470.69690571448808   -9.79789e-01   4.22799e-03 DIIS
   @RHF iter   2:  -470.92192470210244   -2.25019e-01   2.24392e-03 DIIS
   @RHF iter   3:  -470.98146447055876   -5.95398e-02   4.09842e-04 DIIS
   @RHF iter   4:  -470.98486340156393   -3.39893e-03   1.54567e-04 DIIS
   @RHF iter   5:  -470.98532262030835   -4.59219e-04   3.16580e-05 DIIS
   @RHF iter   6:  -470.98534881050455   -2.61902e-05   1.63389e-05 DIIS
   @RHF iter   7:  -470.98535439194939   -5.58144e-06   4.13630e-06 DIIS
   @RHF iter   8:  -470.98535520084010   -8.08891e-07   1.90003e-06 DIIS
   @RHF iter   9:  -470.98535534232980   -1.41490e-07   6.94451e-07 DIIS
   @RHF iter  10:  -470.98535536769043   -2.53606e-08   2.21301e-07 DIIS
   @RHF iter  11:  -470.98535536994189   -2.25145e-09   5.58461e-08 DIIS
   @RHF iter  12:  -470.98535537004966   -1.07775e-10   2.00400e-08 DIIS
   @RHF iter  13:  -470.98535537006245   -1.27898e-11   5.42087e-09 DIIS
   @RHF iter  14:  -470.98535537006086    1.59162e-12   1.52216e-09 DIIS
   @RHF iter  15:  -470.98535537006205   -1.19371e-12   6.62052e-10 DIIS
   @RHF iter  16:  -470.98535537005927    2.78533e-12   2.84113e-10 DIIS
   @RHF iter  17:  -470.98535537006239   -3.12639e-12   1.23359e-10 DIIS
   @RHF iter  18:  -470.98535537006160    7.95808e-13   4.93252e-11 DIIS
  Energy and wave function converged.

  ==> Post-Iterations <==

    Orbital Energies [Eh]
    ---------------------

    Doubly Occupied:

       1A    -20.428633     2A    -20.395613     3A    -15.662824
       4A    -15.629609     5A    -15.627997     6A    -11.444306
       7A    -11.321416     8A    -11.261493     9A    -11.176619
      10A     -1.402941    11A     -1.301860    12A     -1.259621
      13A     -1.246125    14A     -1.184919    15A     -1.009293
      16A     -0.927305    17A     -0.898789    18A     -0.835126
      19A     -0.800569    20A     -0.722753    21A     -0.710772
      22A     -0.686932    23A     -0.658483    24A     -0.640517
      25A     -0.617569    26A     -0.599232    27A     -0.549486
      28A     -0.543352    29A     -0.541469    30A     -0.483113
      31A     -0.479207    32A     -0.449879    33A     -0.436622
      34A     -0.341559    35A     -0.311851    36A     -0.311105

    Virtual:

      37A      0.111795    38A      0.142253    39A      0.164030
      40A      0.186552    41A      0.193810    42A      0.223197
      43A      0.238373    44A      0.245459    45A      0.270168
      46A      0.275545    47A      0.312819    48A      0.326392
      49A      0.350102    50A      0.371319    51A      0.420030
      52A      0.457410    53A      0.474341    54A      0.478968
      55A      0.568705    56A      0.579684    57A      0.588148
      58A      0.636117    59A      0.646587    60A      0.657125
      61A      0.663381    62A      0.677567    63A      0.689346
      64A      0.696690    65A      0.715629    66A      0.740052
      67A      0.789997    68A      0.811671    69A      0.812211
      70A      0.826434    71A      0.829713    72A      0.862473
      73A      0.870462    74A      0.881969    75A      0.896131
      76A      0.912116    77A      0.920115    78A      0.934001
      79A      0.946388    80A      0.964557    81A      0.977906
      82A      0.995432    83A      1.023982    84A      1.061347
      85A      1.073948    86A      1.086841    87A      1.126431
      88A      1.151894    89A      1.188335    90A      1.214720
      91A      1.224985    92A      1.256007    93A      1.262687
      94A      1.282331    95A      1.310074    96A      1.334644
      97A      1.342263    98A      1.382091    99A      1.417339
     100A      1.452777   101A      1.457985   102A      1.483982
     103A      1.529785   104A      1.544379   105A      1.558796
     106A      1.575500   107A      1.593883   108A      1.603238
     109A      1.616797   110A      1.666677   111A      1.680205
     112A      1.700833   113A      1.709328   114A      1.722775
     115A      1.787287   116A      1.806382   117A      1.846533
     118A      1.873799   119A      1.878149   120A      1.900223
     121A      1.919277   122A      1.923657   123A      1.932539
     124A      1.945520   125A      1.959289   126A      1.971360
     127A      1.973250   128A      1.985237   129A      2.003292
     130A      2.041674   131A      2.081359   132A      2.149202
     133A      2.170820   134A      2.181367   135A      2.191986
     136A      2.198373   137A      2.232352   138A      2.270917
     139A      2.288806   140A      2.310078   141A      2.331754
     142A      2.377126   143A      2.394105   144A      2.430595
     145A      2.458790   146A      2.469664   147A      2.480276
     148A      2.514732   149A      2.570638   150A      2.584893
     151A      2.590203   152A      2.618317   153A      2.657412
     154A      2.686924   155A      2.711319   156A      2.731827
     157A      2.772971   158A      2.807843   159A      2.838283
     160A      2.863887   161A      2.882853   162A      2.892246
     163A      2.932988   164A      2.964161   165A      2.974091
     166A      3.029401   167A      3.086798   168A      3.141199
     169A      3.151709   170A      3.203319   171A      3.230186
     172A      3.265981   173A      3.297665   174A      3.479114
     175A      3.642648   176A      3.679151   177A      3.738139
     178A      3.789285   179A      3.928179   180A      3.969575
     181A      4.051789

    Final Occupation by Irrep:
              A
    DOCC [    36 ]

  @RHF Final Energy:  -470.98535537006160

   => Energetics <=

    Nuclear Repulsion Energy =            461.0983361630993045
    One-Electron Energy =               -1558.3694668571383772
    Two-Electron Energy =                 626.2857753239775320
    Total Energy =                       -470.9853553700615976

Computation Completed

Properties will be evaluated at   0.000000,   0.000000,   0.000000 [a0]

Properties computed using the SCF density matrix

  Nuclear Dipole Moment: [e a0]
     X:     3.4840      Y:    -5.6992      Z:    -8.4078

  Electronic Dipole Moment: [e a0]
     X:     1.5500      Y:     2.4399      Z:     5.7226

  Dipole Moment: [e a0]
     X:     5.0340      Y:    -3.2594      Z:    -2.6852     Total:     6.5707

  Dipole Moment: [D]
     X:    12.7950      Y:    -8.2845      Z:    -6.8250     Total:    16.7011

*** tstop() called on ds3 at Tue Apr 28 09:53:05 2020
Module time:
	user time   =      50.32 seconds =       0.84 minutes
	system time =      23.04 seconds =       0.38 minutes
	total time  =         70 seconds =       1.17 minutes
Total time:
	user time   =      50.32 seconds =       0.84 minutes
	system time =      23.04 seconds =       0.38 minutes
	total time  =         70 seconds =       1.17 minutes
                                     G D M A

                                 by Anthony Stone

                           version 2.2.06, 22 June 2011

               Distributed Multipoles from Gaussian wavefunctions

Starting at 9:53:5 on 28 Apr 2020

Using SCF density matrix from file ./SSI/SSI-097GLU-101ARG-1-dimer.test.11122.fchk

                         Distributed Multipole Analysis

Standard DMA

Positions and radii in angstrom
Multipole moments in atomic units, ea_0^k for rank k

C          x = -2.385737  y =  1.237837  z = -0.746380 angstrom
           Maximum rank =  0   Radius =  0.650 angstrom
                   Q00  =  -0.276911

C          x = -1.899737  y =  1.295837  z =  0.689620 angstrom
           Maximum rank =  0   Radius =  0.650 angstrom
                   Q00  =   0.927394

O          x = -0.985737  y =  0.510837  z =  1.031621 angstrom
           Maximum rank =  0   Radius =  0.650 angstrom
                   Q00  =  -0.941387

O          x = -2.423737  y =  2.118837  z =  1.473620 angstrom
           Maximum rank =  0   Radius =  0.650 angstrom
                   Q00  =  -0.864160

H          x = -1.794737  y =  0.494837  z = -1.284380 angstrom
           Maximum rank =  0   Radius =  0.325 angstrom
                   Q00  =   0.019436

H          x = -2.216737  y =  2.194837  z = -1.235380 angstrom
           Maximum rank =  0   Radius =  0.325 angstrom
                   Q00  =   0.103782

H          x = -3.450827  y =  0.971564  z = -0.814750 angstrom
           Maximum rank =  0   Radius =  0.325 angstrom
                   Q00  =   0.107064

C          x =  0.400263  y = -2.087163  z = -1.739380 angstrom
           Maximum rank =  0   Radius =  0.650 angstrom
                   Q00  =  -0.106764

C          x =  1.804263  y = -0.771163  z = -0.172380 angstrom
           Maximum rank =  0   Radius =  0.650 angstrom
                   Q00  =   1.065935

N          x =  0.620263  y = -1.184163  z = -0.601380 angstrom
           Maximum rank =  0   Radius =  0.650 angstrom
                   Q00  =  -0.505392

N          x =  2.913263  y = -1.180163  z = -0.759380 angstrom
           Maximum rank =  0   Radius =  0.650 angstrom
                   Q00  =  -0.583182

N          x =  1.874263  y =  0.077837  z =  0.832620 angstrom
           Maximum rank =  0   Radius =  0.650 angstrom
                   Q00  =  -0.579586

H          x = -0.185737  y = -0.797163  z = -0.113380 angstrom
           Maximum rank =  0   Radius =  0.325 angstrom
                   Q00  =   0.267852

H          x =  2.869263  y = -1.861163  z = -1.499380 angstrom
           Maximum rank =  0   Radius =  0.325 angstrom
                   Q00  =   0.246605

H          x =  3.811263  y = -0.880163  z = -0.415380 angstrom
           Maximum rank =  0   Radius =  0.325 angstrom
                   Q00  =   0.241904

H          x =  0.986263  y =  0.384837  z =  1.230621 angstrom
           Maximum rank =  0   Radius =  0.325 angstrom
                   Q00  =   0.303640

H          x =  2.755263  y =  0.368837  z =  1.220620 angstrom
           Maximum rank =  0   Radius =  0.325 angstrom
                   Q00  =   0.234437

H          x = -0.591737  y = -2.535163  z = -1.639380 angstrom
           Maximum rank =  0   Radius =  0.325 angstrom
                   Q00  =   0.151443

H          x =  1.129263  y = -2.901163  z = -1.739380 angstrom
           Maximum rank =  0   Radius =  0.325 angstrom
                   Q00  =   0.082801

H          x =  0.439033  y = -1.540053  z = -2.692880 angstrom
           Maximum rank =  0   Radius =  0.325 angstrom
                   Q00  =   0.105090

Total multipoles referred to origin at
           x =   0.000000,  y =    0.000000,  z =    0.000000 angstrom
                   Q00  =  -0.000000

Finished at 9:53:5 on 28 Apr 2020

  DMA results are available in the Python driver through the
	  variable('DMA DISTRIBUTED MULTIPOLES')
  and
	  variable('DMA TOTAL MULTIPOLES')
  commands.

    Psi4 stopped on: Tuesday, 28 April 2020 09:53AM
    Psi4 wall time for execution: 0:01:11.02

*** Psi4 exiting successfully. Buy a developer a beer!
