                               Psi4 1.3.2 release

  ==> Input File <==

--------------------------------------------------------------------------
import numpy as np
set {scf_type pk
basis cc-pvdz
d_convergence 10
gdma_switch   0
gdma_limit    0
gdma_origin   [ 0.0,  0.0,  0.0 ]
}
molecule test {
    units Angstrom
    0 1
    --
    0 1
    C                3.303903776268926    -1.705344081542286    -1.745964911152075
    C               -0.468096223731074    -1.906344081542285    -1.593964911152074
    C                0.814903776268926    -1.507344081542285    -1.921964911152075
    C               -0.671096223731074    -2.922344081542286    -0.679964911152074
    C                1.910903776268926    -2.119344081542286    -1.336964911152075
    C                0.412903776268926    -3.534344081542285    -0.086964911152074
    C                1.699903776268926    -3.150344081542286    -0.428964911152074
    H               -1.317096223731074    -1.434344081542285    -2.055964911152075
    H                0.954903776268926    -0.713344081542285    -2.641964911152074
    H               -1.674096223731075    -3.240344081542285    -0.435964911152074
    H                0.253903776268926    -4.325344081542285     0.632035088847926
    H                3.262903776268925    -1.372344081542285    -2.785964911152075
    H                3.960903776268926    -2.576344081542286    -1.717964911152075
    H                2.540903776268925    -3.639344081542286     0.035035088847926
    H                3.731183776268926    -0.897054081542285    -1.134324911152074
    C               -2.016096223731075     2.215655918457714     3.667035088847926
    C               -0.034096223731074     0.989655918457715     0.667035088847926
    C               -0.353096223731074     1.942655918457715    -0.302964911152074
    C               -0.565096223731074     1.108655918457715     1.946035088847926
    C               -1.418096223731074     2.149655918457714     2.279035088847926
    C               -1.205096223731074     2.991655918457715     0.019035088847926
    C               -1.737096223731075     3.089655918457714     1.299035088847926
    O                0.162903776268926     1.833655918457715    -1.564964911152074
    H                0.610903776268926     0.161655918457715     0.416035088847926
    H               -0.327096223731074     0.352655918457715     2.682035088847925
    H               -1.461096223731075     3.725655918457714    -0.728964911152074
    H               -0.282096223731074     2.441655918457715    -2.177964911152074
    H               -1.481096223731074     1.528655918457715     4.326035088847926
    H               -3.034096223731075     1.851655918457715     3.585035088847925
    H               -2.422096223731074     3.896655918457715     1.520035088847925
    H               -2.028385223731075     3.212545918457715     4.131865088847926

}
e, wfn = energy('scf', return_wfn=True)
gdma(wfn)
dmavals = variable('DMA DISTRIBUTED MULTIPOLES')
charges = np.array(dmavals)
print(charges)
np.save('SSI-035PHE-047TYR-1-dimer.npy', np.array(charges))--------------------------------------------------------------------------

*** tstart() called on ds3
*** at Mon Apr 27 13:49:54 2020

   => Loading Basis Set <=

    Name: CC-PVDZ
    Role: ORBITAL
    Keyword: BASIS
    atoms 1-7, 16-22  entry C          line   138 file /theoryfs2/ds/metcalf/miniconda2/envs/tf2gpu/share/psi4/basis/cc-pvdz.gbs
    atoms 8-15, 24-31 entry H          line    22 file /theoryfs2/ds/metcalf/miniconda2/envs/tf2gpu/share/psi4/basis/cc-pvdz.gbs
    atoms 23          entry O          line   198 file /theoryfs2/ds/metcalf/miniconda2/envs/tf2gpu/share/psi4/basis/cc-pvdz.gbs

         ---------------------------------------------------------
                                   SCF
               by Justin Turney, Rob Parrish, Andy Simmonett
                          and Daniel G. A. Smith
                              RHF Reference
                        1 Threads,    500 MiB Core
         ---------------------------------------------------------

  ==> Geometry <==

    Molecular point group: c1
    Full point group: C1

    Geometry (in Angstrom), charge = 0, multiplicity = 1:

       Center              X                  Y                   Z               Mass
    ------------   -----------------  -----------------  -----------------  -----------------
         C            3.303903776269    -1.705344081542    -1.745964911152    12.000000000000
         C           -0.468096223731    -1.906344081542    -1.593964911152    12.000000000000
         C            0.814903776269    -1.507344081542    -1.921964911152    12.000000000000
         C           -0.671096223731    -2.922344081542    -0.679964911152    12.000000000000
         C            1.910903776269    -2.119344081542    -1.336964911152    12.000000000000
         C            0.412903776269    -3.534344081542    -0.086964911152    12.000000000000
         C            1.699903776269    -3.150344081542    -0.428964911152    12.000000000000
         H           -1.317096223731    -1.434344081542    -2.055964911152     1.007825032230
         H            0.954903776269    -0.713344081542    -2.641964911152     1.007825032230
         H           -1.674096223731    -3.240344081542    -0.435964911152     1.007825032230
         H            0.253903776269    -4.325344081542     0.632035088848     1.007825032230
         H            3.262903776269    -1.372344081542    -2.785964911152     1.007825032230
         H            3.960903776269    -2.576344081542    -1.717964911152     1.007825032230
         H            2.540903776269    -3.639344081542     0.035035088848     1.007825032230
         H            3.731183776269    -0.897054081542    -1.134324911152     1.007825032230
         C           -2.016096223731     2.215655918458     3.667035088848    12.000000000000
         C           -0.034096223731     0.989655918458     0.667035088848    12.000000000000
         C           -0.353096223731     1.942655918458    -0.302964911152    12.000000000000
         C           -0.565096223731     1.108655918458     1.946035088848    12.000000000000
         C           -1.418096223731     2.149655918458     2.279035088848    12.000000000000
         C           -1.205096223731     2.991655918458     0.019035088848    12.000000000000
         C           -1.737096223731     3.089655918458     1.299035088848    12.000000000000
         O            0.162903776269     1.833655918458    -1.564964911152    15.994914619570
         H            0.610903776269     0.161655918458     0.416035088848     1.007825032230
         H           -0.327096223731     0.352655918458     2.682035088848     1.007825032230
         H           -1.461096223731     3.725655918458    -0.728964911152     1.007825032230
         H           -0.282096223731     2.441655918458    -2.177964911152     1.007825032230
         H           -1.481096223731     1.528655918458     4.326035088848     1.007825032230
         H           -3.034096223731     1.851655918458     3.585035088848     1.007825032230
         H           -2.422096223731     3.896655918458     1.520035088848     1.007825032230
         H           -2.028385223731     3.212545918458     4.131865088848     1.007825032230

  Running in c1 symmetry.

  Rotational constants: A =      0.03250  B =      0.00975  C =      0.00864 [cm^-1]
  Rotational constants: A =    974.27360  B =    292.24029  C =    258.91502 [MHz]
  Nuclear repulsion =  892.095368835287900

  Charge       = 0
  Multiplicity = 1
  Electrons    = 108
  Nalpha       = 54
  Nbeta        = 54

  ==> Algorithm <==

  SCF Algorithm Type is PK.
  DIIS enabled.
  MOM disabled.
  Fractional occupation disabled.
  Guess Type is SAD.
  Energy threshold   = 1.00e-06
  Density threshold  = 1.00e-10
  Integral threshold = 0.00e+00

  ==> Primary Basis <==

  Basis Set: CC-PVDZ
    Blend: CC-PVDZ
    Number of shells: 138
    Number of basis function: 290
    Number of Cartesian functions: 305
    Spherical Harmonics?: true
    Max angular momentum: 2

  ==> Pre-Iterations <==

   -------------------------------------------------------
    Irrep   Nso     Nmo     Nalpha   Nbeta   Ndocc  Nsocc
   -------------------------------------------------------
     A        290     290       0       0       0       0
   -------------------------------------------------------
    Total     290     290      54      54      54       0
   -------------------------------------------------------

  ==> Integral Setup <==

  Using integral reordering PK algorithm.
  Sizing the integral batches needed.
  Building batch lookup table.
   Calculation information:
      Number of atoms:                  31
      Number of AO shells:             138
      Number of primitives:            410
      Number of atomic orbitals:       305
      Number of basis functions:       290

      Integral cutoff                 1.00e-12
      Number of threads:                 1

	Batch   1 pq = [       0,    9405] index = [             0,44231715] size =     44231715
	Batch   2 pq = [    9405,   13301] index = [      44231715,88464951] size =     44233236
	Batch   3 pq = [   13301,   16290] index = [      88464951,132690195] size =     44225244
	Batch   4 pq = [   16290,   18810] index = [     132690195,176917455] size =     44227260
	Batch   5 pq = [   18810,   21030] index = [     176917455,221140965] size =     44223510
	Batch   6 pq = [   21030,   23037] index = [     221140965,265363203] size =     44222238
	Batch   7 pq = [   23037,   24883] index = [     265363203,309594286] size =     44231083
	Batch   8 pq = [   24883,   26601] index = [     309594286,353819901] size =     44225615
	Batch   9 pq = [   26601,   28214] index = [     353819901,398029005] size =     44209104
	Batch  10 pq = [   28214,   29740] index = [     398029005,442248670] size =     44219665
	Batch  11 pq = [   29740,   31191] index = [     442248670,486454836] size =     44206166
	Batch  12 pq = [   31191,   32578] index = [     486454836,530679331] size =     44224495
	Batch  13 pq = [   32578,   33908] index = [     530679331,574893186] size =     44213855
	Batch  14 pq = [   33908,   35188] index = [     574893186,619115266] size =     44222080
	Batch  15 pq = [   35188,   36423] index = [     619115266,663335676] size =     44220410
	Batch  16 pq = [   36423,   37617] index = [     663335676,707538153] size =     44202477
	Batch  17 pq = [   37617,   38775] index = [     707538153,751769700] size =     44231547
	Batch  18 pq = [   38775,   39899] index = [     751769700,795985050] size =     44215350
	Batch  19 pq = [   39899,   40992] index = [     795985050,840192528] size =     44207478
	Batch  20 pq = [   40992,   42057] index = [     840192528,884416653] size =     44224125
	Batch  21 pq = [   42057,   42195] index = [     884416653,890230110] size =      5813457
  Task number: 81
  Buffer size: 11059200
  Buffer per thread: 2
  We computed 42680432 shell quartets total.
  Whereas there are 45998436 unique shell quartets.

  ==> DiskJK: Disk-Based J/K Matrices <==

    J tasked:                  Yes
    K tasked:                  Yes
    wK tasked:                  No
    Memory [MiB]:              375
    Schwarz Cutoff:          1E-12

    OpenMP threads:              1

  Minimum eigenvalue in the overlap matrix is 2.9428483869E-04.
  Using Symmetric Orthogonalization.

  SCF Guess: Superposition of Atomic Densities via on-the-fly atomic UHF.

  ==> Iterations <==

                        Total Energy        Delta E     RMS |[F,P]|

   @RHF iter SAD:  -613.28952702775757   -6.13290e+02   0.00000e+00
   @RHF iter   1:  -614.05788497608535   -7.68358e-01   2.39149e-03 DIIS
   @RHF iter   2:  -614.33644258936067   -2.78558e-01   9.98223e-04 DIIS
   @RHF iter   3:  -614.37904149718815   -4.25989e-02   2.32539e-04 DIIS
   @RHF iter   4:  -614.38261861423325   -3.57712e-03   8.73706e-05 DIIS
   @RHF iter   5:  -614.38299285708456   -3.74243e-04   1.71532e-05 DIIS
   @RHF iter   6:  -614.38301329991111   -2.04428e-05   5.68333e-06 DIIS
   @RHF iter   7:  -614.38301553003407   -2.23012e-06   1.63264e-06 DIIS
   @RHF iter   8:  -614.38301579102290   -2.60989e-07   6.63623e-07 DIIS
   @RHF iter   9:  -614.38301582892632   -3.79034e-08   2.32397e-07 DIIS
   @RHF iter  10:  -614.38301583512896   -6.20264e-09   8.32754e-08 DIIS
   @RHF iter  11:  -614.38301583650627   -1.37732e-09   3.95438e-08 DIIS
   @RHF iter  12:  -614.38301583683187   -3.25599e-10   1.96690e-08 DIIS
   @RHF iter  13:  -614.38301583691725   -8.53788e-11   6.67874e-09 DIIS
   @RHF iter  14:  -614.38301583692805   -1.08002e-11   2.02857e-09 DIIS
   @RHF iter  15:  -614.38301583692851   -4.54747e-13   6.01807e-10 DIIS
   @RHF iter  16:  -614.38301583692771    7.95808e-13   2.38521e-10 DIIS
   @RHF iter  17:  -614.38301583692714    5.68434e-13   8.51821e-11 DIIS
  Energy and wave function converged.

  ==> Post-Iterations <==

    Orbital Energies [Eh]
    ---------------------

    Doubly Occupied:

       1A    -20.582834     2A    -11.294488     3A    -11.234605
       4A    -11.233048     5A    -11.231080     6A    -11.229918
       7A    -11.229732     8A    -11.227875     9A    -11.225582
      10A    -11.225073    11A    -11.224382    12A    -11.224286
      13A    -11.223582    14A    -11.222664    15A    -11.219943
      16A     -1.394679    17A     -1.152210    18A     -1.147694
      19A     -1.040653    20A     -1.033413    21A     -1.013799
      22A     -1.008298    23A     -0.926646    24A     -0.923272
      25A     -0.839320    26A     -0.820747    27A     -0.798662
      28A     -0.790892    29A     -0.726829    30A     -0.687938
      31A     -0.664118    32A     -0.637047    33A     -0.628041
      34A     -0.622555    35A     -0.605067    36A     -0.583231
      37A     -0.582867    38A     -0.577617    39A     -0.571466
      40A     -0.569844    41A     -0.560629    42A     -0.557111
      43A     -0.528518    44A     -0.523805    45A     -0.494454
      46A     -0.488415    47A     -0.478256    48A     -0.476602
      49A     -0.476084    50A     -0.464172    51A     -0.335839
      52A     -0.326534    53A     -0.319075    54A     -0.298276

    Virtual:

      55A      0.133731    56A      0.145173    57A      0.148526
      58A      0.160518    59A      0.175804    60A      0.188926
      61A      0.192510    62A      0.205275    63A      0.218009
      64A      0.226619    65A      0.232705    66A      0.250785
      67A      0.260273    68A      0.261230    69A      0.269362
      70A      0.279339    71A      0.282987    72A      0.289724
      73A      0.303847    74A      0.322408    75A      0.372108
      76A      0.377188    77A      0.377800    78A      0.384149
      79A      0.428345    80A      0.457419    81A      0.462742
      82A      0.471696    83A      0.487499    84A      0.490884
      85A      0.493691    86A      0.500524    87A      0.512190
      88A      0.570261    89A      0.601866    90A      0.616831
      91A      0.630671    92A      0.644429    93A      0.653804
      94A      0.659327    95A      0.664580    96A      0.689136
      97A      0.690884    98A      0.698181    99A      0.705214
     100A      0.710307   101A      0.715260   102A      0.720891
     103A      0.735418   104A      0.747714   105A      0.750784
     106A      0.753399   107A      0.757625   108A      0.765865
     109A      0.772247   110A      0.776865   111A      0.784667
     112A      0.785523   113A      0.792675   114A      0.800151
     115A      0.812763   116A      0.835890   117A      0.842181
     118A      0.855822   119A      0.864477   120A      0.873575
     121A      0.877152   122A      0.882505   123A      0.884965
     124A      0.887183   125A      0.896832   126A      0.904621
     127A      0.910733   128A      0.915995   129A      0.927636
     130A      0.933148   131A      0.936422   132A      0.940931
     133A      0.946491   134A      0.947231   135A      0.959924
     136A      0.987046   137A      0.997183   138A      1.014552
     139A      1.030035   140A      1.047053   141A      1.060628
     142A      1.103184   143A      1.128438   144A      1.136606
     145A      1.140468   146A      1.150086   147A      1.153130
     148A      1.164960   149A      1.171565   150A      1.175822
     151A      1.208197   152A      1.220554   153A      1.231488
     154A      1.245871   155A      1.254885   156A      1.256287
     157A      1.263922   158A      1.269392   159A      1.284497
     160A      1.289279   161A      1.305605   162A      1.314743
     163A      1.318660   164A      1.321073   165A      1.327664
     166A      1.336809   167A      1.343789   168A      1.367378
     169A      1.388025   170A      1.402058   171A      1.427044
     172A      1.483046   173A      1.503575   174A      1.511478
     175A      1.526610   176A      1.547369   177A      1.565178
     178A      1.574122   179A      1.600920   180A      1.627130
     181A      1.653369   182A      1.674382   183A      1.688196
     184A      1.702444   185A      1.707299   186A      1.736378
     187A      1.744772   188A      1.750424   189A      1.763970
     190A      1.775366   191A      1.786810   192A      1.801489
     193A      1.811844   194A      1.819214   195A      1.829954
     196A      1.869962   197A      1.879271   198A      1.890203
     199A      1.892940   200A      1.903785   201A      1.909112
     202A      1.917609   203A      1.921381   204A      1.925498
     205A      1.930669   206A      1.933581   207A      1.939442
     208A      1.948356   209A      1.954396   210A      1.960120
     211A      1.965895   212A      1.973734   213A      1.976512
     214A      1.996824   215A      1.997687   216A      2.011591
     217A      2.042147   218A      2.051019   219A      2.059562
     220A      2.071573   221A      2.074482   222A      2.079813
     223A      2.082846   224A      2.085479   225A      2.125101
     226A      2.130764   227A      2.154593   228A      2.163308
     229A      2.173098   230A      2.181757   231A      2.185580
     232A      2.193274   233A      2.195230   234A      2.219405
     235A      2.230879   236A      2.264390   237A      2.268336
     238A      2.286193   239A      2.294662   240A      2.302939
     241A      2.305417   242A      2.311879   243A      2.330485
     244A      2.338434   245A      2.357589   246A      2.384562
     247A      2.407038   248A      2.446401   249A      2.476214
     250A      2.481510   251A      2.487029   252A      2.490865
     253A      2.511950   254A      2.548734   255A      2.553061
     256A      2.567464   257A      2.622502   258A      2.634158
     259A      2.640385   260A      2.746120   261A      2.758109
     262A      2.769789   263A      2.772695   264A      2.774673
     265A      2.789985   266A      2.803254   267A      2.824366
     268A      2.830730   269A      2.853404   270A      2.862004
     271A      2.879674   272A      2.905191   273A      2.974767
     274A      3.007213   275A      3.011411   276A      3.033871
     277A      3.045004   278A      3.098640   279A      3.142992
     280A      3.174806   281A      3.223344   282A      3.256048
     283A      3.294796   284A      3.325889   285A      3.344545
     286A      3.583240   287A      3.677951   288A      3.969557
     289A      4.004377   290A      4.176952

    Final Occupation by Irrep:
              A
    DOCC [    54 ]

  @RHF Final Energy:  -614.38301583692714

   => Energetics <=

    Nuclear Repulsion Energy =            892.0953688352878999
    One-Electron Energy =               -2603.9492341020763888
    Two-Electron Energy =                1097.4708494298613459
    Total Energy =                       -614.3830158369271430

Computation Completed

Properties will be evaluated at   0.000000,   0.000000,   0.000000 [a0]

Properties computed using the SCF density matrix

  Nuclear Dipole Moment: [e a0]
     X:     1.2087      Y:    -0.9543      Z:     3.4133

  Electronic Dipole Moment: [e a0]
     X:    -1.5635      Y:     1.3586      Z:    -3.4931

  Dipole Moment: [e a0]
     X:    -0.3548      Y:     0.4043      Z:    -0.0797     Total:     0.5438

  Dipole Moment: [D]
     X:    -0.9018      Y:     1.0276      Z:    -0.2027     Total:     1.3821

*** tstop() called on ds3 at Mon Apr 27 14:01:44 2020
Module time:
	user time   =     376.97 seconds =       6.28 minutes
	system time =     141.64 seconds =       2.36 minutes
	total time  =        710 seconds =      11.83 minutes
Total time:
	user time   =     376.97 seconds =       6.28 minutes
	system time =     141.64 seconds =       2.36 minutes
	total time  =        710 seconds =      11.83 minutes
                                     G D M A

                                 by Anthony Stone

                           version 2.2.06, 22 June 2011

               Distributed Multipoles from Gaussian wavefunctions

Starting at 14:1:44 on 27 Apr 2020

Using SCF density matrix from file ./SSI/SSI-035PHE-047TYR-1-dimer.test.7936.fchk

                         Distributed Multipole Analysis

Standard DMA

Positions and radii in angstrom
Multipole moments in atomic units, ea_0^k for rank k

C          x =  3.303904  y = -1.705344  z = -1.745965 angstrom
           Maximum rank =  0   Radius =  0.650 angstrom
                   Q00  =  -0.201713

C          x = -0.468096  y = -1.906344  z = -1.593965 angstrom
           Maximum rank =  0   Radius =  0.650 angstrom
                   Q00  =  -0.011711

C          x =  0.814904  y = -1.507344  z = -1.921965 angstrom
           Maximum rank =  0   Radius =  0.650 angstrom
                   Q00  =  -0.080755

C          x = -0.671096  y = -2.922344  z = -0.679965 angstrom
           Maximum rank =  0   Radius =  0.650 angstrom
                   Q00  =  -0.078085

C          x =  1.910904  y = -2.119344  z = -1.336965 angstrom
           Maximum rank =  0   Radius =  0.650 angstrom
                   Q00  =  -0.107391

C          x =  0.412904  y = -3.534344  z = -0.086965 angstrom
           Maximum rank =  0   Radius =  0.650 angstrom
                   Q00  =  -0.080314

C          x =  1.699904  y = -3.150344  z = -0.428965 angstrom
           Maximum rank =  0   Radius =  0.650 angstrom
                   Q00  =  -0.029722

H          x = -1.317096  y = -1.434344  z = -2.055965 angstrom
           Maximum rank =  0   Radius =  0.325 angstrom
                   Q00  =   0.060520

H          x =  0.954904  y = -0.713344  z = -2.641965 angstrom
           Maximum rank =  0   Radius =  0.325 angstrom
                   Q00  =   0.061383

H          x = -1.674096  y = -3.240344  z = -0.435965 angstrom
           Maximum rank =  0   Radius =  0.325 angstrom
                   Q00  =   0.057322

H          x =  0.253904  y = -4.325344  z =  0.632035 angstrom
           Maximum rank =  0   Radius =  0.325 angstrom
                   Q00  =   0.059810

H          x =  3.262904  y = -1.372344  z = -2.785965 angstrom
           Maximum rank =  0   Radius =  0.325 angstrom
                   Q00  =   0.096262

H          x =  3.960904  y = -2.576344  z = -1.717965 angstrom
           Maximum rank =  0   Radius =  0.325 angstrom
                   Q00  =   0.095482

H          x =  2.540904  y = -3.639344  z =  0.035035 angstrom
           Maximum rank =  0   Radius =  0.325 angstrom
                   Q00  =   0.053466

H          x =  3.731184  y = -0.897054  z = -1.134325 angstrom
           Maximum rank =  0   Radius =  0.325 angstrom
                   Q00  =   0.106637

C          x = -2.016096  y =  2.215656  z =  3.667035 angstrom
           Maximum rank =  0   Radius =  0.650 angstrom
                   Q00  =  -0.204638

C          x = -0.034096  y =  0.989656  z =  0.667035 angstrom
           Maximum rank =  0   Radius =  0.650 angstrom
                   Q00  =  -0.111022

C          x = -0.353096  y =  1.942656  z = -0.302965 angstrom
           Maximum rank =  0   Radius =  0.650 angstrom
                   Q00  =   0.311633

C          x = -0.565096  y =  1.108656  z =  1.946035 angstrom
           Maximum rank =  0   Radius =  0.650 angstrom
                   Q00  =   0.040766

C          x = -1.418096  y =  2.149656  z =  2.279035 angstrom
           Maximum rank =  0   Radius =  0.650 angstrom
                   Q00  =  -0.133687

C          x = -1.205096  y =  2.991656  z =  0.019035 angstrom
           Maximum rank =  0   Radius =  0.650 angstrom
                   Q00  =  -0.189814

C          x = -1.737096  y =  3.089656  z =  1.299035 angstrom
           Maximum rank =  0   Radius =  0.650 angstrom
                   Q00  =  -0.026752

O          x =  0.162904  y =  1.833656  z = -1.564965 angstrom
           Maximum rank =  0   Radius =  0.650 angstrom
                   Q00  =  -0.675651

H          x =  0.610904  y =  0.161656  z =  0.416035 angstrom
           Maximum rank =  0   Radius =  0.325 angstrom
                   Q00  =   0.095982

H          x = -0.327096  y =  0.352656  z =  2.682035 angstrom
           Maximum rank =  0   Radius =  0.325 angstrom
                   Q00  =   0.060159

H          x = -1.461096  y =  3.725656  z = -0.728965 angstrom
           Maximum rank =  0   Radius =  0.325 angstrom
                   Q00  =   0.068492

H          x = -0.282096  y =  2.441656  z = -2.177965 angstrom
           Maximum rank =  0   Radius =  0.325 angstrom
                   Q00  =   0.404798

H          x = -1.481096  y =  1.528656  z =  4.326035 angstrom
           Maximum rank =  0   Radius =  0.325 angstrom
                   Q00  =   0.096192

H          x = -3.034096  y =  1.851656  z =  3.585035 angstrom
           Maximum rank =  0   Radius =  0.325 angstrom
                   Q00  =   0.098423

H          x = -2.422096  y =  3.896656  z =  1.520035 angstrom
           Maximum rank =  0   Radius =  0.325 angstrom
                   Q00  =   0.064610

H          x = -2.028385  y =  3.212546  z =  4.131865 angstrom
           Maximum rank =  0   Radius =  0.325 angstrom
                   Q00  =   0.099318

Total multipoles referred to origin at
           x =   0.000000,  y =    0.000000,  z =    0.000000 angstrom
                   Q00  =  -0.000000

Finished at 14:1:44 on 27 Apr 2020

  DMA results are available in the Python driver through the
	  variable('DMA DISTRIBUTED MULTIPOLES')
  and
	  variable('DMA TOTAL MULTIPOLES')
  commands.

    Psi4 stopped on: Monday, 27 April 2020 02:01PM
    Psi4 wall time for execution: 0:11:50.30

*** Psi4 exiting successfully. Buy a developer a beer!
