                               Psi4 1.3.2 release

  ==> Input File <==

--------------------------------------------------------------------------
import numpy as np
set {scf_type pk
basis cc-pvdz
d_convergence 10
gdma_switch   0
gdma_limit    0
gdma_origin   [ 0.0,  0.0,  0.0 ]
}
molecule test {
    units Angstrom
    0 1
    --
    0 1
    C                3.093186939896526     2.056070280146907    -0.477555008016625
    C                1.939186939896525     1.141070280146907    -0.107555008016625
    O                1.357186939896525     0.600070280146907    -1.067555008016625
    O                1.605186939896525     0.899070280146907     1.081444991983375
    H                2.784186939896526     2.696070280146907    -1.304555008016625
    H                3.936186939896526     1.439070280146907    -0.801555008016625
    H                3.440586939896526     2.744460280146908     0.306934991983375
    C               -1.976813060103475    -0.557929719853093    -1.789555008016625
    C               -1.500813060103475    -1.022929719853093     0.584444991983375
    N               -1.182813060103475    -0.458929719853093    -0.567555008016625
    N               -2.578813060103475    -1.767929719853093     0.703444991983375
    N               -0.705813060103475    -0.837929719853093     1.611444991983375
    H               -0.331813060103475     0.101070280146907    -0.612555008016625
    H               -2.886813060103474    -1.117929719853093    -1.570555008016625
    H               -1.400813060103475    -1.108929719853093    -2.536555008016625
    H               -3.175813060103474    -1.931929719853093    -0.101555008016625
    H               -2.805813060103474    -2.190929719853093     1.591444991983375
    H                0.138186939896525    -0.275929719853093     1.496444991983375
    H               -0.926813060103475    -1.257929719853093     2.505444991983375
    H               -2.226243060103474     0.448930280146907    -2.155625008016625

}
e, wfn = energy('scf', return_wfn=True)
gdma(wfn)
dmavals = variable('DMA DISTRIBUTED MULTIPOLES')
charges = np.array(dmavals)
print(charges)
np.save('SSI-167GLU-187ARG-1-dimer.npy', np.array(charges))--------------------------------------------------------------------------

*** tstart() called on ds3
*** at Tue Apr 28 14:23:26 2020

   => Loading Basis Set <=

    Name: CC-PVDZ
    Role: ORBITAL
    Keyword: BASIS
    atoms 1-2, 8-9   entry C          line   138 file /theoryfs2/ds/metcalf/miniconda2/envs/tf2gpu/share/psi4/basis/cc-pvdz.gbs
    atoms 3-4        entry O          line   198 file /theoryfs2/ds/metcalf/miniconda2/envs/tf2gpu/share/psi4/basis/cc-pvdz.gbs
    atoms 5-7, 13-20 entry H          line    22 file /theoryfs2/ds/metcalf/miniconda2/envs/tf2gpu/share/psi4/basis/cc-pvdz.gbs
    atoms 10-12      entry N          line   168 file /theoryfs2/ds/metcalf/miniconda2/envs/tf2gpu/share/psi4/basis/cc-pvdz.gbs

         ---------------------------------------------------------
                                   SCF
               by Justin Turney, Rob Parrish, Andy Simmonett
                          and Daniel G. A. Smith
                              RHF Reference
                        1 Threads,    500 MiB Core
         ---------------------------------------------------------

  ==> Geometry <==

    Molecular point group: c1
    Full point group: C1

    Geometry (in Angstrom), charge = 0, multiplicity = 1:

       Center              X                  Y                   Z               Mass
    ------------   -----------------  -----------------  -----------------  -----------------
         C            3.093186939897     2.056070280147    -0.477555008017    12.000000000000
         C            1.939186939897     1.141070280147    -0.107555008017    12.000000000000
         O            1.357186939897     0.600070280147    -1.067555008017    15.994914619570
         O            1.605186939897     0.899070280147     1.081444991983    15.994914619570
         H            2.784186939897     2.696070280147    -1.304555008017     1.007825032230
         H            3.936186939897     1.439070280147    -0.801555008017     1.007825032230
         H            3.440586939897     2.744460280147     0.306934991983     1.007825032230
         C           -1.976813060103    -0.557929719853    -1.789555008017    12.000000000000
         C           -1.500813060103    -1.022929719853     0.584444991983    12.000000000000
         N           -1.182813060103    -0.458929719853    -0.567555008017    14.003074004430
         N           -2.578813060103    -1.767929719853     0.703444991983    14.003074004430
         N           -0.705813060103    -0.837929719853     1.611444991983    14.003074004430
         H           -0.331813060103     0.101070280147    -0.612555008017     1.007825032230
         H           -2.886813060103    -1.117929719853    -1.570555008017     1.007825032230
         H           -1.400813060103    -1.108929719853    -2.536555008017     1.007825032230
         H           -3.175813060103    -1.931929719853    -0.101555008017     1.007825032230
         H           -2.805813060103    -2.190929719853     1.591444991983     1.007825032230
         H            0.138186939897    -0.275929719853     1.496444991983     1.007825032230
         H           -0.926813060103    -1.257929719853     2.505444991983     1.007825032230
         H           -2.226243060103     0.448930280147    -2.155625008017     1.007825032230

  Running in c1 symmetry.

  Rotational constants: A =      0.10030  B =      0.02485  C =      0.02024 [cm^-1]
  Rotational constants: A =   3006.93400  B =    744.85032  C =    606.82122 [MHz]
  Nuclear repulsion =  465.995005018556299

  Charge       = 0
  Multiplicity = 1
  Electrons    = 72
  Nalpha       = 36
  Nbeta        = 36

  ==> Algorithm <==

  SCF Algorithm Type is PK.
  DIIS enabled.
  MOM disabled.
  Fractional occupation disabled.
  Guess Type is SAD.
  Energy threshold   = 1.00e-06
  Density threshold  = 1.00e-10
  Integral threshold = 0.00e+00

  ==> Primary Basis <==

  Basis Set: CC-PVDZ
    Blend: CC-PVDZ
    Number of shells: 87
    Number of basis function: 181
    Number of Cartesian functions: 190
    Spherical Harmonics?: true
    Max angular momentum: 2

  ==> Pre-Iterations <==

   -------------------------------------------------------
    Irrep   Nso     Nmo     Nalpha   Nbeta   Ndocc  Nsocc
   -------------------------------------------------------
     A        181     181       0       0       0       0
   -------------------------------------------------------
    Total     181     181      36      36      36       0
   -------------------------------------------------------

  ==> Integral Setup <==

  Using integral reordering PK algorithm.
  Sizing the integral batches needed.
  Building batch lookup table.
   Calculation information:
      Number of atoms:                  20
      Number of AO shells:              87
      Number of primitives:            253
      Number of atomic orbitals:       190
      Number of basis functions:       181

      Integral cutoff                 1.00e-12
      Number of threads:                 1

	Batch   1 pq = [       0,    9405] index = [             0,44231715] size =     44231715
	Batch   2 pq = [    9405,   13301] index = [      44231715,88464951] size =     44233236
	Batch   3 pq = [   13301,   16471] index = [      88464951,135655156] size =     47190205
  Task number: 13
  Buffer size: 11059200
  Buffer per thread: 2
  We computed 5966500 shell quartets total.
  Whereas there are 7328706 unique shell quartets.

  ==> DiskJK: Disk-Based J/K Matrices <==

    J tasked:                  Yes
    K tasked:                  Yes
    wK tasked:                  No
    Memory [MiB]:              375
    Schwarz Cutoff:          1E-12

    OpenMP threads:              1

  Minimum eigenvalue in the overlap matrix is 3.7114034004E-03.
  Using Symmetric Orthogonalization.

  SCF Guess: Superposition of Atomic Densities via on-the-fly atomic UHF.

  ==> Iterations <==

                        Total Energy        Delta E     RMS |[F,P]|

   @RHF iter SAD:  -469.80077056389047   -4.69801e+02   0.00000e+00
   @RHF iter   1:  -470.72177889235667   -9.21008e-01   4.19213e-03 DIIS
   @RHF iter   2:  -470.94335187214710   -2.21573e-01   2.16095e-03 DIIS
   @RHF iter   3:  -470.99909174302968   -5.57399e-02   3.89827e-04 DIIS
   @RHF iter   4:  -471.00220913896584   -3.11740e-03   1.29007e-04 DIIS
   @RHF iter   5:  -471.00255501668528   -3.45878e-04   2.28482e-05 DIIS
   @RHF iter   6:  -471.00257052253460   -1.55058e-05   7.28724e-06 DIIS
   @RHF iter   7:  -471.00257174727665   -1.22474e-06   2.24556e-06 DIIS
   @RHF iter   8:  -471.00257189078508   -1.43508e-07   8.99456e-07 DIIS
   @RHF iter   9:  -471.00257190798141   -1.71963e-08   2.84790e-07 DIIS
   @RHF iter  10:  -471.00257190988276   -1.90136e-09   5.99068e-08 DIIS
   @RHF iter  11:  -471.00257191003732   -1.54557e-10   1.87035e-08 DIIS
   @RHF iter  12:  -471.00257191005653   -1.92131e-11   8.43824e-09 DIIS
   @RHF iter  13:  -471.00257191005880   -2.27374e-12   2.90414e-09 DIIS
   @RHF iter  14:  -471.00257191005824    5.68434e-13   9.65596e-10 DIIS
   @RHF iter  15:  -471.00257191005880   -5.68434e-13   3.56249e-10 DIIS
   @RHF iter  16:  -471.00257191005898   -1.70530e-13   1.21859e-10 DIIS
   @RHF iter  17:  -471.00257191005790    1.08002e-12   5.44901e-11 DIIS
  Energy and wave function converged.

  ==> Post-Iterations <==

    Orbital Energies [Eh]
    ---------------------

    Doubly Occupied:

       1A    -20.427156     2A    -20.424279     3A    -15.645833
       4A    -15.606870     5A    -15.601538     6A    -11.422285
       7A    -11.300854     8A    -11.274943     9A    -11.175277
      10A     -1.385509    11A     -1.317763    12A     -1.241129
      13A     -1.226884    14A     -1.198977    15A     -0.989048
      16A     -0.926249    17A     -0.878181    18A     -0.821032
      19A     -0.778711    20A     -0.703664    21A     -0.695225
      22A     -0.668018    23A     -0.648634    24A     -0.628011
      25A     -0.600143    26A     -0.583527    27A     -0.561635
      28A     -0.547062    29A     -0.545006    30A     -0.478284
      31A     -0.465145    32A     -0.455720    33A     -0.411588
      34A     -0.348332    35A     -0.336130    36A     -0.330057

    Virtual:

      37A      0.124845    38A      0.158271    39A      0.192879
      40A      0.205584    41A      0.210100    42A      0.245588
      43A      0.250932    44A      0.272197    45A      0.280494
      46A      0.307200    47A      0.315316    48A      0.347012
      49A      0.358062    50A      0.405709    51A      0.430175
      52A      0.450768    53A      0.490480    54A      0.500168
      55A      0.562487    56A      0.576460    57A      0.592439
      58A      0.611606    59A      0.665695    60A      0.678009
      61A      0.697142    62A      0.706322    63A      0.709526
      64A      0.718890    65A      0.721849    66A      0.759504
      67A      0.792432    68A      0.803861    69A      0.826181
      70A      0.830973    71A      0.839180    72A      0.849635
      73A      0.900916    74A      0.906946    75A      0.919082
      76A      0.921912    77A      0.936842    78A      0.950928
      79A      0.960839    80A      0.971065    81A      0.985643
      82A      0.993106    83A      1.046120    84A      1.072913
      85A      1.095080    86A      1.105910    87A      1.129829
      88A      1.152069    89A      1.207891    90A      1.216618
      91A      1.261467    92A      1.273147    93A      1.306041
      94A      1.309179    95A      1.337534    96A      1.357530
      97A      1.366416    98A      1.370903    99A      1.401812
     100A      1.440090   101A      1.457285   102A      1.491603
     103A      1.500932   104A      1.523359   105A      1.576044
     106A      1.581771   107A      1.611477   108A      1.635588
     109A      1.656178   110A      1.687139   111A      1.707251
     112A      1.712567   113A      1.733248   114A      1.757576
     115A      1.785642   116A      1.823414   117A      1.844082
     118A      1.861845   119A      1.886327   120A      1.906992
     121A      1.912385   122A      1.939054   123A      1.941179
     124A      1.944368   125A      1.953790   126A      1.993933
     127A      2.001349   128A      2.019143   129A      2.057576
     130A      2.081244   131A      2.097104   132A      2.116916
     133A      2.138165   134A      2.169369   135A      2.213749
     136A      2.237127   137A      2.262446   138A      2.281522
     139A      2.300312   140A      2.337787   141A      2.351367
     142A      2.412663   143A      2.424554   144A      2.436074
     145A      2.466743   146A      2.503645   147A      2.515376
     148A      2.540069   149A      2.549654   150A      2.590950
     151A      2.599156   152A      2.632351   153A      2.679628
     154A      2.720132   155A      2.734531   156A      2.752758
     157A      2.785683   158A      2.790297   159A      2.845908
     160A      2.879935   161A      2.906544   162A      2.911929
     163A      2.939809   164A      2.994666   165A      3.003179
     166A      3.079744   167A      3.085033   168A      3.136575
     169A      3.145615   170A      3.198252   171A      3.233046
     172A      3.300023   173A      3.373156   174A      3.488828
     175A      3.604385   176A      3.661395   177A      3.789157
     178A      3.818390   179A      3.914330   180A      3.936533
     181A      4.070213

    Final Occupation by Irrep:
              A
    DOCC [    36 ]

  @RHF Final Energy:  -471.00257191005790

   => Energetics <=

    Nuclear Repulsion Energy =            465.9950050185562986
    One-Electron Energy =               -1568.6977565306785891
    Two-Electron Energy =                 631.7001796020642814
    Total Energy =                       -471.0025719100578954

Computation Completed

Properties will be evaluated at   0.000000,   0.000000,   0.000000 [a0]

Properties computed using the SCF density matrix

  Nuclear Dipole Moment: [e a0]
     X:    -3.2117      Y:    -0.4095      Z:    -2.9887

  Electronic Dipole Moment: [e a0]
     X:    -0.6768      Y:    -1.7876      Z:     3.4757

  Dipole Moment: [e a0]
     X:    -3.8885      Y:    -2.1971      Z:     0.4870     Total:     4.4928

  Dipole Moment: [D]
     X:    -9.8835      Y:    -5.5845      Z:     1.2378     Total:    11.4194

*** tstop() called on ds3 at Tue Apr 28 14:24:54 2020
Module time:
	user time   =      47.34 seconds =       0.79 minutes
	system time =      20.73 seconds =       0.35 minutes
	total time  =         88 seconds =       1.47 minutes
Total time:
	user time   =      47.34 seconds =       0.79 minutes
	system time =      20.73 seconds =       0.35 minutes
	total time  =         88 seconds =       1.47 minutes
                                     G D M A

                                 by Anthony Stone

                           version 2.2.06, 22 June 2011

               Distributed Multipoles from Gaussian wavefunctions

Starting at 14:24:54 on 28 Apr 2020

Using SCF density matrix from file ./SSI/SSI-167GLU-187ARG-1-dimer.test.20553.fchk

                         Distributed Multipole Analysis

Standard DMA

Positions and radii in angstrom
Multipole moments in atomic units, ea_0^k for rank k

C          x =  3.093187  y =  2.056070  z = -0.477555 angstrom
           Maximum rank =  0   Radius =  0.650 angstrom
                   Q00  =  -0.257947

C          x =  1.939187  y =  1.141070  z = -0.107555 angstrom
           Maximum rank =  0   Radius =  0.650 angstrom
                   Q00  =   0.881167

O          x =  1.357187  y =  0.600070  z = -1.067555 angstrom
           Maximum rank =  0   Radius =  0.650 angstrom
                   Q00  =  -0.929469

O          x =  1.605187  y =  0.899070  z =  1.081445 angstrom
           Maximum rank =  0   Radius =  0.650 angstrom
                   Q00  =  -0.933115

H          x =  2.784187  y =  2.696070  z = -1.304555 angstrom
           Maximum rank =  0   Radius =  0.325 angstrom
                   Q00  =   0.089423

H          x =  3.936187  y =  1.439070  z = -0.801555 angstrom
           Maximum rank =  0   Radius =  0.325 angstrom
                   Q00  =   0.110090

H          x =  3.440587  y =  2.744460  z =  0.306935 angstrom
           Maximum rank =  0   Radius =  0.325 angstrom
                   Q00  =   0.075616

C          x = -1.976813  y = -0.557930  z = -1.789555 angstrom
           Maximum rank =  0   Radius =  0.650 angstrom
                   Q00  =  -0.085578

C          x = -1.500813  y = -1.022930  z =  0.584445 angstrom
           Maximum rank =  0   Radius =  0.650 angstrom
                   Q00  =   1.070338

N          x = -1.182813  y = -0.458930  z = -0.567555 angstrom
           Maximum rank =  0   Radius =  0.650 angstrom
                   Q00  =  -0.519621

N          x = -2.578813  y = -1.767930  z =  0.703445 angstrom
           Maximum rank =  0   Radius =  0.650 angstrom
                   Q00  =  -0.585900

N          x = -0.705813  y = -0.837930  z =  1.611445 angstrom
           Maximum rank =  0   Radius =  0.650 angstrom
                   Q00  =  -0.602400

H          x = -0.331813  y =  0.101070  z = -0.612555 angstrom
           Maximum rank =  0   Radius =  0.325 angstrom
                   Q00  =   0.333642

H          x = -2.886813  y = -1.117930  z = -1.570555 angstrom
           Maximum rank =  0   Radius =  0.325 angstrom
                   Q00  =   0.056712

H          x = -1.400813  y = -1.108930  z = -2.536555 angstrom
           Maximum rank =  0   Radius =  0.325 angstrom
                   Q00  =   0.127147

H          x = -3.175813  y = -1.931930  z = -0.101555 angstrom
           Maximum rank =  0   Radius =  0.325 angstrom
                   Q00  =   0.244111

H          x = -2.805813  y = -2.190930  z =  1.591445 angstrom
           Maximum rank =  0   Radius =  0.325 angstrom
                   Q00  =   0.237469

H          x =  0.138187  y = -0.275930  z =  1.496445 angstrom
           Maximum rank =  0   Radius =  0.325 angstrom
                   Q00  =   0.341346

H          x = -0.926813  y = -1.257930  z =  2.505445 angstrom
           Maximum rank =  0   Radius =  0.325 angstrom
                   Q00  =   0.220308

H          x = -2.226243  y =  0.448930  z = -2.155625 angstrom
           Maximum rank =  0   Radius =  0.325 angstrom
                   Q00  =   0.126660

Total multipoles referred to origin at
           x =   0.000000,  y =    0.000000,  z =    0.000000 angstrom
                   Q00  =  -0.000000

Finished at 14:24:54 on 28 Apr 2020

  DMA results are available in the Python driver through the
	  variable('DMA DISTRIBUTED MULTIPOLES')
  and
	  variable('DMA TOTAL MULTIPOLES')
  commands.

    Psi4 stopped on: Tuesday, 28 April 2020 02:24PM
    Psi4 wall time for execution: 0:01:27.48

*** Psi4 exiting successfully. Buy a developer a beer!
