                               Psi4 1.3.2 release

  ==> Input File <==

--------------------------------------------------------------------------
import numpy as np
set {scf_type pk
basis cc-pvdz
d_convergence 10
gdma_switch   0
gdma_limit    0
gdma_origin   [ 0.0,  0.0,  0.0 ]
}
molecule test {
    units Angstrom
    -1 1
    --
    -1 1
    C                4.624728941995453     0.178141213123293     0.198085878364060
    C                3.463728941995453     1.084141213123293    -0.152914121635940
    O                2.317728941995453     0.600141213123293    -0.144914121635940
    O                3.714728941995453     2.273141213123294    -0.450914121635940
    H                5.246728941995453     0.641141213123293     0.967085878364060
    H                5.235728941995453     0.069141213123293    -0.698914121635940
    H                4.285878941995453    -0.814668786876707     0.529025878364060
    C               -3.890271058004547    -2.488858786876706     1.122085878364060
    C               -0.669271058004547    -0.493858786876707     0.669085878364060
    C               -1.003271058004547     0.337141213123293    -0.398914121635940
    C               -1.599271058004547    -1.418858786876707     1.144085878364060
    C               -2.867271058004547    -1.524858786876707     0.562085878364060
    C               -2.261271058004547     0.241141213123293    -0.992914121635940
    C               -3.188271058004547    -0.684858786876707    -0.508914121635940
    O               -0.115271058004547     1.257141213123293    -0.853914121635940
    H                0.306728941995453    -0.409858786876707     1.123085878364060
    H               -1.337271058004547    -2.034858786876707     1.991085878364060
    H               -2.521271058004547     0.884141213123293    -1.815914121635940
    H               -0.480271058004547     1.777141213123293    -1.573914121635940
    H               -4.810271058004546    -1.936858786876707     1.291085878364060
    H               -3.546271058004547    -2.833858786876707     2.098085878364060
    H               -4.174271058004547    -0.720858786876707    -0.953914121635940
    H               -4.118791058004547    -3.369168786876707     0.503355878364060

}
e, wfn = energy('scf', return_wfn=True)
gdma(wfn)
dmavals = variable('DMA DISTRIBUTED MULTIPOLES')
charges = np.array(dmavals)
print(charges)
np.save('SSI-083ASP-105TYR-1-dimer.npy', np.array(charges))--------------------------------------------------------------------------

*** tstart() called on ds3
*** at Sun Apr 26 20:06:48 2020

   => Loading Basis Set <=

    Name: CC-PVDZ
    Role: ORBITAL
    Keyword: BASIS
    atoms 1-2, 8-14  entry C          line   138 file /theoryfs2/ds/metcalf/miniconda2/envs/tf2gpu/share/psi4/basis/cc-pvdz.gbs
    atoms 3-4, 15    entry O          line   198 file /theoryfs2/ds/metcalf/miniconda2/envs/tf2gpu/share/psi4/basis/cc-pvdz.gbs
    atoms 5-7, 16-23 entry H          line    22 file /theoryfs2/ds/metcalf/miniconda2/envs/tf2gpu/share/psi4/basis/cc-pvdz.gbs

         ---------------------------------------------------------
                                   SCF
               by Justin Turney, Rob Parrish, Andy Simmonett
                          and Daniel G. A. Smith
                              RHF Reference
                        1 Threads,    500 MiB Core
         ---------------------------------------------------------

  ==> Geometry <==

    Molecular point group: c1
    Full point group: C1

    Geometry (in Angstrom), charge = -1, multiplicity = 1:

       Center              X                  Y                   Z               Mass
    ------------   -----------------  -----------------  -----------------  -----------------
         C            4.624728941995     0.178141213123     0.198085878364    12.000000000000
         C            3.463728941995     1.084141213123    -0.152914121636    12.000000000000
         O            2.317728941995     0.600141213123    -0.144914121636    15.994914619570
         O            3.714728941995     2.273141213123    -0.450914121636    15.994914619570
         H            5.246728941995     0.641141213123     0.967085878364     1.007825032230
         H            5.235728941995     0.069141213123    -0.698914121636     1.007825032230
         H            4.285878941995    -0.814668786877     0.529025878364     1.007825032230
         C           -3.890271058005    -2.488858786877     1.122085878364    12.000000000000
         C           -0.669271058005    -0.493858786877     0.669085878364    12.000000000000
         C           -1.003271058005     0.337141213123    -0.398914121636    12.000000000000
         C           -1.599271058005    -1.418858786877     1.144085878364    12.000000000000
         C           -2.867271058005    -1.524858786877     0.562085878364    12.000000000000
         C           -2.261271058005     0.241141213123    -0.992914121636    12.000000000000
         C           -3.188271058005    -0.684858786877    -0.508914121636    12.000000000000
         O           -0.115271058005     1.257141213123    -0.853914121636    15.994914619570
         H            0.306728941995    -0.409858786877     1.123085878364     1.007825032230
         H           -1.337271058005    -2.034858786877     1.991085878364     1.007825032230
         H           -2.521271058005     0.884141213123    -1.815914121636     1.007825032230
         H           -0.480271058005     1.777141213123    -1.573914121636     1.007825032230
         H           -4.810271058005    -1.936858786877     1.291085878364     1.007825032230
         H           -3.546271058005    -2.833858786877     2.098085878364     1.007825032230
         H           -4.174271058005    -0.720858786877    -0.953914121636     1.007825032230
         H           -4.118791058005    -3.369168786877     0.503355878364     1.007825032230

  Running in c1 symmetry.

  Rotational constants: A =      0.07996  B =      0.01075  C =      0.00964 [cm^-1]
  Rotational constants: A =   2397.18535  B =    322.21556  C =    289.11461 [MHz]
  Nuclear repulsion =  630.597119426522909

  Charge       = -1
  Multiplicity = 1
  Electrons    = 90
  Nalpha       = 45
  Nbeta        = 45

  ==> Algorithm <==

  SCF Algorithm Type is PK.
  DIIS enabled.
  MOM disabled.
  Fractional occupation disabled.
  Guess Type is SAD.
  Energy threshold   = 1.00e-06
  Density threshold  = 1.00e-10
  Integral threshold = 0.00e+00

  ==> Primary Basis <==

  Basis Set: CC-PVDZ
    Blend: CC-PVDZ
    Number of shells: 105
    Number of basis function: 223
    Number of Cartesian functions: 235
    Spherical Harmonics?: true
    Max angular momentum: 2

  ==> Pre-Iterations <==

   -------------------------------------------------------
    Irrep   Nso     Nmo     Nalpha   Nbeta   Ndocc  Nsocc
   -------------------------------------------------------
     A        223     223       0       0       0       0
   -------------------------------------------------------
    Total     223     223      45      45      45       0
   -------------------------------------------------------

  ==> Integral Setup <==

  Using integral reordering PK algorithm.
  Sizing the integral batches needed.
  Building batch lookup table.
   Calculation information:
      Number of atoms:                  23
      Number of AO shells:             105
      Number of primitives:            319
      Number of atomic orbitals:       235
      Number of basis functions:       223

      Integral cutoff                 1.00e-12
      Number of threads:                 1

	Batch   1 pq = [       0,    9405] index = [             0,44231715] size =     44231715
	Batch   2 pq = [    9405,   13301] index = [      44231715,88464951] size =     44233236
	Batch   3 pq = [   13301,   16290] index = [      88464951,132690195] size =     44225244
	Batch   4 pq = [   16290,   18810] index = [     132690195,176917455] size =     44227260
	Batch   5 pq = [   18810,   21030] index = [     176917455,221140965] size =     44223510
	Batch   6 pq = [   21030,   23037] index = [     221140965,265363203] size =     44222238
	Batch   7 pq = [   23037,   24976] index = [     265363203,311912776] size =     46549573
  Task number: 29
  Buffer size: 11059200
  Buffer per thread: 2
  We computed 11326053 shell quartets total.
  Whereas there are 15487395 unique shell quartets.

  ==> DiskJK: Disk-Based J/K Matrices <==

    J tasked:                  Yes
    K tasked:                  Yes
    wK tasked:                  No
    Memory [MiB]:              375
    Schwarz Cutoff:          1E-12

    OpenMP threads:              1

  Minimum eigenvalue in the overlap matrix is 3.2775402047E-04.
  Using Symmetric Orthogonalization.

  SCF Guess: Superposition of Atomic Densities via on-the-fly atomic UHF.

  ==> Iterations <==

                        Total Energy        Delta E     RMS |[F,P]|

   @RHF iter SAD:  -570.17845311792871   -5.70178e+02   0.00000e+00
   @RHF iter   1:  -571.48346137117596   -1.30501e+00   3.75213e-03 DIIS
   @RHF iter   2:  -571.77466930739467   -2.91208e-01   2.00392e-03 DIIS
   @RHF iter   3:  -571.84886545765335   -7.41962e-02   3.47957e-04 DIIS
   @RHF iter   4:  -571.85275884929024   -3.89339e-03   1.26449e-04 DIIS
   @RHF iter   5:  -571.85329506467019   -5.36215e-04   2.17929e-05 DIIS
   @RHF iter   6:  -571.85331680950719   -2.17448e-05   9.18373e-06 DIIS
   @RHF iter   7:  -571.85331991686201   -3.10735e-06   3.46824e-06 DIIS
   @RHF iter   8:  -571.85332056025356   -6.43392e-07   1.10868e-06 DIIS
   @RHF iter   9:  -571.85332068295088   -1.22697e-07   4.81128e-07 DIIS
   @RHF iter  10:  -571.85332070848017   -2.55293e-08   2.15794e-07 DIIS
   @RHF iter  11:  -571.85332071582263   -7.34246e-09   9.76900e-08 DIIS
   @RHF iter  12:  -571.85332071698303   -1.16040e-09   4.25458e-08 DIIS
   @RHF iter  13:  -571.85332071716346   -1.80421e-10   1.10491e-08 DIIS
   @RHF iter  14:  -571.85332071718176   -1.83036e-11   3.67331e-09 DIIS
   @RHF iter  15:  -571.85332071718415   -2.38742e-12   1.48016e-09 DIIS
   @RHF iter  16:  -571.85332071718096    3.18323e-12   6.92422e-10 DIIS
   @RHF iter  17:  -571.85332071717926    1.70530e-12   3.44299e-10 DIIS
   @RHF iter  18:  -571.85332071718085   -1.59162e-12   1.41251e-10 DIIS
   @RHF iter  19:  -571.85332071718187   -1.02318e-12   5.44944e-11 DIIS
  Energy and wave function converged.

  ==> Post-Iterations <==

    Orbital Energies [Eh]
    ---------------------

    Doubly Occupied:

       1A    -20.444636     2A    -20.251485     3A    -20.247210
       4A    -11.184570     5A    -11.145339     6A    -11.139540
       7A    -11.134345     8A    -11.133104     9A    -11.127064
      10A    -11.111932    11A    -11.106528    12A    -11.044187
      13A     -1.267126    14A     -1.142613    15A     -1.043038
      16A     -1.029415    17A     -0.934285    18A     -0.909557
      19A     -0.827764    20A     -0.791796    21A     -0.734867
      22A     -0.692392    23A     -0.613926    24A     -0.556842
      25A     -0.534753    26A     -0.503199    27A     -0.494139
      28A     -0.488943    29A     -0.478022    30A     -0.456731
      31A     -0.450740    32A     -0.419039    33A     -0.406320
      34A     -0.403623    35A     -0.398060    36A     -0.395921
      37A     -0.369807    38A     -0.356508    39A     -0.332422
      40A     -0.296390    41A     -0.232787    42A     -0.189261
      43A     -0.172278    44A     -0.163668    45A     -0.153197

    Virtual:

      46A      0.235480    47A      0.259649    48A      0.269364
      49A      0.287860    50A      0.311968    51A      0.318392
      52A      0.351171    53A      0.355779    54A      0.365449
      55A      0.371612    56A      0.400039    57A      0.410810
      58A      0.440228    59A      0.458627    60A      0.478173
      61A      0.495865    62A      0.543038    63A      0.564358
      64A      0.578793    65A      0.592661    66A      0.593550
      67A      0.615305    68A      0.701739    69A      0.710255
      70A      0.720142    71A      0.729185    72A      0.761054
      73A      0.768551    74A      0.794710    75A      0.801953
      76A      0.814883    77A      0.822286    78A      0.832553
      79A      0.841183    80A      0.844507    81A      0.864552
      82A      0.880181    83A      0.884739    84A      0.890565
      85A      0.898707    86A      0.925666    87A      0.947148
      88A      0.956551    89A      0.960085    90A      0.971045
      91A      0.979829    92A      0.980918    93A      0.994781
      94A      1.012327    95A      1.019075    96A      1.033986
      97A      1.038145    98A      1.040360    99A      1.041174
     100A      1.045328   101A      1.054209   102A      1.080237
     103A      1.115778   104A      1.135384   105A      1.153002
     106A      1.165965   107A      1.224656   108A      1.232324
     109A      1.248172   110A      1.258651   111A      1.266021
     112A      1.294867   113A      1.335617   114A      1.351510
     115A      1.354493   116A      1.355292   117A      1.379872
     118A      1.382489   119A      1.399316   120A      1.412429
     121A      1.417723   122A      1.461175   123A      1.473027
     124A      1.488914   125A      1.532727   126A      1.538871
     127A      1.567860   128A      1.591383   129A      1.597265
     130A      1.608119   131A      1.619517   132A      1.632442
     133A      1.656818   134A      1.678023   135A      1.727382
     136A      1.754755   137A      1.762625   138A      1.776616
     139A      1.786091   140A      1.837752   141A      1.843786
     142A      1.849315   143A      1.870649   144A      1.874122
     145A      1.901020   146A      1.915454   147A      1.938512
     148A      1.974707   149A      1.992474   150A      1.992971
     151A      2.016148   152A      2.022317   153A      2.036302
     154A      2.042006   155A      2.050801   156A      2.061727
     157A      2.070171   158A      2.091280   159A      2.101880
     160A      2.113311   161A      2.127941   162A      2.141469
     163A      2.156976   164A      2.169033   165A      2.174021
     166A      2.181157   167A      2.216476   168A      2.230164
     169A      2.274596   170A      2.280650   171A      2.286091
     172A      2.300699   173A      2.327005   174A      2.337928
     175A      2.348464   176A      2.379008   177A      2.406101
     178A      2.425146   179A      2.435048   180A      2.445474
     181A      2.498383   182A      2.501086   183A      2.570664
     184A      2.592987   185A      2.606299   186A      2.608778
     187A      2.621219   188A      2.652056   189A      2.684196
     190A      2.693259   191A      2.745514   192A      2.764398
     193A      2.794946   194A      2.839270   195A      2.853672
     196A      2.896306   197A      2.912914   198A      2.925742
     199A      2.942482   200A      2.968262   201A      2.992946
     202A      2.995448   203A      3.063951   204A      3.108914
     205A      3.194761   206A      3.213488   207A      3.250045
     208A      3.284619   209A      3.304031   210A      3.370609
     211A      3.384056   212A      3.395844   213A      3.488354
     214A      3.641280   215A      3.730724   216A      3.810777
     217A      3.822174   218A      3.849324   219A      4.074149
     220A      4.090940   221A      4.122085   222A      4.224018
     223A      4.346373

    Final Occupation by Irrep:
              A
    DOCC [    45 ]

  @RHF Final Energy:  -571.85332071718187

   => Energetics <=

    Nuclear Repulsion Energy =            630.5971194265229087
    One-Electron Energy =               -2046.2821416991753267
    Two-Electron Energy =                 843.8317015554706586
    Total Energy =                       -571.8533207171818731

Computation Completed

Properties will be evaluated at   0.000000,   0.000000,   0.000000 [a0]

Properties computed using the SCF density matrix

  Nuclear Dipole Moment: [e a0]
     X:    -5.5152      Y:    -8.1817      Z:     3.2368

  Electronic Dipole Moment: [e a0]
     X:     0.4573      Y:     5.8713      Z:    -2.9910

  Dipole Moment: [e a0]
     X:    -5.0578      Y:    -2.3104      Z:     0.2458     Total:     5.5659

  Dipole Moment: [D]
     X:   -12.8557      Y:    -5.8723      Z:     0.6247     Total:    14.1472

*** tstop() called on ds3 at Sun Apr 26 20:09:12 2020
Module time:
	user time   =      98.56 seconds =       1.64 minutes
	system time =      51.52 seconds =       0.86 minutes
	total time  =        144 seconds =       2.40 minutes
Total time:
	user time   =      98.56 seconds =       1.64 minutes
	system time =      51.52 seconds =       0.86 minutes
	total time  =        144 seconds =       2.40 minutes
                                     G D M A

                                 by Anthony Stone

                           version 2.2.06, 22 June 2011

               Distributed Multipoles from Gaussian wavefunctions

Starting at 20:9:13 on 26 Apr 2020

Using SCF density matrix from file ./SSI/SSI-083ASP-105TYR-1-dimer.test.11825.fchk

                         Distributed Multipole Analysis

Standard DMA

Positions and radii in angstrom
Multipole moments in atomic units, ea_0^k for rank k

C          x =  4.624729  y =  0.178141  z =  0.198086 angstrom
           Maximum rank =  0   Radius =  0.650 angstrom
                   Q00  =  -0.277312

C          x =  3.463729  y =  1.084141  z = -0.152914 angstrom
           Maximum rank =  0   Radius =  0.650 angstrom
                   Q00  =   0.979720

O          x =  2.317729  y =  0.600141  z = -0.144914 angstrom
           Maximum rank =  0   Radius =  0.650 angstrom
                   Q00  =  -0.923510

O          x =  3.714729  y =  2.273141  z = -0.450914 angstrom
           Maximum rank =  0   Radius =  0.650 angstrom
                   Q00  =  -0.942182

H          x =  5.246729  y =  0.641141  z =  0.967086 angstrom
           Maximum rank =  0   Radius =  0.325 angstrom
                   Q00  =   0.060166

H          x =  5.235729  y =  0.069141  z = -0.698914 angstrom
           Maximum rank =  0   Radius =  0.325 angstrom
                   Q00  =   0.068366

H          x =  4.285879  y = -0.814669  z =  0.529026 angstrom
           Maximum rank =  0   Radius =  0.325 angstrom
                   Q00  =   0.044740

C          x = -3.890271  y = -2.488859  z =  1.122086 angstrom
           Maximum rank =  0   Radius =  0.650 angstrom
                   Q00  =  -0.198511

C          x = -0.669271  y = -0.493859  z =  0.669086 angstrom
           Maximum rank =  0   Radius =  0.650 angstrom
                   Q00  =  -0.096022

C          x = -1.003271  y =  0.337141  z = -0.398914 angstrom
           Maximum rank =  0   Radius =  0.650 angstrom
                   Q00  =   0.378565

C          x = -1.599271  y = -1.418859  z =  1.144086 angstrom
           Maximum rank =  0   Radius =  0.650 angstrom
                   Q00  =   0.014883

C          x = -2.867271  y = -1.524859  z =  0.562086 angstrom
           Maximum rank =  0   Radius =  0.650 angstrom
                   Q00  =  -0.140688

C          x = -2.261271  y =  0.241141  z = -0.992914 angstrom
           Maximum rank =  0   Radius =  0.650 angstrom
                   Q00  =  -0.182032

C          x = -3.188271  y = -0.684859  z = -0.508914 angstrom
           Maximum rank =  0   Radius =  0.650 angstrom
                   Q00  =  -0.036598

O          x = -0.115271  y =  1.257141  z = -0.853914 angstrom
           Maximum rank =  0   Radius =  0.650 angstrom
                   Q00  =  -0.611070

H          x =  0.306729  y = -0.409859  z =  1.123086 angstrom
           Maximum rank =  0   Radius =  0.325 angstrom
                   Q00  =   0.102955

H          x = -1.337271  y = -2.034859  z =  1.991086 angstrom
           Maximum rank =  0   Radius =  0.325 angstrom
                   Q00  =   0.044191

H          x = -2.521271  y =  0.884141  z = -1.815914 angstrom
           Maximum rank =  0   Radius =  0.325 angstrom
                   Q00  =   0.053610

H          x = -0.480271  y =  1.777141  z = -1.573914 angstrom
           Maximum rank =  0   Radius =  0.325 angstrom
                   Q00  =   0.370651

H          x = -4.810271  y = -1.936859  z =  1.291086 angstrom
           Maximum rank =  0   Radius =  0.325 angstrom
                   Q00  =   0.080940

H          x = -3.546271  y = -2.833859  z =  2.098086 angstrom
           Maximum rank =  0   Radius =  0.325 angstrom
                   Q00  =   0.086417

H          x = -4.174271  y = -0.720859  z = -0.953914 angstrom
           Maximum rank =  0   Radius =  0.325 angstrom
                   Q00  =   0.040461

H          x = -4.118791  y = -3.369169  z =  0.503356 angstrom
           Maximum rank =  0   Radius =  0.325 angstrom
                   Q00  =   0.082262

Total multipoles referred to origin at
           x =   0.000000,  y =    0.000000,  z =    0.000000 angstrom
                   Q00  =  -1.000000

Finished at 20:9:13 on 26 Apr 2020

  DMA results are available in the Python driver through the
	  variable('DMA DISTRIBUTED MULTIPOLES')
  and
	  variable('DMA TOTAL MULTIPOLES')
  commands.

    Psi4 stopped on: Sunday, 26 April 2020 08:09PM
    Psi4 wall time for execution: 0:02:24.31

*** Psi4 exiting successfully. Buy a developer a beer!
