                               Psi4 1.3.2 release

  ==> Input File <==

--------------------------------------------------------------------------
import numpy as np
set {scf_type pk
basis cc-pvdz
d_convergence 10
gdma_switch   0
gdma_limit    0
gdma_origin   [ 0.0,  0.0,  0.0 ]
}
molecule test {
    units Angstrom
    0 1
    --
    0 1
    C                0.968195214194121     0.313708905260528     0.827042200741318
    C                0.949195214194121    -0.537291094739472     2.109042200741318
    C                1.819195214194121     1.573708905260528     1.073042200741318
    H                1.392195214194121    -0.268291094739472     0.008042200741318
    H               -0.046804785805879     0.613708905260528     0.570042200741318
    H                0.623195214194121     0.082708905260528     2.946042200741319
    H                1.980195214194121    -0.836291094739472     2.309042200741318
    H                1.361195214194121     2.143708905260528     1.885042200741318
    H                2.819195214194121     1.267708905260528     1.391042200741318
    H                0.331305214194121    -1.446971094739472     2.082582200741318
    H                1.915605214194121     2.224820905260528     0.191702200741318
    C               -1.814804785805879    -0.983291094739472    -1.284957799258682
    C               -1.868804785805879    -0.347291094739472    -2.681957799258682
    H               -2.615804785805878    -1.696291094739472    -1.141957799258682
    H               -0.857804785805879    -1.486291094739472    -1.144957799258682
    H               -1.926804785805879    -0.207291094739472    -0.527957799258682
    H               -1.545804785805879    -1.094291094739472    -3.403957799258682
    H               -2.892214785805879    -0.028721094739472    -2.929257799258682
    H               -1.168424785805879     0.499068905260528    -2.738047799258682

}
e, wfn = energy('scf', return_wfn=True)
gdma(wfn)
dmavals = variable('DMA DISTRIBUTED MULTIPOLES')
charges = np.array(dmavals)
print(charges)
np.save('SSI-019LYS-027VAL-1-dimer.npy', np.array(charges))--------------------------------------------------------------------------

*** tstart() called on ds3
*** at Tue Apr 28 00:22:47 2020

   => Loading Basis Set <=

    Name: CC-PVDZ
    Role: ORBITAL
    Keyword: BASIS
    atoms 1-3, 12-13  entry C          line   138 file /theoryfs2/ds/metcalf/miniconda2/envs/tf2gpu/share/psi4/basis/cc-pvdz.gbs
    atoms 4-11, 14-19 entry H          line    22 file /theoryfs2/ds/metcalf/miniconda2/envs/tf2gpu/share/psi4/basis/cc-pvdz.gbs

         ---------------------------------------------------------
                                   SCF
               by Justin Turney, Rob Parrish, Andy Simmonett
                          and Daniel G. A. Smith
                              RHF Reference
                        1 Threads,    500 MiB Core
         ---------------------------------------------------------

  ==> Geometry <==

    Molecular point group: c1
    Full point group: C1

    Geometry (in Angstrom), charge = 0, multiplicity = 1:

       Center              X                  Y                   Z               Mass
    ------------   -----------------  -----------------  -----------------  -----------------
         C            0.968195214194     0.313708905261     0.827042200741    12.000000000000
         C            0.949195214194    -0.537291094739     2.109042200741    12.000000000000
         C            1.819195214194     1.573708905261     1.073042200741    12.000000000000
         H            1.392195214194    -0.268291094739     0.008042200741     1.007825032230
         H           -0.046804785806     0.613708905261     0.570042200741     1.007825032230
         H            0.623195214194     0.082708905261     2.946042200741     1.007825032230
         H            1.980195214194    -0.836291094739     2.309042200741     1.007825032230
         H            1.361195214194     2.143708905261     1.885042200741     1.007825032230
         H            2.819195214194     1.267708905261     1.391042200741     1.007825032230
         H            0.331305214194    -1.446971094739     2.082582200741     1.007825032230
         H            1.915605214194     2.224820905261     0.191702200741     1.007825032230
         C           -1.814804785806    -0.983291094739    -1.284957799259    12.000000000000
         C           -1.868804785806    -0.347291094739    -2.681957799259    12.000000000000
         H           -2.615804785806    -1.696291094739    -1.141957799259     1.007825032230
         H           -0.857804785806    -1.486291094739    -1.144957799259     1.007825032230
         H           -1.926804785806    -0.207291094739    -0.527957799259     1.007825032230
         H           -1.545804785806    -1.094291094739    -3.403957799259     1.007825032230
         H           -2.892214785806    -0.028721094739    -2.929257799259     1.007825032230
         H           -1.168424785806     0.499068905261    -2.738047799259     1.007825032230

  Running in c1 symmetry.

  Rotational constants: A =      0.21926  B =      0.03976  C =      0.03488 [cm^-1]
  Rotational constants: A =   6573.30052  B =   1192.07556  C =   1045.73502 [MHz]
  Nuclear repulsion =  176.944867603727346

  Charge       = 0
  Multiplicity = 1
  Electrons    = 44
  Nalpha       = 22
  Nbeta        = 22

  ==> Algorithm <==

  SCF Algorithm Type is PK.
  DIIS enabled.
  MOM disabled.
  Fractional occupation disabled.
  Guess Type is SAD.
  Energy threshold   = 1.00e-06
  Density threshold  = 1.00e-10
  Integral threshold = 0.00e+00

  ==> Primary Basis <==

  Basis Set: CC-PVDZ
    Blend: CC-PVDZ
    Number of shells: 72
    Number of basis function: 140
    Number of Cartesian functions: 145
    Spherical Harmonics?: true
    Max angular momentum: 2

  ==> Pre-Iterations <==

   -------------------------------------------------------
    Irrep   Nso     Nmo     Nalpha   Nbeta   Ndocc  Nsocc
   -------------------------------------------------------
     A        140     140       0       0       0       0
   -------------------------------------------------------
    Total     140     140      22      22      22       0
   -------------------------------------------------------

  ==> Integral Setup <==

  Using integral reordering PK algorithm.
  Sizing the integral batches needed.
  Building batch lookup table.
   Calculation information:
      Number of atoms:                  19
      Number of AO shells:              72
      Number of primitives:            180
      Number of atomic orbitals:       145
      Number of basis functions:       140

      Integral cutoff                 1.00e-12
      Number of threads:                 1

	Batch   1 pq = [       0,    9405] index = [             0,44231715] size =     44231715
	Batch   2 pq = [    9405,    9870] index = [      44231715,48713385] size =      4481670
  Task number: 5
  Buffer size: 11059200
  Buffer per thread: 2
  We computed 2788098 shell quartets total.
  Whereas there are 3454506 unique shell quartets.

  ==> DiskJK: Disk-Based J/K Matrices <==

    J tasked:                  Yes
    K tasked:                  Yes
    wK tasked:                  No
    Memory [MiB]:              375
    Schwarz Cutoff:          1E-12

    OpenMP threads:              1

  Minimum eigenvalue in the overlap matrix is 5.7340759574E-03.
  Using Symmetric Orthogonalization.

  SCF Guess: Superposition of Atomic Densities via on-the-fly atomic UHF.

  ==> Iterations <==

                        Total Energy        Delta E     RMS |[F,P]|

   @RHF iter SAD:  -196.32841989855734   -1.96328e+02   0.00000e+00
   @RHF iter   1:  -197.31336261943875   -9.84943e-01   3.77487e-03 DIIS
   @RHF iter   2:  -197.47155297334831   -1.58190e-01   1.62523e-03 DIIS
   @RHF iter   3:  -197.49947222687101   -2.79193e-02   3.24294e-04 DIIS
   @RHF iter   4:  -197.50166789073938   -2.19566e-03   4.80726e-05 DIIS
   @RHF iter   5:  -197.50170581248949   -3.79218e-05   1.49224e-05 DIIS
   @RHF iter   6:  -197.50170913694583   -3.32446e-06   2.38799e-06 DIIS
   @RHF iter   7:  -197.50170924119172   -1.04246e-07   4.34556e-07 DIIS
   @RHF iter   8:  -197.50170924515425   -3.96253e-09   1.08820e-07 DIIS
   @RHF iter   9:  -197.50170924538816   -2.33911e-10   3.45045e-08 DIIS
   @RHF iter  10:  -197.50170924541317   -2.50111e-11   7.98130e-09 DIIS
   @RHF iter  11:  -197.50170924541527   -2.10321e-12   1.51944e-09 DIIS
   @RHF iter  12:  -197.50170924541592   -6.53699e-13   2.97945e-10 DIIS
   @RHF iter  13:  -197.50170924541592    0.00000e+00   6.22023e-11 DIIS
  Energy and wave function converged.

  ==> Post-Iterations <==

    Orbital Energies [Eh]
    ---------------------

    Doubly Occupied:

       1A    -11.221692     2A    -11.219415     3A    -11.217848
       4A    -11.216918     5A    -11.215524     6A     -1.051724
       7A     -1.016385     8A     -0.919166     9A     -0.838049
      10A     -0.800140    11A     -0.627320    12A     -0.600833
      13A     -0.597286    14A     -0.593134    15A     -0.538088
      16A     -0.526598    17A     -0.498910    18A     -0.489606
      19A     -0.485777    20A     -0.474386    21A     -0.471922
      22A     -0.465347

    Virtual:

      23A      0.171829    24A      0.194308    25A      0.214590
      26A      0.224848    27A      0.233648    28A      0.250126
      29A      0.253261    30A      0.261006    31A      0.269772
      32A      0.288309    33A      0.296783    34A      0.311046
      35A      0.318967    36A      0.353141    37A      0.380774
      38A      0.396924    39A      0.420213    40A      0.566213
      41A      0.580961    42A      0.594522    43A      0.598214
      44A      0.606674    45A      0.613047    46A      0.637406
      47A      0.643031    48A      0.681802    49A      0.780074
      50A      0.799625    51A      0.830752    52A      0.843618
      53A      0.852660    54A      0.876599    55A      0.888312
      56A      0.893055    57A      0.897269    58A      0.899345
      59A      0.901794    60A      0.907077    61A      0.912921
      62A      0.920809    63A      0.928026    64A      0.936338
      65A      0.956234    66A      0.972293    67A      0.988570
      68A      0.991466    69A      1.118155    70A      1.124508
      71A      1.129743    72A      1.156344    73A      1.199484
      74A      1.249590    75A      1.356501    76A      1.467042
      77A      1.478433    78A      1.482601    79A      1.492311
      80A      1.542212    81A      1.572472    82A      1.604507
      83A      1.682432    84A      1.684593    85A      1.696938
      86A      1.708528    87A      1.714486    88A      1.848221
      89A      1.856168    90A      1.863206    91A      1.886379
      92A      1.891849    93A      1.900402    94A      1.920769
      95A      1.928460    96A      1.936447    97A      1.940621
      98A      1.944280    99A      1.953131   100A      1.961671
     101A      1.965879   102A      1.973954   103A      1.982812
     104A      1.988462   105A      2.012826   106A      2.029924
     107A      2.048666   108A      2.096476   109A      2.114227
     110A      2.141728   111A      2.148637   112A      2.290125
     113A      2.303362   114A      2.309013   115A      2.313988
     116A      2.324778   117A      2.331822   118A      2.438132
     119A      2.468512   120A      2.507607   121A      2.526906
     122A      2.566448   123A      2.577968   124A      2.581304
     125A      2.605003   126A      2.633651   127A      2.755520
     128A      2.763650   129A      2.770545   130A      2.782508
     131A      2.795852   132A      2.824151   133A      2.843401
     134A      2.859937   135A      2.894519   136A      2.950184
     137A      2.953065   138A      2.968093   139A      2.982439
     140A      3.073079

    Final Occupation by Irrep:
              A
    DOCC [    22 ]

  @RHF Final Energy:  -197.50170924541592

   => Energetics <=

    Nuclear Repulsion Energy =            176.9448676037273458
    One-Electron Energy =                -614.7210160252705009
    Two-Electron Energy =                 240.2744391761272311
    Total Energy =                       -197.5017092454159240

Computation Completed

Properties will be evaluated at   0.000000,   0.000000,   0.000000 [a0]

Properties computed using the SCF density matrix

  Nuclear Dipole Moment: [e a0]
     X:    -0.5913      Y:    -0.2182      Z:    -0.4712

  Electronic Dipole Moment: [e a0]
     X:     0.5803      Y:     0.2018      Z:     0.4579

  Dipole Moment: [e a0]
     X:    -0.0110      Y:    -0.0164      Z:    -0.0132     Total:     0.0238

  Dipole Moment: [D]
     X:    -0.0279      Y:    -0.0417      Z:    -0.0337     Total:     0.0604

*** tstop() called on ds3 at Tue Apr 28 00:23:34 2020
Module time:
	user time   =      14.40 seconds =       0.24 minutes
	system time =       5.41 seconds =       0.09 minutes
	total time  =         47 seconds =       0.78 minutes
Total time:
	user time   =      14.40 seconds =       0.24 minutes
	system time =       5.41 seconds =       0.09 minutes
	total time  =         47 seconds =       0.78 minutes
                                     G D M A

                                 by Anthony Stone

                           version 2.2.06, 22 June 2011

               Distributed Multipoles from Gaussian wavefunctions

Starting at 0:23:34 on 28 Apr 2020

Using SCF density matrix from file ./SSI/SSI-019LYS-027VAL-1-dimer.test.5228.fchk

                         Distributed Multipole Analysis

Standard DMA

Positions and radii in angstrom
Multipole moments in atomic units, ea_0^k for rank k

C          x =  0.968195  y =  0.313709  z =  0.827042 angstrom
           Maximum rank =  0   Radius =  0.650 angstrom
                   Q00  =  -0.097999

C          x =  0.949195  y = -0.537291  z =  2.109042 angstrom
           Maximum rank =  0   Radius =  0.650 angstrom
                   Q00  =  -0.242824

C          x =  1.819195  y =  1.573709  z =  1.073042 angstrom
           Maximum rank =  0   Radius =  0.650 angstrom
                   Q00  =  -0.238795

H          x =  1.392195  y = -0.268291  z =  0.008042 angstrom
           Maximum rank =  0   Radius =  0.325 angstrom
                   Q00  =   0.051069

H          x = -0.046805  y =  0.613709  z =  0.570042 angstrom
           Maximum rank =  0   Radius =  0.325 angstrom
                   Q00  =   0.053909

H          x =  0.623195  y =  0.082709  z =  2.946042 angstrom
           Maximum rank =  0   Radius =  0.325 angstrom
                   Q00  =   0.074788

H          x =  1.980195  y = -0.836291  z =  2.309042 angstrom
           Maximum rank =  0   Radius =  0.325 angstrom
                   Q00  =   0.072971

H          x =  1.361195  y =  2.143709  z =  1.885042 angstrom
           Maximum rank =  0   Radius =  0.325 angstrom
                   Q00  =   0.076425

H          x =  2.819195  y =  1.267709  z =  1.391042 angstrom
           Maximum rank =  0   Radius =  0.325 angstrom
                   Q00  =   0.075172

H          x =  0.331305  y = -1.446971  z =  2.082582 angstrom
           Maximum rank =  0   Radius =  0.325 angstrom
                   Q00  =   0.088173

H          x =  1.915605  y =  2.224821  z =  0.191702 angstrom
           Maximum rank =  0   Radius =  0.325 angstrom
                   Q00  =   0.086282

C          x = -1.814805  y = -0.983291  z = -1.284958 angstrom
           Maximum rank =  0   Radius =  0.650 angstrom
                   Q00  =  -0.239982

C          x = -1.868805  y = -0.347291  z = -2.681958 angstrom
           Maximum rank =  0   Radius =  0.650 angstrom
                   Q00  =  -0.234990

H          x = -2.615805  y = -1.696291  z = -1.141958 angstrom
           Maximum rank =  0   Radius =  0.325 angstrom
                   Q00  =   0.080831

H          x = -0.857805  y = -1.486291  z = -1.144958 angstrom
           Maximum rank =  0   Radius =  0.325 angstrom
                   Q00  =   0.081135

H          x = -1.926805  y = -0.207291  z = -0.527958 angstrom
           Maximum rank =  0   Radius =  0.325 angstrom
                   Q00  =   0.076300

H          x = -1.545805  y = -1.094291  z = -3.403958 angstrom
           Maximum rank =  0   Radius =  0.325 angstrom
                   Q00  =   0.077531

H          x = -2.892215  y = -0.028721  z = -2.929258 angstrom
           Maximum rank =  0   Radius =  0.325 angstrom
                   Q00  =   0.080540

H          x = -1.168425  y =  0.499069  z = -2.738048 angstrom
           Maximum rank =  0   Radius =  0.325 angstrom
                   Q00  =   0.079465

Total multipoles referred to origin at
           x =   0.000000,  y =    0.000000,  z =    0.000000 angstrom
                   Q00  =  -0.000000

Finished at 0:23:34 on 28 Apr 2020

  DMA results are available in the Python driver through the
	  variable('DMA DISTRIBUTED MULTIPOLES')
  and
	  variable('DMA TOTAL MULTIPOLES')
  commands.

    Psi4 stopped on: Tuesday, 28 April 2020 12:23AM
    Psi4 wall time for execution: 0:00:47.08

*** Psi4 exiting successfully. Buy a developer a beer!
