                               Psi4 1.3.2 release

  ==> Input File <==

--------------------------------------------------------------------------
import numpy as np
set {scf_type pk
basis cc-pvdz
d_convergence 10
gdma_switch   0
gdma_limit    0
gdma_origin   [ 0.0,  0.0,  0.0 ]
}
molecule test {
    units Angstrom
    0 1
    --
    0 1
    C               -0.358746696072580    -0.141606819580012     1.906870590320545
    C               -1.568746696072580    -0.925606819580012     2.423870590320544
    S               -0.819746696072580     1.415393180419988     1.106870590320545
    H                0.302253303927420     0.070393180419988     2.751870590320545
    H                0.188253303927420    -0.765606819580013     1.201870590320545
    H               -1.933746696072580    -0.412606819580012     3.314870590320544
    H                0.382253303927420     2.010393180419987     1.168870590320545
    H               -1.261406696072579    -1.946035819580012     2.696390590320545
    H               -2.361638696072579    -0.952203819580012     1.661890590320545
    C                0.461253303927420    -1.239606819580012    -1.703129409679455
    C               -0.552746696072580    -0.646606819580012    -2.676129409679455
    S                1.717253303927420    -0.064606819580012    -1.124129409679455
    H               -0.065746696072580    -1.670606819580012    -0.848129409679455
    H                0.981253303927420    -2.059606819580013    -2.204129409679455
    H               -0.010746696072580    -0.157606819580012    -3.489129409679455
    H                1.704253303927421    -0.444606819580012     0.160870590320545
    H               -1.195098696072580     0.090008180419988    -2.171369409679456
    H               -1.162500696072579    -1.448079819580012    -3.118669409679455

}
e, wfn = energy('scf', return_wfn=True)
gdma(wfn)
dmavals = variable('DMA DISTRIBUTED MULTIPOLES')
charges = np.array(dmavals)
print(charges)
np.save('SSI-036CYS-039CYS-1-dimer.npy', np.array(charges))--------------------------------------------------------------------------

*** tstart() called on ds3
*** at Tue Apr 28 10:11:57 2020

   => Loading Basis Set <=

    Name: CC-PVDZ
    Role: ORBITAL
    Keyword: BASIS
    atoms 1-2, 10-11 entry C          line   138 file /theoryfs2/ds/metcalf/miniconda2/envs/tf2gpu/share/psi4/basis/cc-pvdz.gbs
    atoms 3, 12      entry S          line   598 file /theoryfs2/ds/metcalf/miniconda2/envs/tf2gpu/share/psi4/basis/cc-pvdz.gbs
    atoms 4-9, 13-18 entry H          line    22 file /theoryfs2/ds/metcalf/miniconda2/envs/tf2gpu/share/psi4/basis/cc-pvdz.gbs

         ---------------------------------------------------------
                                   SCF
               by Justin Turney, Rob Parrish, Andy Simmonett
                          and Daniel G. A. Smith
                              RHF Reference
                        1 Threads,    500 MiB Core
         ---------------------------------------------------------

  ==> Geometry <==

    Molecular point group: c1
    Full point group: C1

    Geometry (in Angstrom), charge = 0, multiplicity = 1:

       Center              X                  Y                   Z               Mass
    ------------   -----------------  -----------------  -----------------  -----------------
         C           -0.358746696073    -0.141606819580     1.906870590321    12.000000000000
         C           -1.568746696073    -0.925606819580     2.423870590321    12.000000000000
         S           -0.819746696073     1.415393180420     1.106870590321    31.972071174400
         H            0.302253303927     0.070393180420     2.751870590321     1.007825032230
         H            0.188253303927    -0.765606819580     1.201870590321     1.007825032230
         H           -1.933746696073    -0.412606819580     3.314870590321     1.007825032230
         H            0.382253303927     2.010393180420     1.168870590321     1.007825032230
         H           -1.261406696073    -1.946035819580     2.696390590321     1.007825032230
         H           -2.361638696073    -0.952203819580     1.661890590321     1.007825032230
         C            0.461253303927    -1.239606819580    -1.703129409679    12.000000000000
         C           -0.552746696073    -0.646606819580    -2.676129409679    12.000000000000
         S            1.717253303927    -0.064606819580    -1.124129409679    31.972071174400
         H           -0.065746696073    -1.670606819580    -0.848129409679     1.007825032230
         H            0.981253303927    -2.059606819580    -2.204129409679     1.007825032230
         H           -0.010746696073    -0.157606819580    -3.489129409679     1.007825032230
         H            1.704253303927    -0.444606819580     0.160870590321     1.007825032230
         H           -1.195098696073     0.090008180420    -2.171369409679     1.007825032230
         H           -1.162500696073    -1.448079819580    -3.118669409679     1.007825032230

  Running in c1 symmetry.

  Rotational constants: A =      0.08477  B =      0.03052  C =      0.02895 [cm^-1]
  Rotational constants: A =   2541.39185  B =    915.03126  C =    867.76099 [MHz]
  Nuclear repulsion =  362.219068380683552

  Charge       = 0
  Multiplicity = 1
  Electrons    = 68
  Nalpha       = 34
  Nbeta        = 34

  ==> Algorithm <==

  SCF Algorithm Type is PK.
  DIIS enabled.
  MOM disabled.
  Fractional occupation disabled.
  Guess Type is SAD.
  Energy threshold   = 1.00e-06
  Density threshold  = 1.00e-10
  Integral threshold = 0.00e+00

  ==> Primary Basis <==

  Basis Set: CC-PVDZ
    Blend: CC-PVDZ
    Number of shells: 76
    Number of basis function: 152
    Number of Cartesian functions: 158
    Spherical Harmonics?: true
    Max angular momentum: 2

  ==> Pre-Iterations <==

   -------------------------------------------------------
    Irrep   Nso     Nmo     Nalpha   Nbeta   Ndocc  Nsocc
   -------------------------------------------------------
     A        152     152       0       0       0       0
   -------------------------------------------------------
    Total     152     152      34      34      34       0
   -------------------------------------------------------

  ==> Integral Setup <==

  Using integral reordering PK algorithm.
  Sizing the integral batches needed.
  Building batch lookup table.
   Calculation information:
      Number of atoms:                  18
      Number of AO shells:              76
      Number of primitives:            248
      Number of atomic orbitals:       158
      Number of basis functions:       152

      Integral cutoff                 1.00e-12
      Number of threads:                 1

	Batch   1 pq = [       0,    9405] index = [             0,44231715] size =     44231715
	Batch   2 pq = [    9405,   11628] index = [      44231715,67611006] size =     23379291
  Task number: 7
  Buffer size: 11059200
  Buffer per thread: 2
  We computed 3974636 shell quartets total.
  Whereas there are 4282201 unique shell quartets.

  ==> DiskJK: Disk-Based J/K Matrices <==

    J tasked:                  Yes
    K tasked:                  Yes
    wK tasked:                  No
    Memory [MiB]:              375
    Schwarz Cutoff:          1E-12

    OpenMP threads:              1

  Minimum eigenvalue in the overlap matrix is 6.0696547681E-03.
  Using Symmetric Orthogonalization.

  SCF Guess: Superposition of Atomic Densities via on-the-fly atomic UHF.

  ==> Iterations <==

                        Total Energy        Delta E     RMS |[F,P]|

   @RHF iter SAD:  -952.66207576702641   -9.52662e+02   0.00000e+00
   @RHF iter   1:  -953.35494731867993   -6.92872e-01   3.04807e-03 DIIS
   @RHF iter   2:  -953.49062358572462   -1.35676e-01   1.25908e-03 DIIS
   @RHF iter   3:  -953.51155662382553   -2.09330e-02   3.16877e-04 DIIS
   @RHF iter   4:  -953.51387181260861   -2.31519e-03   7.33230e-05 DIIS
   @RHF iter   5:  -953.51397135977686   -9.95472e-05   2.00307e-05 DIIS
   @RHF iter   6:  -953.51397974220754   -8.38243e-06   4.21244e-06 DIIS
   @RHF iter   7:  -953.51398028385563   -5.41648e-07   1.14695e-06 DIIS
   @RHF iter   8:  -953.51398033445332   -5.05977e-08   3.62292e-07 DIIS
   @RHF iter   9:  -953.51398033975590   -5.30258e-09   1.05021e-07 DIIS
   @RHF iter  10:  -953.51398034036015   -6.04246e-10   3.29944e-08 DIIS
   @RHF iter  11:  -953.51398034042472   -6.45741e-11   1.21928e-08 DIIS
   @RHF iter  12:  -953.51398034043541   -1.06866e-11   4.89272e-09 DIIS
   @RHF iter  13:  -953.51398034043768   -2.27374e-12   1.04065e-09 DIIS
   @RHF iter  14:  -953.51398034043632    1.36424e-12   2.64213e-10 DIIS
   @RHF iter  15:  -953.51398034043700   -6.82121e-13   9.32523e-11 DIIS
  Energy and wave function converged.

  ==> Post-Iterations <==

    Orbital Energies [Eh]
    ---------------------

    Doubly Occupied:

       1A    -91.943911     2A    -91.940959     3A    -11.266590
       4A    -11.261997     5A    -11.239824     6A    -11.229368
       7A     -8.947311     8A     -8.944643     9A     -6.629417
      10A     -6.627992    11A     -6.626748    12A     -6.625612
      13A     -6.625309    14A     -6.622952    15A     -1.074912
      16A     -1.065938    17A     -0.947098    18A     -0.941438
      19A     -0.817114    20A     -0.810997    21A     -0.645820
      22A     -0.625313    23A     -0.615113    24A     -0.601413
      25A     -0.540342    26A     -0.530308    27A     -0.522474
      28A     -0.507991    29A     -0.502884    30A     -0.493111
      31A     -0.446821    32A     -0.441531    33A     -0.363947
      34A     -0.334764

    Virtual:

      35A      0.141574    36A      0.168958    37A      0.191263
      38A      0.204815    39A      0.223179    40A      0.231413
      41A      0.233213    42A      0.239726    43A      0.249635
      44A      0.265290    45A      0.271672    46A      0.286286
      47A      0.293215    48A      0.350687    49A      0.363169
      50A      0.371220    51A      0.498463    52A      0.540000
      53A      0.569273    54A      0.581500    55A      0.592948
      56A      0.599771    57A      0.620193    58A      0.628064
      59A      0.632874    60A      0.651223    61A      0.658534
      62A      0.688375    63A      0.693766    64A      0.713747
      65A      0.749524    66A      0.777022    67A      0.788867
      68A      0.790142    69A      0.806301    70A      0.836805
      71A      0.843722    72A      0.857773    73A      0.862009
      74A      0.871539    75A      0.877980    76A      0.888336
      77A      0.889855    78A      0.898443    79A      0.910291
      80A      0.916506    81A      0.931236    82A      0.955048
      83A      0.956334    84A      0.967628    85A      0.971773
      86A      0.988199    87A      1.003763    88A      1.045641
      89A      1.163551    90A      1.177640    91A      1.217037
      92A      1.227806    93A      1.268171    94A      1.270110
      95A      1.309658    96A      1.372843    97A      1.388107
      98A      1.449332    99A      1.467733   100A      1.489119
     101A      1.587525   102A      1.608678   103A      1.617452
     104A      1.645064   105A      1.669526   106A      1.678290
     107A      1.712238   108A      1.717462   109A      1.742049
     110A      1.768218   111A      1.836093   112A      1.850921
     113A      1.870662   114A      1.882403   115A      1.887897
     116A      1.892379   117A      1.906259   118A      1.925556
     119A      1.957128   120A      1.961500   121A      1.974099
     122A      1.984058   123A      1.989652   124A      2.011527
     125A      2.034124   126A      2.047054   127A      2.124950
     128A      2.135907   129A      2.211330   130A      2.221169
     131A      2.267721   132A      2.281563   133A      2.301409
     134A      2.317778   135A      2.388917   136A      2.403070
     137A      2.439820   138A      2.460792   139A      2.532034
     140A      2.535438   141A      2.557671   142A      2.568711
     143A      2.748623   144A      2.756473   145A      2.786936
     146A      2.799832   147A      2.807644   148A      2.815262
     149A      2.869774   150A      2.877920   151A      2.947136
     152A      2.950004

    Final Occupation by Irrep:
              A
    DOCC [    34 ]

  @RHF Final Energy:  -953.51398034043700

   => Energetics <=

    Nuclear Repulsion Energy =            362.2190683806835523
    One-Electron Energy =               -2032.7421729640191188
    Two-Electron Energy =                 717.0091242428986789
    Total Energy =                       -953.5139803404370014

Computation Completed

Properties will be evaluated at   0.000000,   0.000000,   0.000000 [a0]

Properties computed using the SCF density matrix

  Nuclear Dipole Moment: [e a0]
     X:    -4.1318      Y:    -7.1699      Z:     1.0544

  Electronic Dipole Moment: [e a0]
     X:     4.0744      Y:     6.4064      Z:    -0.6318

  Dipole Moment: [e a0]
     X:    -0.0574      Y:    -0.7635      Z:     0.4226     Total:     0.8745

  Dipole Moment: [D]
     X:    -0.1458      Y:    -1.9405      Z:     1.0741     Total:     2.2227

*** tstop() called on ds3 at Tue Apr 28 10:12:49 2020
Module time:
	user time   =      42.02 seconds =       0.70 minutes
	system time =       9.54 seconds =       0.16 minutes
	total time  =         52 seconds =       0.87 minutes
Total time:
	user time   =      42.02 seconds =       0.70 minutes
	system time =       9.54 seconds =       0.16 minutes
	total time  =         52 seconds =       0.87 minutes
                                     G D M A

                                 by Anthony Stone

                           version 2.2.06, 22 June 2011

               Distributed Multipoles from Gaussian wavefunctions

Starting at 10:12:49 on 28 Apr 2020

Using SCF density matrix from file ./SSI/SSI-036CYS-039CYS-1-dimer.test.1992.fchk

                         Distributed Multipole Analysis

Standard DMA

Positions and radii in angstrom
Multipole moments in atomic units, ea_0^k for rank k

C          x = -0.358747  y = -0.141607  z =  1.906871 angstrom
           Maximum rank =  0   Radius =  0.650 angstrom
                   Q00  =  -0.184403

C          x = -1.568747  y = -0.925607  z =  2.423871 angstrom
           Maximum rank =  0   Radius =  0.650 angstrom
                   Q00  =  -0.213487

S          x = -0.819747  y =  1.415393  z =  1.106871 angstrom
           Maximum rank =  0   Radius =  0.650 angstrom
                   Q00  =  -0.085651

H          x =  0.302253  y =  0.070393  z =  2.751871 angstrom
           Maximum rank =  0   Radius =  0.325 angstrom
                   Q00  =   0.073023

H          x =  0.188253  y = -0.765607  z =  1.201871 angstrom
           Maximum rank =  0   Radius =  0.325 angstrom
                   Q00  =   0.029052

H          x = -1.933747  y = -0.412607  z =  3.314871 angstrom
           Maximum rank =  0   Radius =  0.325 angstrom
                   Q00  =   0.092110

H          x =  0.382253  y =  2.010393  z =  1.168871 angstrom
           Maximum rank =  0   Radius =  0.325 angstrom
                   Q00  =   0.117284

H          x = -1.261407  y = -1.946036  z =  2.696391 angstrom
           Maximum rank =  0   Radius =  0.325 angstrom
                   Q00  =   0.093672

H          x = -2.361639  y = -0.952204  z =  1.661891 angstrom
           Maximum rank =  0   Radius =  0.325 angstrom
                   Q00  =   0.087339

C          x =  0.461253  y = -1.239607  z = -1.703129 angstrom
           Maximum rank =  0   Radius =  0.650 angstrom
                   Q00  =  -0.194546

C          x = -0.552747  y = -0.646607  z = -2.676129 angstrom
           Maximum rank =  0   Radius =  0.650 angstrom
                   Q00  =  -0.210478

S          x =  1.717253  y = -0.064607  z = -1.124129 angstrom
           Maximum rank =  0   Radius =  0.650 angstrom
                   Q00  =  -0.113720

H          x = -0.065747  y = -1.670607  z = -0.848129 angstrom
           Maximum rank =  0   Radius =  0.325 angstrom
                   Q00  =   0.075691

H          x =  0.981253  y = -2.059607  z = -2.204129 angstrom
           Maximum rank =  0   Radius =  0.325 angstrom
                   Q00  =   0.062745

H          x = -0.010747  y = -0.157607  z = -3.489129 angstrom
           Maximum rank =  0   Radius =  0.325 angstrom
                   Q00  =   0.083948

H          x =  1.704253  y = -0.444607  z =  0.160871 angstrom
           Maximum rank =  0   Radius =  0.325 angstrom
                   Q00  =   0.098909

H          x = -1.195099  y =  0.090008  z = -2.171369 angstrom
           Maximum rank =  0   Radius =  0.325 angstrom
                   Q00  =   0.102051

H          x = -1.162501  y = -1.448080  z = -3.118669 angstrom
           Maximum rank =  0   Radius =  0.325 angstrom
                   Q00  =   0.086461

Total multipoles referred to origin at
           x =   0.000000,  y =    0.000000,  z =    0.000000 angstrom
                   Q00  =   0.000000

Finished at 10:12:49 on 28 Apr 2020

  DMA results are available in the Python driver through the
	  variable('DMA DISTRIBUTED MULTIPOLES')
  and
	  variable('DMA TOTAL MULTIPOLES')
  commands.

    Psi4 stopped on: Tuesday, 28 April 2020 10:12AM
    Psi4 wall time for execution: 0:00:51.67

*** Psi4 exiting successfully. Buy a developer a beer!
