                               Psi4 1.3.2 release

  ==> Input File <==

--------------------------------------------------------------------------
import numpy as np
set {scf_type pk
basis cc-pvdz
d_convergence 10
gdma_switch   0
gdma_limit    0
gdma_origin   [ 0.0,  0.0,  0.0 ]
}
molecule test {
    units Angstrom
    0 1
    --
    0 1
    C                1.406637382277552    -2.591937017420463     0.725089095726353
    C                0.986637382277553    -1.389937017420462    -0.150910904273647
    O               -0.125362617722447    -1.386937017420462    -0.698910904273647
    N                1.852637382277552    -0.361937017420462    -0.292910904273647
    H                2.235637382277552    -2.296937017420462     1.369089095726353
    H                1.776637382277553    -3.373937017420463     0.062089095726353
    H                1.542637382277553     0.439062982579538    -0.850910904273647
    H                2.762637382277553    -0.384937017420462     0.140089095726353
    H                0.596887382277553    -3.008825017420462     1.341939095726353
    C               -0.848362617722447     1.766062982579538     0.286089095726353
    C               -1.903362617722448     2.230062982579538     1.281089095726353
    C               -1.401362617722447     1.689062982579538    -1.127910904273647
    H               -0.033362617722447     2.491062982579538     0.304089095726353
    H               -0.464362617722448     0.800062982579538     0.600089095726353
    H               -2.263362617722448     3.203062982579538     0.955089095726353
    H               -2.065362617722447     0.825062982579538    -1.200910904273647
    H               -2.000362617722447     2.582062982579537    -1.306910904273647
    H               -1.480032617722447     2.310518982579538     2.293179095726352
    H               -2.755392617722447     1.535305982579538     1.317879095726353
    H               -0.650002617722448     1.637930982579538    -1.929690904273647

}
e, wfn = energy('scf', return_wfn=True)
gdma(wfn)
dmavals = variable('DMA DISTRIBUTED MULTIPOLES')
charges = np.array(dmavals)
print(charges)
np.save('SSI-109GLN-161GLU-1-dimer.npy', np.array(charges))--------------------------------------------------------------------------

*** tstart() called on ds3
*** at Tue Apr 28 03:59:09 2020

   => Loading Basis Set <=

    Name: CC-PVDZ
    Role: ORBITAL
    Keyword: BASIS
    atoms 1-2, 10-12 entry C          line   138 file /theoryfs2/ds/metcalf/miniconda2/envs/tf2gpu/share/psi4/basis/cc-pvdz.gbs
    atoms 3          entry O          line   198 file /theoryfs2/ds/metcalf/miniconda2/envs/tf2gpu/share/psi4/basis/cc-pvdz.gbs
    atoms 4          entry N          line   168 file /theoryfs2/ds/metcalf/miniconda2/envs/tf2gpu/share/psi4/basis/cc-pvdz.gbs
    atoms 5-9, 13-20 entry H          line    22 file /theoryfs2/ds/metcalf/miniconda2/envs/tf2gpu/share/psi4/basis/cc-pvdz.gbs

         ---------------------------------------------------------
                                   SCF
               by Justin Turney, Rob Parrish, Andy Simmonett
                          and Daniel G. A. Smith
                              RHF Reference
                        1 Threads,    500 MiB Core
         ---------------------------------------------------------

  ==> Geometry <==

    Molecular point group: c1
    Full point group: C1

    Geometry (in Angstrom), charge = 0, multiplicity = 1:

       Center              X                  Y                   Z               Mass
    ------------   -----------------  -----------------  -----------------  -----------------
         C            1.406637382278    -2.591937017420     0.725089095726    12.000000000000
         C            0.986637382278    -1.389937017420    -0.150910904274    12.000000000000
         O           -0.125362617722    -1.386937017420    -0.698910904274    15.994914619570
         N            1.852637382278    -0.361937017420    -0.292910904274    14.003074004430
         H            2.235637382278    -2.296937017420     1.369089095726     1.007825032230
         H            1.776637382278    -3.373937017420     0.062089095726     1.007825032230
         H            1.542637382278     0.439062982580    -0.850910904274     1.007825032230
         H            2.762637382278    -0.384937017420     0.140089095726     1.007825032230
         H            0.596887382278    -3.008825017420     1.341939095726     1.007825032230
         C           -0.848362617722     1.766062982580     0.286089095726    12.000000000000
         C           -1.903362617722     2.230062982580     1.281089095726    12.000000000000
         C           -1.401362617722     1.689062982580    -1.127910904274    12.000000000000
         H           -0.033362617722     2.491062982580     0.304089095726     1.007825032230
         H           -0.464362617722     0.800062982580     0.600089095726     1.007825032230
         H           -2.263362617722     3.203062982580     0.955089095726     1.007825032230
         H           -2.065362617722     0.825062982580    -1.200910904274     1.007825032230
         H           -2.000362617722     2.582062982580    -1.306910904274     1.007825032230
         H           -1.480032617722     2.310518982580     2.293179095726     1.007825032230
         H           -2.755392617722     1.535305982580     1.317879095726     1.007825032230
         H           -0.650002617722     1.637930982580    -1.929690904274     1.007825032230

  Running in c1 symmetry.

  Rotational constants: A =      0.13417  B =      0.03171  C =      0.03077 [cm^-1]
  Rotational constants: A =   4022.18839  B =    950.66214  C =    922.53362 [MHz]
  Nuclear repulsion =  306.184485605601253

  Charge       = 0
  Multiplicity = 1
  Electrons    = 58
  Nalpha       = 29
  Nbeta        = 29

  ==> Algorithm <==

  SCF Algorithm Type is PK.
  DIIS enabled.
  MOM disabled.
  Fractional occupation disabled.
  Guess Type is SAD.
  Energy threshold   = 1.00e-06
  Density threshold  = 1.00e-10
  Integral threshold = 0.00e+00

  ==> Primary Basis <==

  Basis Set: CC-PVDZ
    Blend: CC-PVDZ
    Number of shells: 81
    Number of basis function: 163
    Number of Cartesian functions: 170
    Spherical Harmonics?: true
    Max angular momentum: 2

  ==> Pre-Iterations <==

   -------------------------------------------------------
    Irrep   Nso     Nmo     Nalpha   Nbeta   Ndocc  Nsocc
   -------------------------------------------------------
     A        163     163       0       0       0       0
   -------------------------------------------------------
    Total     163     163      29      29      29       0
   -------------------------------------------------------

  ==> Integral Setup <==

  Using integral reordering PK algorithm.
  Sizing the integral batches needed.
  Building batch lookup table.
   Calculation information:
      Number of atoms:                  20
      Number of AO shells:              81
      Number of primitives:            219
      Number of atomic orbitals:       170
      Number of basis functions:       163

      Integral cutoff                 1.00e-12
      Number of threads:                 1

	Batch   1 pq = [       0,    9405] index = [             0,44231715] size =     44231715
	Batch   2 pq = [    9405,   13366] index = [      44231715,89331661] size =     45099946
  Task number: 9
  Buffer size: 11059200
  Buffer per thread: 2
  We computed 4845555 shell quartets total.
  Whereas there are 5516181 unique shell quartets.

  ==> DiskJK: Disk-Based J/K Matrices <==

    J tasked:                  Yes
    K tasked:                  Yes
    wK tasked:                  No
    Memory [MiB]:              375
    Schwarz Cutoff:          1E-12

    OpenMP threads:              1

  Minimum eigenvalue in the overlap matrix is 4.7955529998E-03.
  Using Symmetric Orthogonalization.

  SCF Guess: Superposition of Atomic Densities via on-the-fly atomic UHF.

  ==> Iterations <==

                        Total Energy        Delta E     RMS |[F,P]|

   @RHF iter SAD:  -324.86091600469240   -3.24861e+02   0.00000e+00
   @RHF iter   1:  -325.99416002588958   -1.13324e+00   4.18334e-03 DIIS
   @RHF iter   2:  -326.19371258125199   -1.99553e-01   2.39051e-03 DIIS
   @RHF iter   3:  -326.25360367832570   -5.98911e-02   5.06856e-04 DIIS
   @RHF iter   4:  -326.25763016392352   -4.02649e-03   2.04824e-04 DIIS
   @RHF iter   5:  -326.25833482702046   -7.04663e-04   3.18482e-05 DIIS
   @RHF iter   6:  -326.25836876880084   -3.39418e-05   1.44847e-05 DIIS
   @RHF iter   7:  -326.25837474673312   -5.97793e-06   5.57378e-06 DIIS
   @RHF iter   8:  -326.25837600286837   -1.25614e-06   1.99943e-06 DIIS
   @RHF iter   9:  -326.25837616337975   -1.60511e-07   5.77904e-07 DIIS
   @RHF iter  10:  -326.25837617306445   -9.68470e-09   1.82790e-07 DIIS
   @RHF iter  11:  -326.25837617423826   -1.17382e-09   4.36977e-08 DIIS
   @RHF iter  12:  -326.25837617430193   -6.36646e-11   1.08565e-08 DIIS
   @RHF iter  13:  -326.25837617430693   -5.00222e-12   2.89842e-09 DIIS
   @RHF iter  14:  -326.25837617430511    1.81899e-12   1.11854e-09 DIIS
   @RHF iter  15:  -326.25837617430625   -1.13687e-12   4.33857e-10 DIIS
   @RHF iter  16:  -326.25837617430733   -1.08002e-12   1.88082e-10 DIIS
   @RHF iter  17:  -326.25837617430557    1.76215e-12   8.97683e-11 DIIS
  Energy and wave function converged.

  ==> Post-Iterations <==

    Orbital Energies [Eh]
    ---------------------

    Doubly Occupied:

       1A    -20.508578     2A    -15.593294     3A    -11.357194
       4A    -11.248867     5A    -11.208460     6A    -11.206394
       7A    -11.201569     8A     -1.361952     9A     -1.209186
      10A     -1.045739    11A     -0.996335    12A     -0.911747
      13A     -0.795818    14A     -0.787598    15A     -0.725492
      16A     -0.652675    17A     -0.619162    18A     -0.605548
      19A     -0.587918    20A     -0.570748    21A     -0.561306
      22A     -0.533185    23A     -0.523103    24A     -0.516237
      25A     -0.467005    26A     -0.456788    27A     -0.454258
      28A     -0.410277    29A     -0.404657

    Virtual:

      30A      0.159742    31A      0.190404    32A      0.195113
      33A      0.208076    34A      0.221209    35A      0.242783
      36A      0.254284    37A      0.263497    38A      0.273968
      39A      0.279417    40A      0.289585    41A      0.309204
      42A      0.318089    43A      0.330771    44A      0.370041
      45A      0.399585    46A      0.439239    47A      0.469764
      48A      0.562319    49A      0.588872    50A      0.610017
      51A      0.622793    52A      0.629076    53A      0.633197
      54A      0.647881    55A      0.683952    56A      0.695319
      57A      0.726435    58A      0.733642    59A      0.796767
      60A      0.825919    61A      0.835105    62A      0.843959
      63A      0.856098    64A      0.864592    65A      0.877999
      66A      0.884963    67A      0.895349    68A      0.905456
      69A      0.909687    70A      0.917408    71A      0.922903
      72A      0.931019    73A      0.947165    74A      0.963726
      75A      0.976623    76A      0.988229    77A      1.021855
      78A      1.048751    79A      1.087782    80A      1.130357
      81A      1.142966    82A      1.156827    83A      1.162900
      84A      1.234506    85A      1.319243    86A      1.353948
      87A      1.374811    88A      1.404616    89A      1.416333
      90A      1.423144    91A      1.449393    92A      1.461944
      93A      1.500011    94A      1.510205    95A      1.583161
      96A      1.616494    97A      1.631819    98A      1.657936
      99A      1.681500   100A      1.695689   101A      1.729299
     102A      1.743117   103A      1.809390   104A      1.844702
     105A      1.855906   106A      1.866768   107A      1.881507
     108A      1.890700   109A      1.893245   110A      1.907204
     111A      1.933772   112A      1.943261   113A      1.962502
     114A      1.965735   115A      1.980021   116A      1.987796
     117A      2.001281   118A      2.010202   119A      2.025092
     120A      2.033485   121A      2.046807   122A      2.062977
     123A      2.095210   124A      2.133919   125A      2.152849
     126A      2.181063   127A      2.214416   128A      2.277316
     129A      2.294517   130A      2.334173   131A      2.341963
     132A      2.355070   133A      2.427663   134A      2.439429
     135A      2.453785   136A      2.512457   137A      2.526972
     138A      2.541898   139A      2.568240   140A      2.594612
     141A      2.630392   142A      2.641519   143A      2.656771
     144A      2.712279   145A      2.748436   146A      2.765185
     147A      2.785021   148A      2.798664   149A      2.802582
     150A      2.831201   151A      2.850547   152A      2.929253
     153A      2.953685   154A      2.978388   155A      2.984278
     156A      3.083706   157A      3.098557   158A      3.125432
     159A      3.281409   160A      3.461877   161A      3.501718
     162A      3.831186   163A      3.896435

    Final Occupation by Irrep:
              A
    DOCC [    29 ]

  @RHF Final Energy:  -326.25837617430557

   => Energetics <=

    Nuclear Repulsion Energy =            306.1844856056012532
    One-Electron Energy =               -1049.8435466076730336
    Two-Electron Energy =                 417.4006848277662129
    Total Energy =                       -326.2583761743055675

Computation Completed

Properties will be evaluated at   0.000000,   0.000000,   0.000000 [a0]

Properties computed using the SCF density matrix

  Nuclear Dipole Moment: [e a0]
     X:    -2.6288      Y:     6.3312      Z:     2.8991

  Electronic Dipole Moment: [e a0]
     X:     4.1921      Y:    -6.2658      Z:    -2.3098

  Dipole Moment: [e a0]
     X:     1.5633      Y:     0.0654      Z:     0.5893     Total:     1.6720

  Dipole Moment: [D]
     X:     3.9735      Y:     0.1662      Z:     1.4978     Total:     4.2497

*** tstop() called on ds3 at Tue Apr 28 04:00:20 2020
Module time:
	user time   =      30.24 seconds =       0.50 minutes
	system time =      11.87 seconds =       0.20 minutes
	total time  =         71 seconds =       1.18 minutes
Total time:
	user time   =      30.24 seconds =       0.50 minutes
	system time =      11.87 seconds =       0.20 minutes
	total time  =         71 seconds =       1.18 minutes
                                     G D M A

                                 by Anthony Stone

                           version 2.2.06, 22 June 2011

               Distributed Multipoles from Gaussian wavefunctions

Starting at 4:0:20 on 28 Apr 2020

Using SCF density matrix from file ./SSI/SSI-109GLN-161GLU-1-dimer.test.27114.fchk

                         Distributed Multipole Analysis

Standard DMA

Positions and radii in angstrom
Multipole moments in atomic units, ea_0^k for rank k

C          x =  1.406637  y = -2.591937  z =  0.725089 angstrom
           Maximum rank =  0   Radius =  0.650 angstrom
                   Q00  =  -0.256962

C          x =  0.986637  y = -1.389937  z = -0.150911 angstrom
           Maximum rank =  0   Radius =  0.650 angstrom
                   Q00  =   0.784947

O          x = -0.125363  y = -1.386937  z = -0.698911 angstrom
           Maximum rank =  0   Radius =  0.650 angstrom
                   Q00  =  -0.768473

N          x =  1.852637  y = -0.361937  z = -0.292911 angstrom
           Maximum rank =  0   Radius =  0.650 angstrom
                   Q00  =  -0.540352

H          x =  2.235637  y = -2.296937  z =  1.369089 angstrom
           Maximum rank =  0   Radius =  0.325 angstrom
                   Q00  =   0.075491

H          x =  1.776637  y = -3.373937  z =  0.062089 angstrom
           Maximum rank =  0   Radius =  0.325 angstrom
                   Q00  =   0.133627

H          x =  1.542637  y =  0.439063  z = -0.850911 angstrom
           Maximum rank =  0   Radius =  0.325 angstrom
                   Q00  =   0.238700

H          x =  2.762637  y = -0.384937  z =  0.140089 angstrom
           Maximum rank =  0   Radius =  0.325 angstrom
                   Q00  =   0.209455

H          x =  0.596887  y = -3.008825  z =  1.341939 angstrom
           Maximum rank =  0   Radius =  0.325 angstrom
                   Q00  =   0.135406

C          x = -0.848363  y =  1.766063  z =  0.286089 angstrom
           Maximum rank =  0   Radius =  0.650 angstrom
                   Q00  =  -0.094488

C          x = -1.903363  y =  2.230063  z =  1.281089 angstrom
           Maximum rank =  0   Radius =  0.650 angstrom
                   Q00  =  -0.221263

C          x = -1.401363  y =  1.689063  z = -1.127911 angstrom
           Maximum rank =  0   Radius =  0.650 angstrom
                   Q00  =  -0.237935

H          x = -0.033363  y =  2.491063  z =  0.304089 angstrom
           Maximum rank =  0   Radius =  0.325 angstrom
                   Q00  =   0.022684

H          x = -0.464363  y =  0.800063  z =  0.600089 angstrom
           Maximum rank =  0   Radius =  0.325 angstrom
                   Q00  =   0.062912

H          x = -2.263363  y =  3.203063  z =  0.955089 angstrom
           Maximum rank =  0   Radius =  0.325 angstrom
                   Q00  =   0.070857

H          x = -2.065363  y =  0.825063  z = -1.200911 angstrom
           Maximum rank =  0   Radius =  0.325 angstrom
                   Q00  =   0.098103

H          x = -2.000363  y =  2.582063  z = -1.306911 angstrom
           Maximum rank =  0   Radius =  0.325 angstrom
                   Q00  =   0.056649

H          x = -1.480033  y =  2.310519  z =  2.293179 angstrom
           Maximum rank =  0   Radius =  0.325 angstrom
                   Q00  =   0.077721

H          x = -2.755393  y =  1.535306  z =  1.317879 angstrom
           Maximum rank =  0   Radius =  0.325 angstrom
                   Q00  =   0.078494

H          x = -0.650003  y =  1.637931  z = -1.929691 angstrom
           Maximum rank =  0   Radius =  0.325 angstrom
                   Q00  =   0.074427

Total multipoles referred to origin at
           x =   0.000000,  y =    0.000000,  z =    0.000000 angstrom
                   Q00  =  -0.000000

Finished at 4:0:20 on 28 Apr 2020

  DMA results are available in the Python driver through the
	  variable('DMA DISTRIBUTED MULTIPOLES')
  and
	  variable('DMA TOTAL MULTIPOLES')
  commands.

    Psi4 stopped on: Tuesday, 28 April 2020 04:00AM
    Psi4 wall time for execution: 0:01:11.83

*** Psi4 exiting successfully. Buy a developer a beer!
