                               Psi4 1.3.2 release

  ==> Input File <==

--------------------------------------------------------------------------
import numpy as np
set {scf_type pk
basis cc-pvdz
d_convergence 10
gdma_switch   0
gdma_limit    0
gdma_origin   [ 0.0,  0.0,  0.0 ]
}
molecule test {
    units Angstrom
    0 1
    --
    0 1
    C               -1.646587719631001    -0.091050022129730    -0.643165384910949
    C               -2.534587719631000    -1.251050022129730    -0.169165384910949
    H               -1.171587719631001     0.391949977870270     0.209834615089051
    H               -0.866587719631001    -0.472050022129730    -1.302165384910948
    H               -2.248587719631000     0.629949977870270    -1.186165384910949
    H               -1.914587719631001    -1.995050022129731     0.329834615089051
    H               -3.333337719631000    -0.895330022129731     0.498264615089051
    H               -3.009227719631001    -1.689290022129730    -1.059475384910948
    C                1.866412280368999     0.852949977870269    -0.305165384910949
    C                2.317412280369000     0.484949977870270     1.125834615089051
    H                2.659412280369000     1.382949977870270    -0.826165384910949
    H                1.642412280368999    -0.062050022129730    -0.853165384910949
    H                0.969412280368999     1.470949977870269    -0.279165384910949
    H                1.512412280368999    -0.057050022129730     1.621834615089051
    H                2.489542280369000     1.460129977870270     1.604784615089051
    H                3.239182280369000    -0.115100022129730     1.142464615089052

}
e, wfn = energy('scf', return_wfn=True)
gdma(wfn)
dmavals = variable('DMA DISTRIBUTED MULTIPOLES')
charges = np.array(dmavals)
print(charges)
np.save('SSI-186VAL-223LEU-1-dimer.npy', np.array(charges))--------------------------------------------------------------------------

*** tstart() called on ds3
*** at Tue Apr 28 14:36:29 2020

   => Loading Basis Set <=

    Name: CC-PVDZ
    Role: ORBITAL
    Keyword: BASIS
    atoms 1-2, 9-10  entry C          line   138 file /theoryfs2/ds/metcalf/miniconda2/envs/tf2gpu/share/psi4/basis/cc-pvdz.gbs
    atoms 3-8, 11-16 entry H          line    22 file /theoryfs2/ds/metcalf/miniconda2/envs/tf2gpu/share/psi4/basis/cc-pvdz.gbs

         ---------------------------------------------------------
                                   SCF
               by Justin Turney, Rob Parrish, Andy Simmonett
                          and Daniel G. A. Smith
                              RHF Reference
                        1 Threads,    500 MiB Core
         ---------------------------------------------------------

  ==> Geometry <==

    Molecular point group: c1
    Full point group: C1

    Geometry (in Angstrom), charge = 0, multiplicity = 1:

       Center              X                  Y                   Z               Mass
    ------------   -----------------  -----------------  -----------------  -----------------
         C           -1.646587719631    -0.091050022130    -0.643165384911    12.000000000000
         C           -2.534587719631    -1.251050022130    -0.169165384911    12.000000000000
         H           -1.171587719631     0.391949977870     0.209834615089     1.007825032230
         H           -0.866587719631    -0.472050022130    -1.302165384911     1.007825032230
         H           -2.248587719631     0.629949977870    -1.186165384911     1.007825032230
         H           -1.914587719631    -1.995050022130     0.329834615089     1.007825032230
         H           -3.333337719631    -0.895330022130     0.498264615089     1.007825032230
         H           -3.009227719631    -1.689290022130    -1.059475384911     1.007825032230
         C            1.866412280369     0.852949977870    -0.305165384911    12.000000000000
         C            2.317412280369     0.484949977870     1.125834615089    12.000000000000
         H            2.659412280369     1.382949977870    -0.826165384911     1.007825032230
         H            1.642412280369    -0.062050022130    -0.853165384911     1.007825032230
         H            0.969412280369     1.470949977870    -0.279165384911     1.007825032230
         H            1.512412280369    -0.057050022130     1.621834615089     1.007825032230
         H            2.489542280369     1.460129977870     1.604784615089     1.007825032230
         H            3.239182280369    -0.115100022130     1.142464615089     1.007825032230

  Running in c1 symmetry.

  Rotational constants: A =      0.44184  B =      0.05165  C =      0.04835 [cm^-1]
  Rotational constants: A =  13245.93044  B =   1548.50698  C =   1449.48397 [MHz]
  Nuclear repulsion =  122.714547334703099

  Charge       = 0
  Multiplicity = 1
  Electrons    = 36
  Nalpha       = 18
  Nbeta        = 18

  ==> Algorithm <==

  SCF Algorithm Type is PK.
  DIIS enabled.
  MOM disabled.
  Fractional occupation disabled.
  Guess Type is SAD.
  Energy threshold   = 1.00e-06
  Density threshold  = 1.00e-10
  Integral threshold = 0.00e+00

  ==> Primary Basis <==

  Basis Set: CC-PVDZ
    Blend: CC-PVDZ
    Number of shells: 60
    Number of basis function: 116
    Number of Cartesian functions: 120
    Spherical Harmonics?: true
    Max angular momentum: 2

  ==> Pre-Iterations <==

   -------------------------------------------------------
    Irrep   Nso     Nmo     Nalpha   Nbeta   Ndocc  Nsocc
   -------------------------------------------------------
     A        116     116       0       0       0       0
   -------------------------------------------------------
    Total     116     116      18      18      18       0
   -------------------------------------------------------

  ==> Integral Setup <==

  Using integral reordering PK algorithm.
  Sizing the integral batches needed.
  Building batch lookup table.
   Calculation information:
      Number of atoms:                  16
      Number of AO shells:              60
      Number of primitives:            148
      Number of atomic orbitals:       120
      Number of basis functions:       116

      Integral cutoff                 1.00e-12
      Number of threads:                 1

	Batch   1 pq = [       0,    6786] index = [             0,23028291] size =     23028291
  Task number: 3
  Buffer size: 11059200
  Buffer per thread: 2
  We computed 1459002 shell quartets total.
  Whereas there are 1675365 unique shell quartets.

  ==> DiskJK: Disk-Based J/K Matrices <==

    J tasked:                  Yes
    K tasked:                  Yes
    wK tasked:                  No
    Memory [MiB]:              375
    Schwarz Cutoff:          1E-12

    OpenMP threads:              1

  Minimum eigenvalue in the overlap matrix is 7.2724955787E-03.
  Using Symmetric Orthogonalization.

  SCF Guess: Superposition of Atomic Densities via on-the-fly atomic UHF.

  ==> Iterations <==

                        Total Energy        Delta E     RMS |[F,P]|

   @RHF iter SAD:  -157.32572262893430   -1.57326e+02   0.00000e+00
   @RHF iter   1:  -158.30736566215262   -9.81643e-01   4.18115e-03 DIIS
   @RHF iter   2:  -158.43953477647699   -1.32169e-01   1.76903e-03 DIIS
   @RHF iter   3:  -158.46232204539652   -2.27873e-02   3.48576e-04 DIIS
   @RHF iter   4:  -158.46413877805074   -1.81673e-03   3.89685e-05 DIIS
   @RHF iter   5:  -158.46416277478099   -2.39967e-05   6.78359e-06 DIIS
   @RHF iter   6:  -158.46416346489588   -6.90115e-07   1.14588e-06 DIIS
   @RHF iter   7:  -158.46416347830157   -1.34057e-08   3.37929e-07 DIIS
   @RHF iter   8:  -158.46416347939549   -1.09392e-09   4.52057e-08 DIIS
   @RHF iter   9:  -158.46416347943293   -3.74314e-11   8.42838e-09 DIIS
   @RHF iter  10:  -158.46416347943412   -1.19371e-12   2.33703e-09 DIIS
   @RHF iter  11:  -158.46416347943472   -5.96856e-13   6.28367e-10 DIIS
   @RHF iter  12:  -158.46416347943457    1.42109e-13   1.33180e-10 DIIS
   @RHF iter  13:  -158.46416347943455    2.84217e-14   2.64128e-11 DIIS
  Energy and wave function converged.

  ==> Post-Iterations <==

    Orbital Energies [Eh]
    ---------------------

    Doubly Occupied:

       1A    -11.220614     2A    -11.219738     3A    -11.216180
       4A    -11.216032     5A     -1.017895     6A     -1.014292
       7A     -0.839310     8A     -0.833616     9A     -0.605314
      10A     -0.598729    11A     -0.596037    12A     -0.592733
      13A     -0.502968    14A     -0.496789    15A     -0.491829
      16A     -0.486930    17A     -0.482878    18A     -0.476218

    Virtual:

      19A      0.169074    20A      0.199851    21A      0.224159
      22A      0.234747    23A      0.242880    24A      0.256949
      25A      0.264519    26A      0.272059    27A      0.280394
      28A      0.294410    29A      0.311911    30A      0.347302
      31A      0.388051    32A      0.402570    33A      0.572730
      34A      0.594488    35A      0.597992    36A      0.608198
      37A      0.618645    38A      0.628297    39A      0.655351
      40A      0.681783    41A      0.685546    42A      0.803331
      43A      0.834852    44A      0.865930    45A      0.886708
      46A      0.890377    47A      0.891697    48A      0.896929
      49A      0.901690    50A      0.908796    51A      0.915325
      52A      0.916660    53A      0.937926    54A      0.960057
      55A      0.975936    56A      0.983777    57A      1.113987
      58A      1.127205    59A      1.136458    60A      1.161105
      61A      1.224927    62A      1.252926    63A      1.459231
      64A      1.472855    65A      1.484776    66A      1.493401
      67A      1.543158    68A      1.598466    69A      1.674400
      70A      1.677639    71A      1.690584    72A      1.709413
      73A      1.849886    74A      1.856313    75A      1.863521
      76A      1.882993    77A      1.887689    78A      1.910356
      79A      1.927867    80A      1.940097    81A      1.943925
      82A      1.944406    83A      1.954937    84A      1.959651
      85A      1.967596    86A      1.970680    87A      1.996438
      88A      2.025425    89A      2.080265    90A      2.097523
      91A      2.119158    92A      2.148570    93A      2.270855
      94A      2.293672    95A      2.311162    96A      2.317526
      97A      2.445123    98A      2.455676    99A      2.468694
     100A      2.482927   101A      2.548768   102A      2.560511
     103A      2.577686   104A      2.596652   105A      2.762508
     106A      2.764963   107A      2.795333   108A      2.800818
     109A      2.821773   110A      2.836951   111A      2.851868
     112A      2.861300   113A      2.936608   114A      2.954020
     115A      2.968316   116A      2.971875

    Final Occupation by Irrep:
              A
    DOCC [    18 ]

  @RHF Final Energy:  -158.46416347943455

   => Energetics <=

    Nuclear Repulsion Energy =            122.7145473347030986
    One-Electron Energy =                -454.5412166957758586
    Two-Electron Energy =                 173.3625058816381852
    Total Energy =                       -158.4641634794345464

Computation Completed

Properties will be evaluated at   0.000000,   0.000000,   0.000000 [a0]

Properties computed using the SCF density matrix

  Nuclear Dipole Moment: [e a0]
     X:    -0.0296      Y:     0.0469      Z:    -0.0931

  Electronic Dipole Moment: [e a0]
     X:     0.0277      Y:    -0.0369      Z:     0.0735

  Dipole Moment: [e a0]
     X:    -0.0019      Y:     0.0099      Z:    -0.0195     Total:     0.0220

  Dipole Moment: [D]
     X:    -0.0048      Y:     0.0253      Z:    -0.0497     Total:     0.0559

*** tstop() called on ds3 at Tue Apr 28 14:36:40 2020
Module time:
	user time   =       8.55 seconds =       0.14 minutes
	system time =       3.27 seconds =       0.05 minutes
	total time  =         11 seconds =       0.18 minutes
Total time:
	user time   =       8.55 seconds =       0.14 minutes
	system time =       3.27 seconds =       0.05 minutes
	total time  =         11 seconds =       0.18 minutes
                                     G D M A

                                 by Anthony Stone

                           version 2.2.06, 22 June 2011

               Distributed Multipoles from Gaussian wavefunctions

Starting at 14:36:40 on 28 Apr 2020

Using SCF density matrix from file ./SSI/SSI-186VAL-223LEU-1-dimer.test.3992.fchk

                         Distributed Multipole Analysis

Standard DMA

Positions and radii in angstrom
Multipole moments in atomic units, ea_0^k for rank k

C          x = -1.646588  y = -0.091050  z = -0.643165 angstrom
           Maximum rank =  0   Radius =  0.650 angstrom
                   Q00  =  -0.237381

C          x = -2.534588  y = -1.251050  z = -0.169165 angstrom
           Maximum rank =  0   Radius =  0.650 angstrom
                   Q00  =  -0.237489

H          x = -1.171588  y =  0.391950  z =  0.209835 angstrom
           Maximum rank =  0   Radius =  0.325 angstrom
                   Q00  =   0.077087

H          x = -0.866588  y = -0.472050  z = -1.302165 angstrom
           Maximum rank =  0   Radius =  0.325 angstrom
                   Q00  =   0.080690

H          x = -2.248588  y =  0.629950  z = -1.186165 angstrom
           Maximum rank =  0   Radius =  0.325 angstrom
                   Q00  =   0.080511

H          x = -1.914588  y = -1.995050  z =  0.329835 angstrom
           Maximum rank =  0   Radius =  0.325 angstrom
                   Q00  =   0.081070

H          x = -3.333338  y = -0.895330  z =  0.498265 angstrom
           Maximum rank =  0   Radius =  0.325 angstrom
                   Q00  =   0.080495

H          x = -3.009228  y = -1.689290  z = -1.059475 angstrom
           Maximum rank =  0   Radius =  0.325 angstrom
                   Q00  =   0.076039

C          x =  1.866412  y =  0.852950  z = -0.305165 angstrom
           Maximum rank =  0   Radius =  0.650 angstrom
                   Q00  =  -0.244505

C          x =  2.317412  y =  0.484950  z =  1.125835 angstrom
           Maximum rank =  0   Radius =  0.650 angstrom
                   Q00  =  -0.234664

H          x =  2.659412  y =  1.382950  z = -0.826165 angstrom
           Maximum rank =  0   Radius =  0.325 angstrom
                   Q00  =   0.080012

H          x =  1.642412  y = -0.062050  z = -0.853165 angstrom
           Maximum rank =  0   Radius =  0.325 angstrom
                   Q00  =   0.075426

H          x =  0.969412  y =  1.470950  z = -0.279165 angstrom
           Maximum rank =  0   Radius =  0.325 angstrom
                   Q00  =   0.083873

H          x =  1.512412  y = -0.057050  z =  1.621835 angstrom
           Maximum rank =  0   Radius =  0.325 angstrom
                   Q00  =   0.081066

H          x =  2.489542  y =  1.460130  z =  1.604785 angstrom
           Maximum rank =  0   Radius =  0.325 angstrom
                   Q00  =   0.073292

H          x =  3.239182  y = -0.115100  z =  1.142465 angstrom
           Maximum rank =  0   Radius =  0.325 angstrom
                   Q00  =   0.084477

Total multipoles referred to origin at
           x =   0.000000,  y =    0.000000,  z =    0.000000 angstrom
                   Q00  =  -0.000000

Finished at 14:36:40 on 28 Apr 2020

  DMA results are available in the Python driver through the
	  variable('DMA DISTRIBUTED MULTIPOLES')
  and
	  variable('DMA TOTAL MULTIPOLES')
  commands.

    Psi4 stopped on: Tuesday, 28 April 2020 02:36PM
    Psi4 wall time for execution: 0:00:11.52

*** Psi4 exiting successfully. Buy a developer a beer!
