                               Psi4 1.3.2 release

  ==> Input File <==

--------------------------------------------------------------------------
import numpy as np
set {scf_type pk
basis cc-pvdz
d_convergence 10
gdma_switch   0
gdma_limit    0
gdma_origin   [ 0.0,  0.0,  0.0 ]
}
molecule test {
    units Angstrom
    0 1
    --
    0 1
    C                1.103709937929865    -1.050034523793010    -0.113925493483578
    C                1.728709937929865    -1.129034523793010    -1.498925493483578
    C                0.599709937929865    -2.392034523793010     0.413074506516422
    H                1.845709937929865    -0.670034523793010     0.593074506516422
    H                0.284709937929865    -0.336034523793010    -0.148925493483578
    H                2.413709937929865    -1.982034523793010    -1.520925493483578
    H                0.033709937929865    -2.885034523793010    -0.377925493483578
    H                1.441709937929865    -3.035034523793010     0.673074506516422
    H                2.286799937929865    -0.207354523793010    -1.720365493483577
    H                0.931029937929865    -1.269929523793010    -2.243135493483578
    H               -0.078770062070135    -2.277883523793010     1.271344506516422
    C               -1.203290062070135     1.727965476206990     0.870074506516422
    C               -2.151290062070135     2.768965476206990     0.317074506516422
    H               -0.195290062070135     1.883965476206990     0.493074506516422
    H               -1.170290062070135     1.803965476206990     1.958074506516422
    H               -1.558290062070135     0.738965476206990     0.590074506516422
    H               -1.755290062070135     3.753965476206990     0.559074506516422
    H               -2.265760062070135     2.683295476206990    -0.773595493483578
    H               -3.137060062070135     2.682343476206991     0.797434506516422

}
e, wfn = energy('scf', return_wfn=True)
gdma(wfn)
dmavals = variable('DMA DISTRIBUTED MULTIPOLES')
charges = np.array(dmavals)
print(charges)
np.save('SSI-108LYS-160LEU-1-dimer.npy', np.array(charges))--------------------------------------------------------------------------

*** tstart() called on ds3
*** at Mon Apr 27 07:24:02 2020

   => Loading Basis Set <=

    Name: CC-PVDZ
    Role: ORBITAL
    Keyword: BASIS
    atoms 1-3, 12-13  entry C          line   138 file /theoryfs2/ds/metcalf/miniconda2/envs/tf2gpu/share/psi4/basis/cc-pvdz.gbs
    atoms 4-11, 14-19 entry H          line    22 file /theoryfs2/ds/metcalf/miniconda2/envs/tf2gpu/share/psi4/basis/cc-pvdz.gbs

         ---------------------------------------------------------
                                   SCF
               by Justin Turney, Rob Parrish, Andy Simmonett
                          and Daniel G. A. Smith
                              RHF Reference
                        1 Threads,    500 MiB Core
         ---------------------------------------------------------

  ==> Geometry <==

    Molecular point group: c1
    Full point group: C1

    Geometry (in Angstrom), charge = 0, multiplicity = 1:

       Center              X                  Y                   Z               Mass
    ------------   -----------------  -----------------  -----------------  -----------------
         C            1.103709937930    -1.050034523793    -0.113925493484    12.000000000000
         C            1.728709937930    -1.129034523793    -1.498925493484    12.000000000000
         C            0.599709937930    -2.392034523793     0.413074506516    12.000000000000
         H            1.845709937930    -0.670034523793     0.593074506516     1.007825032230
         H            0.284709937930    -0.336034523793    -0.148925493484     1.007825032230
         H            2.413709937930    -1.982034523793    -1.520925493484     1.007825032230
         H            0.033709937930    -2.885034523793    -0.377925493484     1.007825032230
         H            1.441709937930    -3.035034523793     0.673074506516     1.007825032230
         H            2.286799937930    -0.207354523793    -1.720365493484     1.007825032230
         H            0.931029937930    -1.269929523793    -2.243135493484     1.007825032230
         H           -0.078770062070    -2.277883523793     1.271344506516     1.007825032230
         C           -1.203290062070     1.727965476207     0.870074506516    12.000000000000
         C           -2.151290062070     2.768965476207     0.317074506516    12.000000000000
         H           -0.195290062070     1.883965476207     0.493074506516     1.007825032230
         H           -1.170290062070     1.803965476207     1.958074506516     1.007825032230
         H           -1.558290062070     0.738965476207     0.590074506516     1.007825032230
         H           -1.755290062070     3.753965476207     0.559074506516     1.007825032230
         H           -2.265760062070     2.683295476207    -0.773595493484     1.007825032230
         H           -3.137060062070     2.682343476207     0.797434506516     1.007825032230

  Running in c1 symmetry.

  Rotational constants: A =      0.22642  B =      0.03703  C =      0.03354 [cm^-1]
  Rotational constants: A =   6787.76140  B =   1110.24542  C =   1005.60040 [MHz]
  Nuclear repulsion =  176.255950681459467

  Charge       = 0
  Multiplicity = 1
  Electrons    = 44
  Nalpha       = 22
  Nbeta        = 22

  ==> Algorithm <==

  SCF Algorithm Type is PK.
  DIIS enabled.
  MOM disabled.
  Fractional occupation disabled.
  Guess Type is SAD.
  Energy threshold   = 1.00e-06
  Density threshold  = 1.00e-10
  Integral threshold = 0.00e+00

  ==> Primary Basis <==

  Basis Set: CC-PVDZ
    Blend: CC-PVDZ
    Number of shells: 72
    Number of basis function: 140
    Number of Cartesian functions: 145
    Spherical Harmonics?: true
    Max angular momentum: 2

  ==> Pre-Iterations <==

   -------------------------------------------------------
    Irrep   Nso     Nmo     Nalpha   Nbeta   Ndocc  Nsocc
   -------------------------------------------------------
     A        140     140       0       0       0       0
   -------------------------------------------------------
    Total     140     140      22      22      22       0
   -------------------------------------------------------

  ==> Integral Setup <==

  Using integral reordering PK algorithm.
  Sizing the integral batches needed.
  Building batch lookup table.
   Calculation information:
      Number of atoms:                  19
      Number of AO shells:              72
      Number of primitives:            180
      Number of atomic orbitals:       145
      Number of basis functions:       140

      Integral cutoff                 1.00e-12
      Number of threads:                 1

	Batch   1 pq = [       0,    9405] index = [             0,44231715] size =     44231715
	Batch   2 pq = [    9405,    9870] index = [      44231715,48713385] size =      4481670
  Task number: 5
  Buffer size: 11059200
  Buffer per thread: 2
  We computed 2721968 shell quartets total.
  Whereas there are 3454506 unique shell quartets.

  ==> DiskJK: Disk-Based J/K Matrices <==

    J tasked:                  Yes
    K tasked:                  Yes
    wK tasked:                  No
    Memory [MiB]:              375
    Schwarz Cutoff:          1E-12

    OpenMP threads:              1

  Minimum eigenvalue in the overlap matrix is 5.3057932147E-03.
  Using Symmetric Orthogonalization.

  SCF Guess: Superposition of Atomic Densities via on-the-fly atomic UHF.

  ==> Iterations <==

                        Total Energy        Delta E     RMS |[F,P]|

   @RHF iter SAD:  -196.40644049986147   -1.96406e+02   0.00000e+00
   @RHF iter   1:  -197.30841783463370   -9.01977e-01   3.82560e-03 DIIS
   @RHF iter   2:  -197.46993963046771   -1.61522e-01   1.65331e-03 DIIS
   @RHF iter   3:  -197.49876864880565   -2.88290e-02   3.27915e-04 DIIS
   @RHF iter   4:  -197.50102545544303   -2.25681e-03   4.90269e-05 DIIS
   @RHF iter   5:  -197.50106556545794   -4.01100e-05   1.49059e-05 DIIS
   @RHF iter   6:  -197.50106899710445   -3.43165e-06   2.52671e-06 DIIS
   @RHF iter   7:  -197.50106911083955   -1.13735e-07   4.86143e-07 DIIS
   @RHF iter   8:  -197.50106911581287   -4.97332e-09   1.30007e-07 DIIS
   @RHF iter   9:  -197.50106911615075   -3.37877e-10   4.08234e-08 DIIS
   @RHF iter  10:  -197.50106911618869   -3.79430e-11   8.34356e-09 DIIS
   @RHF iter  11:  -197.50106911619145   -2.75691e-12   1.52936e-09 DIIS
   @RHF iter  12:  -197.50106911619213   -6.82121e-13   2.71302e-10 DIIS
   @RHF iter  13:  -197.50106911619153    5.96856e-13   5.36931e-11 DIIS
  Energy and wave function converged.

  ==> Post-Iterations <==

    Orbital Energies [Eh]
    ---------------------

    Doubly Occupied:

       1A    -11.218301     2A    -11.216885     3A    -11.216032
       4A    -11.215492     5A    -11.214903     6A     -1.053320
       7A     -1.023304     8A     -0.923181     9A     -0.837275
      10A     -0.793808    11A     -0.626812    12A     -0.602371
      13A     -0.599577    14A     -0.594245    15A     -0.544623
      16A     -0.532909    17A     -0.506918    18A     -0.488532
      19A     -0.484256    20A     -0.473663    21A     -0.462763
      22A     -0.461379

    Virtual:

      23A      0.172416    24A      0.194786    25A      0.216615
      26A      0.224781    27A      0.237160    28A      0.251144
      29A      0.260485    30A      0.264714    31A      0.270082
      32A      0.283814    33A      0.288199    34A      0.301433
      35A      0.307136    36A      0.342998    37A      0.375784
      38A      0.398462    39A      0.432733    40A      0.580002
      41A      0.583355    42A      0.600463    43A      0.605944
      44A      0.611609    45A      0.621993    46A      0.628261
      47A      0.666016    48A      0.681714    49A      0.754687
      50A      0.805719    51A      0.816576    52A      0.846646
      53A      0.866056    54A      0.879379    55A      0.888896
      56A      0.890632    57A      0.892796    58A      0.897227
      59A      0.904950    60A      0.906035    61A      0.908559
      62A      0.915827    63A      0.924383    64A      0.930001
      65A      0.943841    66A      0.968561    67A      0.978970
      68A      1.006708    69A      1.114860    70A      1.123242
      71A      1.133019    72A      1.167596    73A      1.229607
      74A      1.290207    75A      1.383910    76A      1.468023
      77A      1.471386    78A      1.479209    79A      1.487407
      80A      1.543293    81A      1.570991    82A      1.639205
      83A      1.663134    84A      1.682658    85A      1.687520
      86A      1.695392    87A      1.722824    88A      1.854415
      89A      1.856444    90A      1.869588    91A      1.875152
      92A      1.884738    93A      1.902698    94A      1.919630
      95A      1.929067    96A      1.939658    97A      1.943947
      98A      1.953470    99A      1.956810   100A      1.967774
     101A      1.971072   102A      1.979459   103A      1.989218
     104A      1.990149   105A      2.025460   106A      2.037084
     107A      2.051838   108A      2.093101   109A      2.120554
     110A      2.150723   111A      2.182004   112A      2.276978
     113A      2.290434   114A      2.301741   115A      2.310009
     116A      2.327204   117A      2.350855   118A      2.452619
     119A      2.477657   120A      2.496404   121A      2.532073
     122A      2.561857   123A      2.578934   124A      2.583335
     125A      2.613970   126A      2.651975   127A      2.752708
     128A      2.759681   129A      2.760095   130A      2.783226
     131A      2.791825   132A      2.821660   133A      2.858976
     134A      2.861722   135A      2.916310   136A      2.945861
     137A      2.956763   138A      2.962331   139A      2.972642
     140A      3.094352

    Final Occupation by Irrep:
              A
    DOCC [    22 ]

  @RHF Final Energy:  -197.50106911619153

   => Energetics <=

    Nuclear Repulsion Energy =            176.2559506814594670
    One-Electron Energy =                -613.3329432864784394
    Two-Electron Energy =                 239.5759234888274420
    Total Energy =                       -197.5010691161915304

Computation Completed

Properties will be evaluated at   0.000000,   0.000000,   0.000000 [a0]

Properties computed using the SCF density matrix

  Nuclear Dipole Moment: [e a0]
     X:    -0.8656      Y:     0.8279      Z:     0.1410

  Electronic Dipole Moment: [e a0]
     X:     0.8479      Y:    -0.7738      Z:    -0.1077

  Dipole Moment: [e a0]
     X:    -0.0177      Y:     0.0541      Z:     0.0333     Total:     0.0660

  Dipole Moment: [D]
     X:    -0.0451      Y:     0.1376      Z:     0.0846     Total:     0.1677

*** tstop() called on ds3 at Mon Apr 27 07:24:23 2020
Module time:
	user time   =      15.15 seconds =       0.25 minutes
	system time =       6.91 seconds =       0.12 minutes
	total time  =         21 seconds =       0.35 minutes
Total time:
	user time   =      15.15 seconds =       0.25 minutes
	system time =       6.91 seconds =       0.12 minutes
	total time  =         21 seconds =       0.35 minutes
                                     G D M A

                                 by Anthony Stone

                           version 2.2.06, 22 June 2011

               Distributed Multipoles from Gaussian wavefunctions

Starting at 7:24:23 on 27 Apr 2020

Using SCF density matrix from file ./SSI/SSI-108LYS-160LEU-1-dimer.test.6051.fchk

                         Distributed Multipole Analysis

Standard DMA

Positions and radii in angstrom
Multipole moments in atomic units, ea_0^k for rank k

C          x =  1.103710  y = -1.050035  z = -0.113925 angstrom
           Maximum rank =  0   Radius =  0.650 angstrom
                   Q00  =  -0.085854

C          x =  1.728710  y = -1.129035  z = -1.498925 angstrom
           Maximum rank =  0   Radius =  0.650 angstrom
                   Q00  =  -0.229909

C          x =  0.599710  y = -2.392035  z =  0.413075 angstrom
           Maximum rank =  0   Radius =  0.650 angstrom
                   Q00  =  -0.248039

H          x =  1.845710  y = -0.670035  z =  0.593075 angstrom
           Maximum rank =  0   Radius =  0.325 angstrom
                   Q00  =   0.040237

H          x =  0.284710  y = -0.336035  z = -0.148925 angstrom
           Maximum rank =  0   Radius =  0.325 angstrom
                   Q00  =   0.056462

H          x =  2.413710  y = -1.982035  z = -1.520925 angstrom
           Maximum rank =  0   Radius =  0.325 angstrom
                   Q00  =   0.072960

H          x =  0.033710  y = -2.885035  z = -0.377925 angstrom
           Maximum rank =  0   Radius =  0.325 angstrom
                   Q00  =   0.069902

H          x =  1.441710  y = -3.035035  z =  0.673075 angstrom
           Maximum rank =  0   Radius =  0.325 angstrom
                   Q00  =   0.079618

H          x =  2.286800  y = -0.207355  z = -1.720365 angstrom
           Maximum rank =  0   Radius =  0.325 angstrom
                   Q00  =   0.083416

H          x =  0.931030  y = -1.269930  z = -2.243135 angstrom
           Maximum rank =  0   Radius =  0.325 angstrom
                   Q00  =   0.075381

H          x = -0.078770  y = -2.277884  z =  1.271345 angstrom
           Maximum rank =  0   Radius =  0.325 angstrom
                   Q00  =   0.084708

C          x = -1.203290  y =  1.727965  z =  0.870075 angstrom
           Maximum rank =  0   Radius =  0.650 angstrom
                   Q00  =  -0.238498

C          x = -2.151290  y =  2.768965  z =  0.317075 angstrom
           Maximum rank =  0   Radius =  0.650 angstrom
                   Q00  =  -0.223505

H          x = -0.195290  y =  1.883965  z =  0.493075 angstrom
           Maximum rank =  0   Radius =  0.325 angstrom
                   Q00  =   0.078331

H          x = -1.170290  y =  1.803965  z =  1.958075 angstrom
           Maximum rank =  0   Radius =  0.325 angstrom
                   Q00  =   0.079269

H          x = -1.558290  y =  0.738965  z =  0.590075 angstrom
           Maximum rank =  0   Radius =  0.325 angstrom
                   Q00  =   0.074509

H          x = -1.755290  y =  3.753965  z =  0.559075 angstrom
           Maximum rank =  0   Radius =  0.325 angstrom
                   Q00  =   0.075991

H          x = -2.265760  y =  2.683295  z = -0.773595 angstrom
           Maximum rank =  0   Radius =  0.325 angstrom
                   Q00  =   0.078079

H          x = -3.137060  y =  2.682343  z =  0.797435 angstrom
           Maximum rank =  0   Radius =  0.325 angstrom
                   Q00  =   0.076940

Total multipoles referred to origin at
           x =   0.000000,  y =    0.000000,  z =    0.000000 angstrom
                   Q00  =  -0.000000

Finished at 7:24:23 on 27 Apr 2020

  DMA results are available in the Python driver through the
	  variable('DMA DISTRIBUTED MULTIPOLES')
  and
	  variable('DMA TOTAL MULTIPOLES')
  commands.

    Psi4 stopped on: Monday, 27 April 2020 07:24AM
    Psi4 wall time for execution: 0:00:21.69

*** Psi4 exiting successfully. Buy a developer a beer!
