                               Psi4 1.3.2 release

  ==> Input File <==

--------------------------------------------------------------------------
import numpy as np
set {scf_type pk
basis cc-pvdz
d_convergence 10
gdma_switch   0
gdma_limit    0
gdma_origin   [ 0.0,  0.0,  0.0 ]
}
molecule test {
    units Angstrom
    -1 1
    --
    -1 1
    C                1.900998034423814     0.444901303492810    -1.557510053999391
    C                1.261998034423814    -0.543098696507190    -2.525510053999390
    C                2.205998034423814    -0.216098696507190    -0.222510053999390
    O                2.443998034423814    -1.444098696507190    -0.201510053999390
    O                2.199998034423814     0.487901303492810     0.810489946000610
    H                2.828998034423814     0.830901303492810    -1.985510053999390
    H                1.223998034423814     1.280901303492810    -1.395510053999391
    H                0.392998034423814    -0.979098696507190    -2.048510053999391
    H                1.968998034423814    -1.348098696507190    -2.730510053999391
    H                0.935843034423814    -0.124064696507190    -3.488860053999391
    C               -1.614001965576186     0.888901303492810    -0.062510053999390
    C               -2.912001965576186     1.170901303492810    -0.807510053999390
    C               -1.822001965576186     0.010901303492810     1.155489946000610
    O               -2.945001965576186    -0.356098696507190     1.495489946000609
    N               -0.733001965576186    -0.340098696507190     1.825489946000610
    H               -0.912001965576186     0.408901303492810    -0.738510053999390
    H               -1.171001965576186     1.828901303492810     0.269489946000610
    H               -3.587001965576186     1.721901303492810    -0.150510053999390
    H               -3.380001965576186     0.217901303492810    -1.063510053999391
    H               -0.836001965576186    -0.919098696507190     2.644489946000609
    H                0.183998034423814    -0.018098696507190     1.529489946000609
    H               -2.771580965576186     1.738346303492810    -1.739330053999391

}
e, wfn = energy('scf', return_wfn=True)
gdma(wfn)
dmavals = variable('DMA DISTRIBUTED MULTIPOLES')
charges = np.array(dmavals)
print(charges)
np.save('SSI-040GLU-045GLN-1-dimer.npy', np.array(charges))--------------------------------------------------------------------------

*** tstart() called on ds3
*** at Mon Apr 27 19:54:15 2020

   => Loading Basis Set <=

    Name: CC-PVDZ
    Role: ORBITAL
    Keyword: BASIS
    atoms 1-3, 11-13  entry C          line   138 file /theoryfs2/ds/metcalf/miniconda2/envs/tf2gpu/share/psi4/basis/cc-pvdz.gbs
    atoms 4-5, 14     entry O          line   198 file /theoryfs2/ds/metcalf/miniconda2/envs/tf2gpu/share/psi4/basis/cc-pvdz.gbs
    atoms 6-10, 16-22 entry H          line    22 file /theoryfs2/ds/metcalf/miniconda2/envs/tf2gpu/share/psi4/basis/cc-pvdz.gbs
    atoms 15          entry N          line   168 file /theoryfs2/ds/metcalf/miniconda2/envs/tf2gpu/share/psi4/basis/cc-pvdz.gbs

         ---------------------------------------------------------
                                   SCF
               by Justin Turney, Rob Parrish, Andy Simmonett
                          and Daniel G. A. Smith
                              RHF Reference
                        1 Threads,    500 MiB Core
         ---------------------------------------------------------

  ==> Geometry <==

    Molecular point group: c1
    Full point group: C1

    Geometry (in Angstrom), charge = -1, multiplicity = 1:

       Center              X                  Y                   Z               Mass
    ------------   -----------------  -----------------  -----------------  -----------------
         C            1.900998034424     0.444901303493    -1.557510053999    12.000000000000
         C            1.261998034424    -0.543098696507    -2.525510053999    12.000000000000
         C            2.205998034424    -0.216098696507    -0.222510053999    12.000000000000
         O            2.443998034424    -1.444098696507    -0.201510053999    15.994914619570
         O            2.199998034424     0.487901303493     0.810489946001    15.994914619570
         H            2.828998034424     0.830901303493    -1.985510053999     1.007825032230
         H            1.223998034424     1.280901303493    -1.395510053999     1.007825032230
         H            0.392998034424    -0.979098696507    -2.048510053999     1.007825032230
         H            1.968998034424    -1.348098696507    -2.730510053999     1.007825032230
         H            0.935843034424    -0.124064696507    -3.488860053999     1.007825032230
         C           -1.614001965576     0.888901303493    -0.062510053999    12.000000000000
         C           -2.912001965576     1.170901303493    -0.807510053999    12.000000000000
         C           -1.822001965576     0.010901303493     1.155489946001    12.000000000000
         O           -2.945001965576    -0.356098696507     1.495489946001    15.994914619570
         N           -0.733001965576    -0.340098696507     1.825489946001    14.003074004430
         H           -0.912001965576     0.408901303493    -0.738510053999     1.007825032230
         H           -1.171001965576     1.828901303493     0.269489946001     1.007825032230
         H           -3.587001965576     1.721901303493    -0.150510053999     1.007825032230
         H           -3.380001965576     0.217901303493    -1.063510053999     1.007825032230
         H           -0.836001965576    -0.919098696507     2.644489946001     1.007825032230
         H            0.183998034424    -0.018098696507     1.529489946001     1.007825032230
         H           -2.771580965576     1.738346303493    -1.739330053999     1.007825032230

  Running in c1 symmetry.

  Rotational constants: A =      0.05758  B =      0.02127  C =      0.01768 [cm^-1]
  Rotational constants: A =   1726.30256  B =    637.75179  C =    529.95670 [MHz]
  Nuclear repulsion =  530.654867759925196

  Charge       = -1
  Multiplicity = 1
  Electrons    = 80
  Nalpha       = 40
  Nbeta        = 40

  ==> Algorithm <==

  SCF Algorithm Type is PK.
  DIIS enabled.
  MOM disabled.
  Fractional occupation disabled.
  Guess Type is SAD.
  Energy threshold   = 1.00e-06
  Density threshold  = 1.00e-10
  Integral threshold = 0.00e+00

  ==> Primary Basis <==

  Basis Set: CC-PVDZ
    Blend: CC-PVDZ
    Number of shells: 96
    Number of basis function: 200
    Number of Cartesian functions: 210
    Spherical Harmonics?: true
    Max angular momentum: 2

  ==> Pre-Iterations <==

   -------------------------------------------------------
    Irrep   Nso     Nmo     Nalpha   Nbeta   Ndocc  Nsocc
   -------------------------------------------------------
     A        200     200       0       0       0       0
   -------------------------------------------------------
    Total     200     200      40      40      40       0
   -------------------------------------------------------

  ==> Integral Setup <==

  Using integral reordering PK algorithm.
  Sizing the integral batches needed.
  Building batch lookup table.
   Calculation information:
      Number of atoms:                  22
      Number of AO shells:              96
      Number of primitives:            280
      Number of atomic orbitals:       210
      Number of basis functions:       200

      Integral cutoff                 1.00e-12
      Number of threads:                 1

	Batch   1 pq = [       0,    9405] index = [             0,44231715] size =     44231715
	Batch   2 pq = [    9405,   13301] index = [      44231715,88464951] size =     44233236
	Batch   3 pq = [   13301,   16290] index = [      88464951,132690195] size =     44225244
	Batch   4 pq = [   16290,   18810] index = [     132690195,176917455] size =     44227260
	Batch   5 pq = [   18810,   20100] index = [     176917455,202015050] size =     25097595
  Task number: 19
  Buffer size: 11059200
  Buffer per thread: 2
  We computed 9788044 shell quartets total.
  Whereas there are 10841496 unique shell quartets.

  ==> DiskJK: Disk-Based J/K Matrices <==

    J tasked:                  Yes
    K tasked:                  Yes
    wK tasked:                  No
    Memory [MiB]:              375
    Schwarz Cutoff:          1E-12

    OpenMP threads:              1

  Minimum eigenvalue in the overlap matrix is 2.9462207506E-03.
  Using Symmetric Orthogonalization.

  SCF Guess: Superposition of Atomic Densities via on-the-fly atomic UHF.

  ==> Iterations <==

                        Total Energy        Delta E     RMS |[F,P]|

   @RHF iter SAD:  -511.53272472752184   -5.11533e+02   0.00000e+00
   @RHF iter   1:  -512.96519213269971   -1.43247e+00   4.34451e-03 DIIS
   @RHF iter   2:  -513.24159193436435   -2.76400e-01   2.49715e-03 DIIS
   @RHF iter   3:  -513.33196262520653   -9.03707e-02   4.14000e-04 DIIS
   @RHF iter   4:  -513.33622441905857   -4.26179e-03   1.71148e-04 DIIS
   @RHF iter   5:  -513.33696609647495   -7.41677e-04   2.98647e-05 DIIS
   @RHF iter   6:  -513.33699822574488   -3.21293e-05   1.54621e-05 DIIS
   @RHF iter   7:  -513.33700467927463   -6.45353e-06   4.22685e-06 DIIS
   @RHF iter   8:  -513.33700576023853   -1.08096e-06   1.85182e-06 DIIS
   @RHF iter   9:  -513.33700594837865   -1.88140e-07   6.98949e-07 DIIS
   @RHF iter  10:  -513.33700597253960   -2.41610e-08   2.03476e-07 DIIS
   @RHF iter  11:  -513.33700597406948   -1.52988e-09   7.79931e-08 DIIS
   @RHF iter  12:  -513.33700597423262   -1.63141e-10   2.28212e-08 DIIS
   @RHF iter  13:  -513.33700597425286   -2.02363e-11   6.97640e-09 DIIS
   @RHF iter  14:  -513.33700597425320   -3.41061e-13   2.19239e-09 DIIS
   @RHF iter  15:  -513.33700597425411   -9.09495e-13   8.38881e-10 DIIS
   @RHF iter  16:  -513.33700597425172    2.38742e-12   3.45341e-10 DIIS
   @RHF iter  17:  -513.33700597425513   -3.41061e-12   1.20781e-10 DIIS
   @RHF iter  18:  -513.33700597425525   -1.13687e-13   4.42235e-11 DIIS
  Energy and wave function converged.

  ==> Post-Iterations <==

    Orbital Energies [Eh]
    ---------------------

    Doubly Occupied:

       1A    -20.384719     2A    -20.288989     3A    -20.284629
       4A    -15.445038     5A    -11.221572     6A    -11.138808
       7A    -11.121354     8A    -11.119617     9A    -11.082565
      10A    -11.071553    11A     -1.247895    12A     -1.178032
      13A     -1.079162    14A     -1.063014    15A     -0.935137
      16A     -0.888503    17A     -0.775358    18A     -0.719952
      19A     -0.650586    20A     -0.585167    21A     -0.545361
      22A     -0.528567    23A     -0.523776    24A     -0.477381
      25A     -0.468968    26A     -0.454041    27A     -0.431108
      28A     -0.415023    29A     -0.412136    30A     -0.392292
      31A     -0.383725    32A     -0.379571    33A     -0.371436
      34A     -0.341972    35A     -0.323881    36A     -0.291693
      37A     -0.273660    38A     -0.207977    39A     -0.198319
      40A     -0.188452

    Virtual:

      41A      0.287000    42A      0.316397    43A      0.323468
      44A      0.334261    45A      0.348511    46A      0.356496
      47A      0.364900    48A      0.371615    49A      0.387803
      50A      0.403742    51A      0.420756    52A      0.443816
      53A      0.473981    54A      0.481311    55A      0.504331
      56A      0.543765    57A      0.554523    58A      0.585778
      59A      0.595382    60A      0.665641    61A      0.688564
      62A      0.710125    63A      0.735901    64A      0.745786
      65A      0.762918    66A      0.784108    67A      0.802144
      68A      0.821581    69A      0.864611    70A      0.882763
      71A      0.904227    72A      0.932743    73A      0.936738
      74A      0.948461    75A      0.956766    76A      0.981187
      77A      0.988253    78A      0.991371    79A      0.995877
      80A      1.003786    81A      1.008125    82A      1.019574
      83A      1.026526    84A      1.031952    85A      1.042246
      86A      1.048699    87A      1.066023    88A      1.082224
      89A      1.094014    90A      1.107738    91A      1.112107
      92A      1.145178    93A      1.181076    94A      1.213285
      95A      1.229807    96A      1.237236    97A      1.267225
      98A      1.276565    99A      1.315930   100A      1.328913
     101A      1.383431   102A      1.398206   103A      1.429823
     104A      1.456376   105A      1.483606   106A      1.488112
     107A      1.507534   108A      1.531688   109A      1.540856
     110A      1.561211   111A      1.567627   112A      1.599063
     113A      1.614581   114A      1.635338   115A      1.658425
     116A      1.664871   117A      1.692488   118A      1.732451
     119A      1.772239   120A      1.787421   121A      1.797197
     122A      1.845386   123A      1.865737   124A      1.877508
     125A      1.898609   126A      1.917358   127A      1.954581
     128A      1.982337   129A      1.990780   130A      2.004320
     131A      2.026273   132A      2.028755   133A      2.042787
     134A      2.065055   135A      2.079803   136A      2.093507
     137A      2.101808   138A      2.113178   139A      2.118387
     140A      2.131077   141A      2.136882   142A      2.151385
     143A      2.159306   144A      2.168635   145A      2.180139
     146A      2.194703   147A      2.212034   148A      2.252129
     149A      2.297844   150A      2.301295   151A      2.346400
     152A      2.352801   153A      2.392761   154A      2.426867
     155A      2.449511   156A      2.454898   157A      2.458461
     158A      2.497866   159A      2.545709   160A      2.546414
     161A      2.557696   162A      2.607830   163A      2.645003
     164A      2.663127   165A      2.707036   166A      2.708347
     167A      2.712406   168A      2.746762   169A      2.751138
     170A      2.788066   171A      2.809376   172A      2.859463
     173A      2.876637   174A      2.914830   175A      2.949064
     176A      2.984114   177A      3.009250   178A      3.013883
     179A      3.021969   180A      3.063927   181A      3.097802
     182A      3.130324   183A      3.172202   184A      3.222033
     185A      3.229132   186A      3.264949   187A      3.279394
     188A      3.285901   189A      3.345674   190A      3.459563
     191A      3.619053   192A      3.634141   193A      3.670731
     194A      3.760891   195A      3.808875   196A      3.982047
     197A      4.026106   198A      4.051855   199A      4.066342
     200A      4.182268

    Final Occupation by Irrep:
              A
    DOCC [    40 ]

  @RHF Final Energy:  -513.33700597425525

   => Energetics <=

    Nuclear Repulsion Energy =            530.6548677599251960
    One-Electron Energy =               -1768.2017682456164493
    Two-Electron Energy =                 724.2098945114361186
    Total Energy =                       -513.3370059742552485

Computation Completed

Properties will be evaluated at   0.000000,   0.000000,   0.000000 [a0]

Properties computed using the SCF density matrix

  Nuclear Dipole Moment: [e a0]
     X:    -4.7921      Y:     4.3439      Z:   -10.2111

  Electronic Dipole Moment: [e a0]
     X:     2.8356      Y:    -3.1282      Z:     9.2764

  Dipole Moment: [e a0]
     X:    -1.9565      Y:     1.2157      Z:    -0.9347     Total:     2.4859

  Dipole Moment: [D]
     X:    -4.9729      Y:     3.0900      Z:    -2.3758     Total:     6.3184

*** tstop() called on ds3 at Mon Apr 27 19:55:54 2020
Module time:
	user time   =      71.43 seconds =       1.19 minutes
	system time =      31.69 seconds =       0.53 minutes
	total time  =         99 seconds =       1.65 minutes
Total time:
	user time   =      71.43 seconds =       1.19 minutes
	system time =      31.69 seconds =       0.53 minutes
	total time  =         99 seconds =       1.65 minutes
                                     G D M A

                                 by Anthony Stone

                           version 2.2.06, 22 June 2011

               Distributed Multipoles from Gaussian wavefunctions

Starting at 19:55:54 on 27 Apr 2020

Using SCF density matrix from file ./SSI/SSI-040GLU-045GLN-1-dimer.test.10109.fchk

                         Distributed Multipole Analysis

Standard DMA

Positions and radii in angstrom
Multipole moments in atomic units, ea_0^k for rank k

C          x =  1.900998  y =  0.444901  z = -1.557510 angstrom
           Maximum rank =  0   Radius =  0.650 angstrom
                   Q00  =  -0.151639

C          x =  1.261998  y = -0.543099  z = -2.525510 angstrom
           Maximum rank =  0   Radius =  0.650 angstrom
                   Q00  =  -0.223199

C          x =  2.205998  y = -0.216099  z = -0.222510 angstrom
           Maximum rank =  0   Radius =  0.650 angstrom
                   Q00  =   0.995320

O          x =  2.443998  y = -1.444099  z = -0.201510 angstrom
           Maximum rank =  0   Radius =  0.650 angstrom
                   Q00  =  -0.940479

O          x =  2.199998  y =  0.487901  z =  0.810490 angstrom
           Maximum rank =  0   Radius =  0.650 angstrom
                   Q00  =  -0.943679

H          x =  2.828998  y =  0.830901  z = -1.985510 angstrom
           Maximum rank =  0   Radius =  0.325 angstrom
                   Q00  =   0.065660

H          x =  1.223998  y =  1.280901  z = -1.395510 angstrom
           Maximum rank =  0   Radius =  0.325 angstrom
                   Q00  =   0.029805

H          x =  0.392998  y = -0.979099  z = -2.048510 angstrom
           Maximum rank =  0   Radius =  0.325 angstrom
                   Q00  =   0.073795

H          x =  1.968998  y = -1.348099  z = -2.730510 angstrom
           Maximum rank =  0   Radius =  0.325 angstrom
                   Q00  =   0.093988

H          x =  0.935843  y = -0.124065  z = -3.488860 angstrom
           Maximum rank =  0   Radius =  0.325 angstrom
                   Q00  =   0.022841

C          x = -1.614002  y =  0.888901  z = -0.062510 angstrom
           Maximum rank =  0   Radius =  0.650 angstrom
                   Q00  =  -0.169630

C          x = -2.912002  y =  1.170901  z = -0.807510 angstrom
           Maximum rank =  0   Radius =  0.650 angstrom
                   Q00  =  -0.220970

C          x = -1.822002  y =  0.010901  z =  1.155490 angstrom
           Maximum rank =  0   Radius =  0.650 angstrom
                   Q00  =   0.909366

O          x = -2.945002  y = -0.356099  z =  1.495490 angstrom
           Maximum rank =  0   Radius =  0.650 angstrom
                   Q00  =  -0.865809

N          x = -0.733002  y = -0.340099  z =  1.825490 angstrom
           Maximum rank =  0   Radius =  0.650 angstrom
                   Q00  =  -0.568835

H          x = -0.912002  y =  0.408901  z = -0.738510 angstrom
           Maximum rank =  0   Radius =  0.325 angstrom
                   Q00  =   0.104847

H          x = -1.171002  y =  1.828901  z =  0.269490 angstrom
           Maximum rank =  0   Radius =  0.325 angstrom
                   Q00  =   0.089898

H          x = -3.587002  y =  1.721901  z = -0.150510 angstrom
           Maximum rank =  0   Radius =  0.325 angstrom
                   Q00  =   0.086253

H          x = -3.380002  y =  0.217901  z = -1.063510 angstrom
           Maximum rank =  0   Radius =  0.325 angstrom
                   Q00  =   0.094021

H          x = -0.836002  y = -0.919099  z =  2.644490 angstrom
           Maximum rank =  0   Radius =  0.325 angstrom
                   Q00  =   0.196868

H          x =  0.183998  y = -0.018099  z =  1.529490 angstrom
           Maximum rank =  0   Radius =  0.325 angstrom
                   Q00  =   0.258744

H          x = -2.771581  y =  1.738346  z = -1.739330 angstrom
           Maximum rank =  0   Radius =  0.325 angstrom
                   Q00  =   0.062832

Total multipoles referred to origin at
           x =   0.000000,  y =    0.000000,  z =    0.000000 angstrom
                   Q00  =  -1.000000

Finished at 19:55:54 on 27 Apr 2020

  DMA results are available in the Python driver through the
	  variable('DMA DISTRIBUTED MULTIPOLES')
  and
	  variable('DMA TOTAL MULTIPOLES')
  commands.

    Psi4 stopped on: Monday, 27 April 2020 07:55PM
    Psi4 wall time for execution: 0:01:39.70

*** Psi4 exiting successfully. Buy a developer a beer!
