                               Psi4 1.3.2 release

  ==> Input File <==

--------------------------------------------------------------------------
import numpy as np
set {scf_type pk
basis cc-pvdz
d_convergence 10
gdma_switch   0
gdma_limit    0
gdma_origin   [ 0.0,  0.0,  0.0 ]
}
molecule test {
    units Angstrom
    0 1
    --
    0 1
    C                0.582676562679542     2.205578552412210     1.080866537620711
    C                0.752676562679542     2.436578552412210    -0.404133462379289
    C                1.738676562679542     2.966578552412210     1.710866537620711
    H                0.619676562679542     1.144578552412210     1.327866537620711
    H               -0.362323437320458     2.639578552412210     1.410866537620711
    H                1.362676562679542     1.646578552412210    -0.835133462379289
    H               -0.223323437320458     2.460578552412210    -0.886133462379289
    H                2.640676562679542     2.361578552412210     1.644866537620711
    H                1.530676562679542     3.229578552412210     2.748866537620712
    H                1.262626562679542     3.409448552412210    -0.463117462379289
    H                1.838756562679542     3.858658552412210     1.075110537620712
    C               -0.815323437320458    -2.097421447587790     2.389866537620712
    C               -1.582323437320458    -0.735421447587790     0.416866537620711
    C               -0.612323437320458    -1.541421447587790     1.001866537620711
    C               -1.423323437320458    -0.252421447587790    -0.882133462379289
    C                0.534676562679542    -1.843421447587790     0.270866537620711
    C               -0.264323437320458    -0.541421447587790    -1.596133462379289
    C                0.717676562679542    -1.325421447587790    -1.009133462379289
    O               -0.052323437320458    -0.076421447587790    -2.863133462379288
    H               -2.482323437320458    -0.491421447587790     0.966866537620711
    H               -2.181323437320458     0.366578552412210    -1.337133462379289
    H               -1.711323437320458    -1.660421447587790     2.833866537620712
    H                0.037676562679542    -1.781421447587790     2.991866537620711
    H                1.306676562679542    -2.456421447587790     0.715866537620711
    H                1.632676562679542    -1.545421447587790    -1.539133462379289
    H                0.874676562679542    -0.104421447587790    -3.115133462379288
    H               -0.895543437320458    -3.194039447587790     2.421382537620711

}
e, wfn = energy('scf', return_wfn=True)
gdma(wfn)
dmavals = variable('DMA DISTRIBUTED MULTIPOLES')
charges = np.array(dmavals)
print(charges)
np.save('SSI-004PRO-096TYR-1-dimer.npy', np.array(charges))--------------------------------------------------------------------------

*** tstart() called on ds3
*** at Sun Apr 26 22:09:52 2020

   => Loading Basis Set <=

    Name: CC-PVDZ
    Role: ORBITAL
    Keyword: BASIS
    atoms 1-3, 12-18  entry C          line   138 file /theoryfs2/ds/metcalf/miniconda2/envs/tf2gpu/share/psi4/basis/cc-pvdz.gbs
    atoms 4-11, 20-27 entry H          line    22 file /theoryfs2/ds/metcalf/miniconda2/envs/tf2gpu/share/psi4/basis/cc-pvdz.gbs
    atoms 19          entry O          line   198 file /theoryfs2/ds/metcalf/miniconda2/envs/tf2gpu/share/psi4/basis/cc-pvdz.gbs

         ---------------------------------------------------------
                                   SCF
               by Justin Turney, Rob Parrish, Andy Simmonett
                          and Daniel G. A. Smith
                              RHF Reference
                        1 Threads,    500 MiB Core
         ---------------------------------------------------------

  ==> Geometry <==

    Molecular point group: c1
    Full point group: C1

    Geometry (in Angstrom), charge = 0, multiplicity = 1:

       Center              X                  Y                   Z               Mass
    ------------   -----------------  -----------------  -----------------  -----------------
         C            0.582676562680     2.205578552412     1.080866537621    12.000000000000
         C            0.752676562680     2.436578552412    -0.404133462379    12.000000000000
         C            1.738676562680     2.966578552412     1.710866537621    12.000000000000
         H            0.619676562680     1.144578552412     1.327866537621     1.007825032230
         H           -0.362323437320     2.639578552412     1.410866537621     1.007825032230
         H            1.362676562680     1.646578552412    -0.835133462379     1.007825032230
         H           -0.223323437320     2.460578552412    -0.886133462379     1.007825032230
         H            2.640676562680     2.361578552412     1.644866537621     1.007825032230
         H            1.530676562680     3.229578552412     2.748866537621     1.007825032230
         H            1.262626562680     3.409448552412    -0.463117462379     1.007825032230
         H            1.838756562680     3.858658552412     1.075110537621     1.007825032230
         C           -0.815323437320    -2.097421447588     2.389866537621    12.000000000000
         C           -1.582323437320    -0.735421447588     0.416866537621    12.000000000000
         C           -0.612323437320    -1.541421447588     1.001866537621    12.000000000000
         C           -1.423323437320    -0.252421447588    -0.882133462379    12.000000000000
         C            0.534676562680    -1.843421447588     0.270866537621    12.000000000000
         C           -0.264323437320    -0.541421447588    -1.596133462379    12.000000000000
         C            0.717676562680    -1.325421447588    -1.009133462379    12.000000000000
         O           -0.052323437320    -0.076421447588    -2.863133462379    15.994914619570
         H           -2.482323437320    -0.491421447588     0.966866537621     1.007825032230
         H           -2.181323437320     0.366578552412    -1.337133462379     1.007825032230
         H           -1.711323437320    -1.660421447588     2.833866537621     1.007825032230
         H            0.037676562680    -1.781421447588     2.991866537621     1.007825032230
         H            1.306676562680    -2.456421447588     0.715866537621     1.007825032230
         H            1.632676562680    -1.545421447588    -1.539133462379     1.007825032230
         H            0.874676562680    -0.104421447588    -3.115133462379     1.007825032230
         H           -0.895543437320    -3.194039447588     2.421382537621     1.007825032230

  Running in c1 symmetry.

  Rotational constants: A =      0.03596  B =      0.02637  C =      0.01853 [cm^-1]
  Rotational constants: A =   1077.95241  B =    790.41418  C =    555.45213 [MHz]
  Nuclear repulsion =  605.566831846582318

  Charge       = 0
  Multiplicity = 1
  Electrons    = 84
  Nalpha       = 42
  Nbeta        = 42

  ==> Algorithm <==

  SCF Algorithm Type is PK.
  DIIS enabled.
  MOM disabled.
  Fractional occupation disabled.
  Guess Type is SAD.
  Energy threshold   = 1.00e-06
  Density threshold  = 1.00e-10
  Integral threshold = 0.00e+00

  ==> Primary Basis <==

  Basis Set: CC-PVDZ
    Blend: CC-PVDZ
    Number of shells: 114
    Number of basis function: 234
    Number of Cartesian functions: 245
    Spherical Harmonics?: true
    Max angular momentum: 2

  ==> Pre-Iterations <==

   -------------------------------------------------------
    Irrep   Nso     Nmo     Nalpha   Nbeta   Ndocc  Nsocc
   -------------------------------------------------------
     A        234     234       0       0       0       0
   -------------------------------------------------------
    Total     234     234      42      42      42       0
   -------------------------------------------------------

  ==> Integral Setup <==

  Using integral reordering PK algorithm.
  Sizing the integral batches needed.
  Building batch lookup table.
   Calculation information:
      Number of atoms:                  27
      Number of AO shells:             114
      Number of primitives:            322
      Number of atomic orbitals:       245
      Number of basis functions:       234

      Integral cutoff                 1.00e-12
      Number of threads:                 1

	Batch   1 pq = [       0,    9405] index = [             0,44231715] size =     44231715
	Batch   2 pq = [    9405,   13301] index = [      44231715,88464951] size =     44233236
	Batch   3 pq = [   13301,   16290] index = [      88464951,132690195] size =     44225244
	Batch   4 pq = [   16290,   18810] index = [     132690195,176917455] size =     44227260
	Batch   5 pq = [   18810,   21030] index = [     176917455,221140965] size =     44223510
	Batch   6 pq = [   21030,   23037] index = [     221140965,265363203] size =     44222238
	Batch   7 pq = [   23037,   24883] index = [     265363203,309594286] size =     44231083
	Batch   8 pq = [   24883,   26601] index = [     309594286,353819901] size =     44225615
	Batch   9 pq = [   26601,   27495] index = [     353819901,378001260] size =     24181359
  Task number: 35
  Buffer size: 11059200
  Buffer per thread: 2
  We computed 22825019 shell quartets total.
  Whereas there are 21487290 unique shell quartets.
     6.23 percent of shell quartets recomputed by reordering.

  ==> DiskJK: Disk-Based J/K Matrices <==

    J tasked:                  Yes
    K tasked:                  Yes
    wK tasked:                  No
    Memory [MiB]:              375
    Schwarz Cutoff:          1E-12

    OpenMP threads:              1

  Minimum eigenvalue in the overlap matrix is 3.1964123347E-04.
  Using Symmetric Orthogonalization.

  SCF Guess: Superposition of Atomic Densities via on-the-fly atomic UHF.

  ==> Iterations <==

                        Total Energy        Delta E     RMS |[F,P]|

   @RHF iter SAD:  -461.87951253464144   -4.61880e+02   0.00000e+00
   @RHF iter   1:  -462.58077808687301   -7.01266e-01   2.85967e-03 DIIS
   @RHF iter   2:  -462.82663718272011   -2.45859e-01   1.23099e-03 DIIS
   @RHF iter   3:  -462.86837704519542   -4.17399e-02   2.69535e-04 DIIS
   @RHF iter   4:  -462.87163934474069   -3.26230e-03   1.02348e-04 DIIS
   @RHF iter   5:  -462.87197313833667   -3.33794e-04   2.10846e-05 DIIS
   @RHF iter   6:  -462.87199326887549   -2.01305e-05   6.57028e-06 DIIS
   @RHF iter   7:  -462.87199532746649   -2.05859e-06   1.74393e-06 DIIS
   @RHF iter   8:  -462.87199554043582   -2.12969e-07   6.48083e-07 DIIS
   @RHF iter   9:  -462.87199556710902   -2.66732e-08   2.43917e-07 DIIS
   @RHF iter  10:  -462.87199557122682   -4.11779e-09   8.90417e-08 DIIS
   @RHF iter  11:  -462.87199557219037   -9.63553e-10   3.76873e-08 DIIS
   @RHF iter  12:  -462.87199557243235   -2.41982e-10   2.12222e-08 DIIS
   @RHF iter  13:  -462.87199557249392   -6.15614e-11   7.61529e-09 DIIS
   @RHF iter  14:  -462.87199557249841   -4.49063e-12   1.95048e-09 DIIS
   @RHF iter  15:  -462.87199557249903   -6.25278e-13   7.04509e-10 DIIS
   @RHF iter  16:  -462.87199557250062   -1.59162e-12   2.31995e-10 DIIS
   @RHF iter  17:  -462.87199557249852    2.10321e-12   1.07277e-10 DIIS
   @RHF iter  18:  -462.87199557250199   -3.46745e-12   5.49790e-11 DIIS
  Energy and wave function converged.

  ==> Post-Iterations <==

    Orbital Energies [Eh]
    ---------------------

    Doubly Occupied:

       1A    -20.581796     2A    -11.298900     3A    -11.239655
       4A    -11.238843     5A    -11.234378     6A    -11.233491
       7A    -11.231972     8A    -11.229577     9A    -11.206876
      10A    -11.204401    11A    -11.201742    12A     -1.397894
      13A     -1.153085    14A     -1.058703    15A     -1.039333
      16A     -1.018387    17A     -0.927915    18A     -0.907695
      19A     -0.844620    20A     -0.803822    21A     -0.789079
      22A     -0.733519    23A     -0.668311    24A     -0.643027
      25A     -0.631731    26A     -0.612820    27A     -0.605810
      28A     -0.586916    29A     -0.583772    30A     -0.574501
      31A     -0.562036    32A     -0.535294    33A     -0.525373
      34A     -0.506723    35A     -0.498801    36A     -0.485016
      37A     -0.477645    38A     -0.464419    39A     -0.458798
      40A     -0.450359    41A     -0.339398    42A     -0.304241

    Virtual:

      43A      0.126914    44A      0.152196    45A      0.174193
      46A      0.179909    47A      0.202252    48A      0.205102
      49A      0.219957    50A      0.238357    51A      0.245088
      52A      0.246744    53A      0.263722    54A      0.266667
      55A      0.270399    56A      0.285042    57A      0.301781
      58A      0.315739    59A      0.334862    60A      0.340957
      61A      0.368591    62A      0.374783    63A      0.387119
      64A      0.426082    65A      0.441714    66A      0.453557
      67A      0.482659    68A      0.494842    69A      0.511071
      70A      0.567483    71A      0.574546    72A      0.607444
      73A      0.618288    74A      0.620568    75A      0.640763
      76A      0.649142    77A      0.654954    78A      0.676782
      79A      0.696317    80A      0.709571    81A      0.728849
      82A      0.732890    83A      0.743727    84A      0.765047
      85A      0.768486    86A      0.786267    87A      0.794813
      88A      0.811896    89A      0.817639    90A      0.822506
      91A      0.842795    92A      0.848529    93A      0.872464
      94A      0.879344    95A      0.883671    96A      0.884455
      97A      0.888783    98A      0.895813    99A      0.909506
     100A      0.913659   101A      0.918401   102A      0.926067
     103A      0.930588   104A      0.933847   105A      0.944291
     106A      0.947470   107A      0.960714   108A      0.970678
     109A      0.998775   110A      1.003411   111A      1.008765
     112A      1.026680   113A      1.060008   114A      1.098326
     115A      1.108787   116A      1.121163   117A      1.131822
     118A      1.147754   119A      1.161827   120A      1.187040
     121A      1.204720   122A      1.226114   123A      1.250714
     124A      1.259215   125A      1.278529   126A      1.291806
     127A      1.305656   128A      1.311693   129A      1.321162
     130A      1.349829   131A      1.372569   132A      1.391240
     133A      1.435126   134A      1.472132   135A      1.479715
     136A      1.507387   137A      1.517129   138A      1.523750
     139A      1.549714   140A      1.618504   141A      1.629413
     142A      1.635213   143A      1.638225   144A      1.661405
     145A      1.681490   146A      1.684784   147A      1.726368
     148A      1.740467   149A      1.741906   150A      1.767663
     151A      1.784070   152A      1.804762   153A      1.814900
     154A      1.825282   155A      1.875297   156A      1.877160
     157A      1.894271   158A      1.897879   159A      1.906714
     160A      1.912747   161A      1.925880   162A      1.937399
     163A      1.941128   164A      1.947688   165A      1.951947
     166A      1.956132   167A      1.958440   168A      1.973036
     169A      1.996001   170A      2.005165   171A      2.015857
     172A      2.028055   173A      2.035451   174A      2.037049
     175A      2.050550   176A      2.060505   177A      2.069543
     178A      2.087661   179A      2.097606   180A      2.114640
     181A      2.127974   182A      2.151990   183A      2.166885
     184A      2.198618   185A      2.208041   186A      2.213408
     187A      2.224809   188A      2.244077   189A      2.260552
     190A      2.271268   191A      2.310042   192A      2.327452
     193A      2.356412   194A      2.368077   195A      2.384426
     196A      2.413806   197A      2.448744   198A      2.468906
     199A      2.474096   200A      2.481095   201A      2.513593
     202A      2.519400   203A      2.532212   204A      2.562265
     205A      2.586980   206A      2.613181   207A      2.642899
     208A      2.659198   209A      2.714500   210A      2.744553
     211A      2.770583   212A      2.772072   213A      2.797611
     214A      2.798363   215A      2.807337   216A      2.827380
     217A      2.843653   218A      2.859607   219A      2.885457
     220A      2.900740   221A      2.940154   222A      2.956606
     223A      2.988574   224A      3.008845   225A      3.083399
     226A      3.093452   227A      3.128424   228A      3.264277
     229A      3.287342   230A      3.361993   231A      3.579808
     232A      3.658583   233A      3.996736   234A      4.173535

    Final Occupation by Irrep:
              A
    DOCC [    42 ]

  @RHF Final Energy:  -462.87199557250199

   => Energetics <=

    Nuclear Repulsion Energy =            605.5668318465823177
    One-Electron Energy =               -1828.6963107041076455
    Two-Electron Energy =                 760.2574832850233406
    Total Energy =                       -462.8719955725019872

Computation Completed

Properties will be evaluated at   0.000000,   0.000000,   0.000000 [a0]

Properties computed using the SCF density matrix

  Nuclear Dipole Moment: [e a0]
     X:     4.9221      Y:     9.2652      Z:     9.3250

  Electronic Dipole Moment: [e a0]
     X:    -4.4921      Y:    -9.5222      Z:    -9.0842

  Dipole Moment: [e a0]
     X:     0.4300      Y:    -0.2570      Z:     0.2408     Total:     0.5558

  Dipole Moment: [D]
     X:     1.0930      Y:    -0.6532      Z:     0.6121     Total:     1.4128

*** tstop() called on ds3 at Sun Apr 26 22:13:36 2020
Module time:
	user time   =     167.95 seconds =       2.80 minutes
	system time =      61.39 seconds =       1.02 minutes
	total time  =        224 seconds =       3.73 minutes
Total time:
	user time   =     167.95 seconds =       2.80 minutes
	system time =      61.39 seconds =       1.02 minutes
	total time  =        224 seconds =       3.73 minutes
                                     G D M A

                                 by Anthony Stone

                           version 2.2.06, 22 June 2011

               Distributed Multipoles from Gaussian wavefunctions

Starting at 22:13:36 on 26 Apr 2020

Using SCF density matrix from file ./SSI/SSI-004PRO-096TYR-1-dimer.test.32622.fchk

                         Distributed Multipole Analysis

Standard DMA

Positions and radii in angstrom
Multipole moments in atomic units, ea_0^k for rank k

C          x =  0.582677  y =  2.205579  z =  1.080867 angstrom
           Maximum rank =  0   Radius =  0.650 angstrom
                   Q00  =  -0.104127

C          x =  0.752677  y =  2.436579  z = -0.404133 angstrom
           Maximum rank =  0   Radius =  0.650 angstrom
                   Q00  =  -0.222374

C          x =  1.738677  y =  2.966579  z =  1.710867 angstrom
           Maximum rank =  0   Radius =  0.650 angstrom
                   Q00  =  -0.207662

H          x =  0.619677  y =  1.144579  z =  1.327867 angstrom
           Maximum rank =  0   Radius =  0.325 angstrom
                   Q00  =   0.062994

H          x = -0.362323  y =  2.639579  z =  1.410867 angstrom
           Maximum rank =  0   Radius =  0.325 angstrom
                   Q00  =   0.048094

H          x =  1.362677  y =  1.646579  z = -0.835133 angstrom
           Maximum rank =  0   Radius =  0.325 angstrom
                   Q00  =   0.069097

H          x = -0.223323  y =  2.460579  z = -0.886133 angstrom
           Maximum rank =  0   Radius =  0.325 angstrom
                   Q00  =   0.088695

H          x =  2.640677  y =  2.361579  z =  1.644867 angstrom
           Maximum rank =  0   Radius =  0.325 angstrom
                   Q00  =   0.073829

H          x =  1.530677  y =  3.229579  z =  2.748867 angstrom
           Maximum rank =  0   Radius =  0.325 angstrom
                   Q00  =   0.078235

H          x =  1.262627  y =  3.409449  z = -0.463117 angstrom
           Maximum rank =  0   Radius =  0.325 angstrom
                   Q00  =   0.052921

H          x =  1.838757  y =  3.858659  z =  1.075111 angstrom
           Maximum rank =  0   Radius =  0.325 angstrom
                   Q00  =   0.049559

C          x = -0.815323  y = -2.097421  z =  2.389867 angstrom
           Maximum rank =  0   Radius =  0.650 angstrom
                   Q00  =  -0.197705

C          x = -1.582323  y = -0.735421  z =  0.416867 angstrom
           Maximum rank =  0   Radius =  0.650 angstrom
                   Q00  =   0.044281

C          x = -0.612323  y = -1.541421  z =  1.001867 angstrom
           Maximum rank =  0   Radius =  0.650 angstrom
                   Q00  =  -0.140056

C          x = -1.423323  y = -0.252421  z = -0.882133 angstrom
           Maximum rank =  0   Radius =  0.650 angstrom
                   Q00  =  -0.119721

C          x =  0.534677  y = -1.843421  z =  0.270867 angstrom
           Maximum rank =  0   Radius =  0.650 angstrom
                   Q00  =  -0.018249

C          x = -0.264323  y = -0.541421  z = -1.596133 angstrom
           Maximum rank =  0   Radius =  0.650 angstrom
                   Q00  =   0.281863

C          x =  0.717677  y = -1.325421  z = -1.009133 angstrom
           Maximum rank =  0   Radius =  0.650 angstrom
                   Q00  =  -0.179167

O          x = -0.052323  y = -0.076421  z = -2.863133 angstrom
           Maximum rank =  0   Radius =  0.650 angstrom
                   Q00  =  -0.645348

H          x = -2.482323  y = -0.491421  z =  0.966867 angstrom
           Maximum rank =  0   Radius =  0.325 angstrom
                   Q00  =   0.064977

H          x = -2.181323  y =  0.366579  z = -1.337133 angstrom
           Maximum rank =  0   Radius =  0.325 angstrom
                   Q00  =   0.081170

H          x = -1.711323  y = -1.660421  z =  2.833867 angstrom
           Maximum rank =  0   Radius =  0.325 angstrom
                   Q00  =   0.097366

H          x =  0.037677  y = -1.781421  z =  2.991867 angstrom
           Maximum rank =  0   Radius =  0.325 angstrom
                   Q00  =   0.094874

H          x =  1.306677  y = -2.456421  z =  0.715867 angstrom
           Maximum rank =  0   Radius =  0.325 angstrom
                   Q00  =   0.067257

H          x =  1.632677  y = -1.545421  z = -1.539133 angstrom
           Maximum rank =  0   Radius =  0.325 angstrom
                   Q00  =   0.068705

H          x =  0.874677  y = -0.104421  z = -3.115133 angstrom
           Maximum rank =  0   Radius =  0.325 angstrom
                   Q00  =   0.409636

H          x = -0.895543  y = -3.194039  z =  2.421383 angstrom
           Maximum rank =  0   Radius =  0.325 angstrom
                   Q00  =   0.100854

Total multipoles referred to origin at
           x =   0.000000,  y =    0.000000,  z =    0.000000 angstrom
                   Q00  =  -0.000000

Finished at 22:13:36 on 26 Apr 2020

  DMA results are available in the Python driver through the
	  variable('DMA DISTRIBUTED MULTIPOLES')
  and
	  variable('DMA TOTAL MULTIPOLES')
  commands.

    Psi4 stopped on: Sunday, 26 April 2020 10:13PM
    Psi4 wall time for execution: 0:03:44.33

*** Psi4 exiting successfully. Buy a developer a beer!
