                               Psi4 1.3.2 release

  ==> Input File <==

--------------------------------------------------------------------------
import numpy as np
set {scf_type pk
basis cc-pvdz
d_convergence 10
gdma_switch   0
gdma_limit    0
gdma_origin   [ 0.0,  0.0,  0.0 ]
}
molecule test {
    units Angstrom
    0 1
    --
    0 1
    C               -0.551682366085908     0.499611221788559    -1.775384627663213
    C               -1.025682366085908    -0.111388778211441    -3.115384627663213
    H               -1.417682366085908     0.816611221788559    -1.194384627663213
    H                0.000317633914092    -0.247388778211441    -1.205384627663213
    H                0.089317633914092     1.363611221788560    -1.953384627663213
    H               -1.725682366085908    -0.917388778211441    -2.891384627663213
    H               -0.168408366085908    -0.526776778211441    -3.665415627663213
    H               -1.537190366085908     0.643144221788559    -3.731046627663213
    C                0.696317633914092     0.190611221788559     1.784615372336787
    C                0.880317633914092    -0.573388778211441     3.108615372336787
    H                1.540317633914092    -0.017388778211441     1.126615372336787
    H               -0.205682366085908    -0.133388778211441     1.266615372336787
    H                0.646317633914092     1.263611221788560     1.973615372336787
    H                0.883317633914092    -1.633388778211440     2.865615372336787
    H                0.058184633914092    -0.349236778211441     3.804215372336787
    H                1.845558633914092    -0.326851778211441     3.575015372336787

}
e, wfn = energy('scf', return_wfn=True)
gdma(wfn)
dmavals = variable('DMA DISTRIBUTED MULTIPOLES')
charges = np.array(dmavals)
print(charges)
np.save('SSI-115THR-138VAL-1-dimer.npy', np.array(charges))--------------------------------------------------------------------------

*** tstart() called on ds3
*** at Tue Apr 28 13:13:34 2020

   => Loading Basis Set <=

    Name: CC-PVDZ
    Role: ORBITAL
    Keyword: BASIS
    atoms 1-2, 9-10  entry C          line   138 file /theoryfs2/ds/metcalf/miniconda2/envs/tf2gpu/share/psi4/basis/cc-pvdz.gbs
    atoms 3-8, 11-16 entry H          line    22 file /theoryfs2/ds/metcalf/miniconda2/envs/tf2gpu/share/psi4/basis/cc-pvdz.gbs

         ---------------------------------------------------------
                                   SCF
               by Justin Turney, Rob Parrish, Andy Simmonett
                          and Daniel G. A. Smith
                              RHF Reference
                        1 Threads,    500 MiB Core
         ---------------------------------------------------------

  ==> Geometry <==

    Molecular point group: c1
    Full point group: C1

    Geometry (in Angstrom), charge = 0, multiplicity = 1:

       Center              X                  Y                   Z               Mass
    ------------   -----------------  -----------------  -----------------  -----------------
         C           -0.551682366086     0.499611221789    -1.775384627663    12.000000000000
         C           -1.025682366086    -0.111388778211    -3.115384627663    12.000000000000
         H           -1.417682366086     0.816611221789    -1.194384627663     1.007825032230
         H            0.000317633914    -0.247388778211    -1.205384627663     1.007825032230
         H            0.089317633914     1.363611221789    -1.953384627663     1.007825032230
         H           -1.725682366086    -0.917388778211    -2.891384627663     1.007825032230
         H           -0.168408366086    -0.526776778211    -3.665415627663     1.007825032230
         H           -1.537190366086     0.643144221789    -3.731046627663     1.007825032230
         C            0.696317633914     0.190611221789     1.784615372337    12.000000000000
         C            0.880317633914    -0.573388778211     3.108615372337    12.000000000000
         H            1.540317633914    -0.017388778211     1.126615372337     1.007825032230
         H           -0.205682366086    -0.133388778211     1.266615372337     1.007825032230
         H            0.646317633914     1.263611221789     1.973615372337     1.007825032230
         H            0.883317633914    -1.633388778211     2.865615372337     1.007825032230
         H            0.058184633914    -0.349236778211     3.804215372337     1.007825032230
         H            1.845558633914    -0.326851778211     3.575015372337     1.007825032230

  Running in c1 symmetry.

  Rotational constants: A =      0.81189  B =      0.03816  C =      0.03751 [cm^-1]
  Rotational constants: A =  24339.88872  B =   1144.15309  C =   1124.63819 [MHz]
  Nuclear repulsion =  118.711515568252779

  Charge       = 0
  Multiplicity = 1
  Electrons    = 36
  Nalpha       = 18
  Nbeta        = 18

  ==> Algorithm <==

  SCF Algorithm Type is PK.
  DIIS enabled.
  MOM disabled.
  Fractional occupation disabled.
  Guess Type is SAD.
  Energy threshold   = 1.00e-06
  Density threshold  = 1.00e-10
  Integral threshold = 0.00e+00

  ==> Primary Basis <==

  Basis Set: CC-PVDZ
    Blend: CC-PVDZ
    Number of shells: 60
    Number of basis function: 116
    Number of Cartesian functions: 120
    Spherical Harmonics?: true
    Max angular momentum: 2

  ==> Pre-Iterations <==

   -------------------------------------------------------
    Irrep   Nso     Nmo     Nalpha   Nbeta   Ndocc  Nsocc
   -------------------------------------------------------
     A        116     116       0       0       0       0
   -------------------------------------------------------
    Total     116     116      18      18      18       0
   -------------------------------------------------------

  ==> Integral Setup <==

  Using integral reordering PK algorithm.
  Sizing the integral batches needed.
  Building batch lookup table.
   Calculation information:
      Number of atoms:                  16
      Number of AO shells:              60
      Number of primitives:            148
      Number of atomic orbitals:       120
      Number of basis functions:       116

      Integral cutoff                 1.00e-12
      Number of threads:                 1

	Batch   1 pq = [       0,    6786] index = [             0,23028291] size =     23028291
  Task number: 3
  Buffer size: 11059200
  Buffer per thread: 2
  We computed 1300714 shell quartets total.
  Whereas there are 1675365 unique shell quartets.

  ==> DiskJK: Disk-Based J/K Matrices <==

    J tasked:                  Yes
    K tasked:                  Yes
    wK tasked:                  No
    Memory [MiB]:              375
    Schwarz Cutoff:          1E-12

    OpenMP threads:              1

  Minimum eigenvalue in the overlap matrix is 6.5675009614E-03.
  Using Symmetric Orthogonalization.

  SCF Guess: Superposition of Atomic Densities via on-the-fly atomic UHF.

  ==> Iterations <==

                        Total Energy        Delta E     RMS |[F,P]|

   @RHF iter SAD:  -157.29493917345985   -1.57295e+02   0.00000e+00
   @RHF iter   1:  -158.31082140766733   -1.01588e+00   4.16591e-03 DIIS
   @RHF iter   2:  -158.44208852882969   -1.31267e-01   1.76496e-03 DIIS
   @RHF iter   3:  -158.46476985735217   -2.26813e-02   3.47514e-04 DIIS
   @RHF iter   4:  -158.46657931127490   -1.80945e-03   3.90299e-05 DIIS
   @RHF iter   5:  -158.46660314677996   -2.38355e-05   6.90752e-06 DIIS
   @RHF iter   6:  -158.46660382940763   -6.82628e-07   1.27917e-06 DIIS
   @RHF iter   7:  -158.46660384446395   -1.50563e-08   3.21947e-07 DIIS
   @RHF iter   8:  -158.46660384543762   -9.73671e-10   3.52961e-08 DIIS
   @RHF iter   9:  -158.46660384545768   -2.00657e-11   5.13666e-09 DIIS
   @RHF iter  10:  -158.46660384545817   -4.83169e-13   1.43922e-09 DIIS
   @RHF iter  11:  -158.46660384545808    8.52651e-14   4.35590e-10 DIIS
   @RHF iter  12:  -158.46660384545777    3.12639e-13   6.95819e-11 DIIS
  Energy and wave function converged.

  ==> Post-Iterations <==

    Orbital Energies [Eh]
    ---------------------

    Doubly Occupied:

       1A    -11.220424     2A    -11.219622     3A    -11.217518
       4A    -11.216736     5A     -1.015475     6A     -1.012949
       7A     -0.840091     8A     -0.834541     9A     -0.599772
      10A     -0.596470    11A     -0.594855    12A     -0.592889
      13A     -0.504051    14A     -0.491397    15A     -0.488517
      16A     -0.487562    17A     -0.485240    18A     -0.482288

    Virtual:

      19A      0.176627    20A      0.194138    21A      0.220997
      22A      0.239346    23A      0.248868    24A      0.259448
      25A      0.264416    26A      0.274943    27A      0.283779
      28A      0.286056    29A      0.302707    30A      0.309439
      31A      0.363577    32A      0.415366    33A      0.570041
      34A      0.591625    35A      0.598007    36A      0.599253
      37A      0.604719    38A      0.662861    39A      0.672715
      40A      0.677173    41A      0.704522    42A      0.751493
      43A      0.813820    44A      0.890708    45A      0.891238
      46A      0.892687    47A      0.895167    48A      0.896291
      49A      0.896946    50A      0.903471    51A      0.913497
      52A      0.915486    53A      0.928180    54A      0.932929
      55A      0.962563    56A      0.984900    57A      1.125279
      58A      1.129472    59A      1.131374    60A      1.152507
      61A      1.216635    62A      1.253430    63A      1.460925
      64A      1.466055    65A      1.477820    66A      1.482714
      67A      1.576038    68A      1.580810    69A      1.679934
      70A      1.680607    71A      1.692039    72A      1.696447
      73A      1.855960    74A      1.861026    75A      1.863507
      76A      1.878080    77A      1.880943    78A      1.921395
      79A      1.929009    80A      1.932365    81A      1.939209
      82A      1.942706    83A      1.946846    84A      1.949399
      85A      1.956308    86A      1.963459    87A      1.973507
      88A      2.050082    89A      2.090116    90A      2.097527
      91A      2.114263    92A      2.124688    93A      2.287582
      94A      2.299949    95A      2.308054    96A      2.334558
      97A      2.442850    98A      2.447082    99A      2.467009
     100A      2.474171   101A      2.551787   102A      2.559991
     103A      2.569394   104A      2.578929   105A      2.754587
     106A      2.766344   107A      2.782354   108A      2.795834
     109A      2.838624   110A      2.845238   111A      2.849421
     112A      2.854677   113A      2.933197   114A      2.935567
     115A      2.953176   116A      2.971801

    Final Occupation by Irrep:
              A
    DOCC [    18 ]

  @RHF Final Energy:  -158.46660384545777

   => Energetics <=

    Nuclear Repulsion Energy =            118.7115155682527785
    One-Electron Energy =                -446.5554494225953022
    Two-Electron Energy =                 169.3773300088847691
    Total Energy =                       -158.4666038454577688

Computation Completed

Properties will be evaluated at   0.000000,   0.000000,   0.000000 [a0]

Properties computed using the SCF density matrix

  Nuclear Dipole Moment: [e a0]
     X:     0.0081      Y:    -0.0608      Z:    -0.0275

  Electronic Dipole Moment: [e a0]
     X:    -0.0076      Y:     0.0548      Z:     0.0260

  Dipole Moment: [e a0]
     X:     0.0006      Y:    -0.0060      Z:    -0.0015     Total:     0.0062

  Dipole Moment: [D]
     X:     0.0014      Y:    -0.0152      Z:    -0.0039     Total:     0.0158

*** tstop() called on ds3 at Tue Apr 28 13:13:57 2020
Module time:
	user time   =       7.16 seconds =       0.12 minutes
	system time =       2.69 seconds =       0.04 minutes
	total time  =         23 seconds =       0.38 minutes
Total time:
	user time   =       7.16 seconds =       0.12 minutes
	system time =       2.69 seconds =       0.04 minutes
	total time  =         23 seconds =       0.38 minutes
                                     G D M A

                                 by Anthony Stone

                           version 2.2.06, 22 June 2011

               Distributed Multipoles from Gaussian wavefunctions

Starting at 13:13:57 on 28 Apr 2020

Using SCF density matrix from file ./SSI/SSI-115THR-138VAL-1-dimer.test.15824.fchk

                         Distributed Multipole Analysis

Standard DMA

Positions and radii in angstrom
Multipole moments in atomic units, ea_0^k for rank k

C          x = -0.551682  y =  0.499611  z = -1.775385 angstrom
           Maximum rank =  0   Radius =  0.650 angstrom
                   Q00  =  -0.238064

C          x = -1.025682  y = -0.111389  z = -3.115385 angstrom
           Maximum rank =  0   Radius =  0.650 angstrom
                   Q00  =  -0.245236

H          x = -1.417682  y =  0.816611  z = -1.194385 angstrom
           Maximum rank =  0   Radius =  0.325 angstrom
                   Q00  =   0.078861

H          x =  0.000318  y = -0.247389  z = -1.205385 angstrom
           Maximum rank =  0   Radius =  0.325 angstrom
                   Q00  =   0.082145

H          x =  0.089318  y =  1.363611  z = -1.953385 angstrom
           Maximum rank =  0   Radius =  0.325 angstrom
                   Q00  =   0.081574

H          x = -1.725682  y = -0.917389  z = -2.891385 angstrom
           Maximum rank =  0   Radius =  0.325 angstrom
                   Q00  =   0.079211

H          x = -0.168408  y = -0.526777  z = -3.665416 angstrom
           Maximum rank =  0   Radius =  0.325 angstrom
                   Q00  =   0.080313

H          x = -1.537190  y =  0.643144  z = -3.731047 angstrom
           Maximum rank =  0   Radius =  0.325 angstrom
                   Q00  =   0.081289

C          x =  0.696318  y =  0.190611  z =  1.784615 angstrom
           Maximum rank =  0   Radius =  0.650 angstrom
                   Q00  =  -0.237938

C          x =  0.880318  y = -0.573389  z =  3.108615 angstrom
           Maximum rank =  0   Radius =  0.650 angstrom
                   Q00  =  -0.241532

H          x =  1.540318  y = -0.017389  z =  1.126615 angstrom
           Maximum rank =  0   Radius =  0.325 angstrom
                   Q00  =   0.077503

H          x = -0.205682  y = -0.133389  z =  1.266615 angstrom
           Maximum rank =  0   Radius =  0.325 angstrom
                   Q00  =   0.082090

H          x =  0.646318  y =  1.263611  z =  1.973615 angstrom
           Maximum rank =  0   Radius =  0.325 angstrom
                   Q00  =   0.080250

H          x =  0.883318  y = -1.633389  z =  2.865615 angstrom
           Maximum rank =  0   Radius =  0.325 angstrom
                   Q00  =   0.077907

H          x =  0.058185  y = -0.349237  z =  3.804215 angstrom
           Maximum rank =  0   Radius =  0.325 angstrom
                   Q00  =   0.081031

H          x =  1.845559  y = -0.326852  z =  3.575015 angstrom
           Maximum rank =  0   Radius =  0.325 angstrom
                   Q00  =   0.080596

Total multipoles referred to origin at
           x =   0.000000,  y =    0.000000,  z =    0.000000 angstrom
                   Q00  =  -0.000000

Finished at 13:13:57 on 28 Apr 2020

  DMA results are available in the Python driver through the
	  variable('DMA DISTRIBUTED MULTIPOLES')
  and
	  variable('DMA TOTAL MULTIPOLES')
  commands.

    Psi4 stopped on: Tuesday, 28 April 2020 01:13PM
    Psi4 wall time for execution: 0:00:23.01

*** Psi4 exiting successfully. Buy a developer a beer!
