                               Psi4 1.3.2 release

  ==> Input File <==

--------------------------------------------------------------------------
import numpy as np
set {scf_type pk
basis cc-pvdz
d_convergence 10
gdma_switch   0
gdma_limit    0
gdma_origin   [ 0.0,  0.0,  0.0 ]
}
molecule test {
    units Angstrom
    0 1
    --
    0 1
    C               -2.969742183999136     1.130588972053735    -2.368918059676155
    C               -1.050742183999136     1.420588972053736    -0.859918059676155
    N               -0.374742183999136     1.058588972053736     0.219081940323844
    N               -2.131742183999136     0.745588972053736    -1.238918059676156
    N               -0.672742183999136     2.490588972053736    -1.536918059676156
    H               -0.678742183999136     0.272588972053736     0.779081940323845
    H                0.446257816000864     1.588588972053735     0.502081940323845
    H               -2.373742183999136    -0.095411027946264    -0.733918059676155
    H               -1.201742183999136     2.797588972053735    -2.342918059676155
    H                0.164257816000864     2.995588972053735    -1.249918059676155
    H               -3.566742183999136     0.273588972053736    -2.667918059676155
    H               -2.319742183999136     1.415588972053736    -3.198918059676156
    H               -3.628362183999136     1.972198972053736    -2.108318059676156
    C                1.688257816000864    -2.343411027946264     0.142081940323844
    C                1.807257816000864    -1.688411027946264     1.524081940323845
    O                0.836257816000864    -1.018411027946264     1.959081940323844
    O                2.858257816000864    -1.865411027946264     2.184081940323845
    H                0.911257816000864    -1.839411027946264    -0.428918059676155
    H                1.418257816000864    -3.393411027946264     0.265081940323844
    H                2.618397816000864    -2.262371027946264    -0.439528059676156

}
e, wfn = energy('scf', return_wfn=True)
gdma(wfn)
dmavals = variable('DMA DISTRIBUTED MULTIPOLES')
charges = np.array(dmavals)
print(charges)
np.save('SSI-046ARG-182GLU-1-dimer.npy', np.array(charges))--------------------------------------------------------------------------

*** tstart() called on ds3
*** at Mon Apr 27 23:43:20 2020

   => Loading Basis Set <=

    Name: CC-PVDZ
    Role: ORBITAL
    Keyword: BASIS
    atoms 1-2, 14-15  entry C          line   138 file /theoryfs2/ds/metcalf/miniconda2/envs/tf2gpu/share/psi4/basis/cc-pvdz.gbs
    atoms 3-5         entry N          line   168 file /theoryfs2/ds/metcalf/miniconda2/envs/tf2gpu/share/psi4/basis/cc-pvdz.gbs
    atoms 6-13, 18-20 entry H          line    22 file /theoryfs2/ds/metcalf/miniconda2/envs/tf2gpu/share/psi4/basis/cc-pvdz.gbs
    atoms 16-17       entry O          line   198 file /theoryfs2/ds/metcalf/miniconda2/envs/tf2gpu/share/psi4/basis/cc-pvdz.gbs

         ---------------------------------------------------------
                                   SCF
               by Justin Turney, Rob Parrish, Andy Simmonett
                          and Daniel G. A. Smith
                              RHF Reference
                        1 Threads,    500 MiB Core
         ---------------------------------------------------------

  ==> Geometry <==

    Molecular point group: c1
    Full point group: C1

    Geometry (in Angstrom), charge = 0, multiplicity = 1:

       Center              X                  Y                   Z               Mass
    ------------   -----------------  -----------------  -----------------  -----------------
         C           -2.969742183999     1.130588972054    -2.368918059676    12.000000000000
         C           -1.050742183999     1.420588972054    -0.859918059676    12.000000000000
         N           -0.374742183999     1.058588972054     0.219081940324    14.003074004430
         N           -2.131742183999     0.745588972054    -1.238918059676    14.003074004430
         N           -0.672742183999     2.490588972054    -1.536918059676    14.003074004430
         H           -0.678742183999     0.272588972054     0.779081940324     1.007825032230
         H            0.446257816001     1.588588972054     0.502081940324     1.007825032230
         H           -2.373742183999    -0.095411027946    -0.733918059676     1.007825032230
         H           -1.201742183999     2.797588972054    -2.342918059676     1.007825032230
         H            0.164257816001     2.995588972054    -1.249918059676     1.007825032230
         H           -3.566742183999     0.273588972054    -2.667918059676     1.007825032230
         H           -2.319742183999     1.415588972054    -3.198918059676     1.007825032230
         H           -3.628362183999     1.972198972054    -2.108318059676     1.007825032230
         C            1.688257816001    -2.343411027946     0.142081940324    12.000000000000
         C            1.807257816001    -1.688411027946     1.524081940324    12.000000000000
         O            0.836257816001    -1.018411027946     1.959081940324    15.994914619570
         O            2.858257816001    -1.865411027946     2.184081940324    15.994914619570
         H            0.911257816001    -1.839411027946    -0.428918059676     1.007825032230
         H            1.418257816001    -3.393411027946     0.265081940324     1.007825032230
         H            2.618397816001    -2.262371027946    -0.439528059676     1.007825032230

  Running in c1 symmetry.

  Rotational constants: A =      0.11149  B =      0.01604  C =      0.01531 [cm^-1]
  Rotational constants: A =   3342.53210  B =    480.93917  C =    458.95881 [MHz]
  Nuclear repulsion =  438.276303581454385

  Charge       = 0
  Multiplicity = 1
  Electrons    = 72
  Nalpha       = 36
  Nbeta        = 36

  ==> Algorithm <==

  SCF Algorithm Type is PK.
  DIIS enabled.
  MOM disabled.
  Fractional occupation disabled.
  Guess Type is SAD.
  Energy threshold   = 1.00e-06
  Density threshold  = 1.00e-10
  Integral threshold = 0.00e+00

  ==> Primary Basis <==

  Basis Set: CC-PVDZ
    Blend: CC-PVDZ
    Number of shells: 87
    Number of basis function: 181
    Number of Cartesian functions: 190
    Spherical Harmonics?: true
    Max angular momentum: 2

  ==> Pre-Iterations <==

   -------------------------------------------------------
    Irrep   Nso     Nmo     Nalpha   Nbeta   Ndocc  Nsocc
   -------------------------------------------------------
     A        181     181       0       0       0       0
   -------------------------------------------------------
    Total     181     181      36      36      36       0
   -------------------------------------------------------

  ==> Integral Setup <==

  Using integral reordering PK algorithm.
  Sizing the integral batches needed.
  Building batch lookup table.
   Calculation information:
      Number of atoms:                  20
      Number of AO shells:              87
      Number of primitives:            253
      Number of atomic orbitals:       190
      Number of basis functions:       181

      Integral cutoff                 1.00e-12
      Number of threads:                 1

	Batch   1 pq = [       0,    9405] index = [             0,44231715] size =     44231715
	Batch   2 pq = [    9405,   13301] index = [      44231715,88464951] size =     44233236
	Batch   3 pq = [   13301,   16471] index = [      88464951,135655156] size =     47190205
  Task number: 13
  Buffer size: 11059200
  Buffer per thread: 2
  We computed 5426811 shell quartets total.
  Whereas there are 7328706 unique shell quartets.

  ==> DiskJK: Disk-Based J/K Matrices <==

    J tasked:                  Yes
    K tasked:                  Yes
    wK tasked:                  No
    Memory [MiB]:              375
    Schwarz Cutoff:          1E-12

    OpenMP threads:              1

  Minimum eigenvalue in the overlap matrix is 3.8968818838E-03.
  Using Symmetric Orthogonalization.

  SCF Guess: Superposition of Atomic Densities via on-the-fly atomic UHF.

  ==> Iterations <==

                        Total Energy        Delta E     RMS |[F,P]|

   @RHF iter SAD:  -469.57326556727372   -4.69573e+02   0.00000e+00
   @RHF iter   1:  -470.63999952622407   -1.06673e+00   4.34034e-03 DIIS
   @RHF iter   2:  -470.87342092480014   -2.33421e-01   2.34724e-03 DIIS
   @RHF iter   3:  -470.93839276331829   -6.49718e-02   4.05277e-04 DIIS
   @RHF iter   4:  -470.94183935391152   -3.44659e-03   1.42522e-04 DIIS
   @RHF iter   5:  -470.94226432872586   -4.24975e-04   2.70217e-05 DIIS
   @RHF iter   6:  -470.94228708659409   -2.27579e-05   1.27125e-05 DIIS
   @RHF iter   7:  -470.94229041760968   -3.33102e-06   3.56013e-06 DIIS
   @RHF iter   8:  -470.94229096955928   -5.51950e-07   1.71372e-06 DIIS
   @RHF iter   9:  -470.94229106062812   -9.10688e-08   5.73654e-07 DIIS
   @RHF iter  10:  -470.94229107938776   -1.87596e-08   2.06540e-07 DIIS
   @RHF iter  11:  -470.94229108154303   -2.15528e-09   5.54622e-08 DIIS
   @RHF iter  12:  -470.94229108165484   -1.11811e-10   2.06447e-08 DIIS
   @RHF iter  13:  -470.94229108166803   -1.31877e-11   6.07944e-09 DIIS
   @RHF iter  14:  -470.94229108167087   -2.84217e-12   1.81139e-09 DIIS
   @RHF iter  15:  -470.94229108167139   -5.11591e-13   6.74259e-10 DIIS
   @RHF iter  16:  -470.94229108167320   -1.81899e-12   2.09647e-10 DIIS
   @RHF iter  17:  -470.94229108166991    3.29692e-12   7.73117e-11 DIIS
  Energy and wave function converged.

  ==> Post-Iterations <==

    Orbital Energies [Eh]
    ---------------------

    Doubly Occupied:

       1A    -20.380382     2A    -20.362875     3A    -15.688328
       4A    -15.681004     5A    -15.654091     6A    -11.476248
       7A    -11.355808     8A    -11.228127     9A    -11.157439
      10A     -1.432770    11A     -1.297200    12A     -1.268854
      13A     -1.256854    14A     -1.143774    15A     -1.045228
      16A     -0.929972    17A     -0.901536    18A     -0.867518
      19A     -0.818376    20A     -0.754721    21A     -0.730724
      22A     -0.724014    23A     -0.691599    24A     -0.645153
      25A     -0.639126    26A     -0.609271    27A     -0.519685
      28A     -0.513679    29A     -0.511220    30A     -0.505077
      31A     -0.473354    32A     -0.449108    33A     -0.414285
      34A     -0.296474    35A     -0.278240    36A     -0.271127

    Virtual:

      37A      0.092534    38A      0.125863    39A      0.129809
      40A      0.136982    41A      0.183061    42A      0.190221
      43A      0.205034    44A      0.215693    45A      0.248744
      46A      0.262870    47A      0.296062    48A      0.303008
      49A      0.308980    50A      0.376541    51A      0.389110
      52A      0.437529    53A      0.449843    54A      0.468308
      55A      0.541253    56A      0.553072    57A      0.583889
      58A      0.597408    59A      0.615506    60A      0.622654
      61A      0.642080    62A      0.644958    63A      0.668298
      64A      0.712388    65A      0.732377    66A      0.759617
      67A      0.770149    68A      0.783699    69A      0.797427
      70A      0.799867    71A      0.842328    72A      0.851791
      73A      0.852276    74A      0.858504    75A      0.894423
      76A      0.912195    77A      0.927073    78A      0.935463
      79A      0.940932    80A      0.953391    81A      0.960373
      82A      0.979530    83A      1.001617    84A      1.030520
      85A      1.051783    86A      1.068137    87A      1.084062
      88A      1.117484    89A      1.156163    90A      1.205505
      91A      1.231755    92A      1.236441    93A      1.241556
      94A      1.258461    95A      1.278937    96A      1.304240
      97A      1.325782    98A      1.344445    99A      1.396880
     100A      1.434023   101A      1.465616   102A      1.496699
     103A      1.498471   104A      1.515720   105A      1.543325
     106A      1.558523   107A      1.581793   108A      1.617602
     109A      1.626461   110A      1.635417   111A      1.655928
     112A      1.671292   113A      1.715108   114A      1.728656
     115A      1.737594   116A      1.765929   117A      1.810757
     118A      1.823069   119A      1.840224   120A      1.848837
     121A      1.867830   122A      1.890687   123A      1.910355
     124A      1.922860   125A      1.941465   126A      1.953224
     127A      1.967106   128A      1.983808   129A      2.011747
     130A      2.031139   131A      2.104548   132A      2.112026
     133A      2.118267   134A      2.138593   135A      2.145248
     136A      2.224686   137A      2.233503   138A      2.255033
     139A      2.273185   140A      2.295698   141A      2.326835
     142A      2.330694   143A      2.369410   144A      2.411146
     145A      2.429208   146A      2.438259   147A      2.446821
     148A      2.473847   149A      2.530323   150A      2.564100
     151A      2.567912   152A      2.598848   153A      2.646577
     154A      2.666828   155A      2.677868   156A      2.687521
     157A      2.735713   158A      2.808140   159A      2.817892
     160A      2.850627   161A      2.858578   162A      2.876153
     163A      2.893696   164A      2.909414   165A      2.964601
     166A      2.992535   167A      3.131527   168A      3.161828
     169A      3.162938   170A      3.184343   171A      3.206198
     172A      3.239073   173A      3.249091   174A      3.519158
     175A      3.650292   176A      3.674124   177A      3.717707
     178A      3.745728   179A      3.943165   180A      3.972323
     181A      4.073872

    Final Occupation by Irrep:
              A
    DOCC [    36 ]

  @RHF Final Energy:  -470.94229108166991

   => Energetics <=

    Nuclear Repulsion Energy =            438.2763035814543855
    One-Electron Energy =               -1512.4907116925833179
    Two-Electron Energy =                 603.2721170294589683
    Total Energy =                       -470.9422910816699641

Computation Completed

Properties will be evaluated at   0.000000,   0.000000,   0.000000 [a0]

Properties computed using the SCF density matrix

  Nuclear Dipole Moment: [e a0]
     X:    -7.6702      Y:     3.4659      Z:   -10.8699

  Electronic Dipole Moment: [e a0]
     X:     2.5746      Y:     1.2127      Z:     5.4528

  Dipole Moment: [e a0]
     X:    -5.0957      Y:     4.6786      Z:    -5.4171     Total:     8.7864

  Dipole Moment: [D]
     X:   -12.9519      Y:    11.8918      Z:   -13.7689     Total:    22.3327

*** tstop() called on ds3 at Mon Apr 27 23:44:28 2020
Module time:
	user time   =      46.67 seconds =       0.78 minutes
	system time =      24.38 seconds =       0.41 minutes
	total time  =         68 seconds =       1.13 minutes
Total time:
	user time   =      46.67 seconds =       0.78 minutes
	system time =      24.38 seconds =       0.41 minutes
	total time  =         68 seconds =       1.13 minutes
                                     G D M A

                                 by Anthony Stone

                           version 2.2.06, 22 June 2011

               Distributed Multipoles from Gaussian wavefunctions

Starting at 23:44:29 on 27 Apr 2020

Using SCF density matrix from file ./SSI/SSI-046ARG-182GLU-1-dimer.test.3826.fchk

                         Distributed Multipole Analysis

Standard DMA

Positions and radii in angstrom
Multipole moments in atomic units, ea_0^k for rank k

C          x = -2.969742  y =  1.130589  z = -2.368918 angstrom
           Maximum rank =  0   Radius =  0.650 angstrom
                   Q00  =  -0.115800

C          x = -1.050742  y =  1.420589  z = -0.859918 angstrom
           Maximum rank =  0   Radius =  0.650 angstrom
                   Q00  =   1.057393

N          x = -0.374742  y =  1.058589  z =  0.219082 angstrom
           Maximum rank =  0   Radius =  0.650 angstrom
                   Q00  =  -0.582827

N          x = -2.131742  y =  0.745589  z = -1.238918 angstrom
           Maximum rank =  0   Radius =  0.650 angstrom
                   Q00  =  -0.492540

N          x = -0.672742  y =  2.490589  z = -1.536918 angstrom
           Maximum rank =  0   Radius =  0.650 angstrom
                   Q00  =  -0.575190

H          x = -0.678742  y =  0.272589  z =  0.779082 angstrom
           Maximum rank =  0   Radius =  0.325 angstrom
                   Q00  =   0.295286

H          x =  0.446258  y =  1.588589  z =  0.502082 angstrom
           Maximum rank =  0   Radius =  0.325 angstrom
                   Q00  =   0.270414

H          x = -2.373742  y = -0.095411  z = -0.733918 angstrom
           Maximum rank =  0   Radius =  0.325 angstrom
                   Q00  =   0.242388

H          x = -1.201742  y =  2.797589  z = -2.342918 angstrom
           Maximum rank =  0   Radius =  0.325 angstrom
                   Q00  =   0.254824

H          x =  0.164258  y =  2.995589  z = -1.249918 angstrom
           Maximum rank =  0   Radius =  0.325 angstrom
                   Q00  =   0.262746

H          x = -3.566742  y =  0.273589  z = -2.667918 angstrom
           Maximum rank =  0   Radius =  0.325 angstrom
                   Q00  =   0.156714

H          x = -2.319742  y =  1.415589  z = -3.198918 angstrom
           Maximum rank =  0   Radius =  0.325 angstrom
                   Q00  =   0.094112

H          x = -3.628362  y =  1.972199  z = -2.108318 angstrom
           Maximum rank =  0   Radius =  0.325 angstrom
                   Q00  =   0.109022

C          x =  1.688258  y = -2.343411  z =  0.142082 angstrom
           Maximum rank =  0   Radius =  0.650 angstrom
                   Q00  =  -0.274726

C          x =  1.807258  y = -1.688411  z =  1.524082 angstrom
           Maximum rank =  0   Radius =  0.650 angstrom
                   Q00  =   0.939516

O          x =  0.836258  y = -1.018411  z =  1.959082 angstrom
           Maximum rank =  0   Radius =  0.650 angstrom
                   Q00  =  -0.951120

O          x =  2.858258  y = -1.865411  z =  2.184082 angstrom
           Maximum rank =  0   Radius =  0.650 angstrom
                   Q00  =  -0.885110

H          x =  0.911258  y = -1.839411  z = -0.428918 angstrom
           Maximum rank =  0   Radius =  0.325 angstrom
                   Q00  =   0.011402

H          x =  1.418258  y = -3.393411  z =  0.265082 angstrom
           Maximum rank =  0   Radius =  0.325 angstrom
                   Q00  =   0.104298

H          x =  2.618398  y = -2.262371  z = -0.439528 angstrom
           Maximum rank =  0   Radius =  0.325 angstrom
                   Q00  =   0.079199

Total multipoles referred to origin at
           x =   0.000000,  y =    0.000000,  z =    0.000000 angstrom
                   Q00  =  -0.000000

Finished at 23:44:29 on 27 Apr 2020

  DMA results are available in the Python driver through the
	  variable('DMA DISTRIBUTED MULTIPOLES')
  and
	  variable('DMA TOTAL MULTIPOLES')
  commands.

    Psi4 stopped on: Monday, 27 April 2020 11:44PM
    Psi4 wall time for execution: 0:01:08.39

*** Psi4 exiting successfully. Buy a developer a beer!
