                               Psi4 1.3.2 release

  ==> Input File <==

--------------------------------------------------------------------------
import numpy as np
set {scf_type pk
basis cc-pvdz
d_convergence 10
gdma_switch   0
gdma_limit    0
gdma_origin   [ 0.0,  0.0,  0.0 ]
}
molecule test {
    units Angstrom
    -1 1
    --
    -1 1
    C               -1.469845005146047     0.522676339651527     0.323609592428583
    C               -2.688845005146046     1.054676339651527     1.075609592428583
    C               -0.509845005146047     1.608676339651527    -0.043390407571417
    O               -0.770845005146047     2.809676339651527     0.143609592428583
    O                0.568154994853953     1.264676339651527    -0.560390407571417
    H               -0.963845005146047    -0.241323660348473     0.911609592428583
    H               -1.800845005146047     0.055676339651527    -0.606390407571417
    H               -3.039845005146047     1.972676339651527     0.600609592428583
    H               -2.382541005146047     1.270366339651527     2.109849592428583
    H               -3.504915005146047     0.321356339651527     0.996429592428583
    C                1.028154994853953    -2.290323660348473    -0.064390407571417
    C                1.830154994853953    -3.581323660348473    -0.205390407571417
    O                1.779154994853953    -1.226323660348473    -0.596390407571417
    H                0.083154994853953    -2.377323660348473    -0.602390407571417
    H                0.818154994853953    -2.106323660348473     0.989609592428582
    H                1.185154994853953    -4.400323660348473     0.109609592428583
    H                1.295154994853953    -0.375323660348473    -0.490390407571417
    H                2.753757994853953    -3.600923660348473     0.391749592428583
    H                2.091008994853953    -3.741623660348472    -1.261920407571417

}
e, wfn = energy('scf', return_wfn=True)
gdma(wfn)
dmavals = variable('DMA DISTRIBUTED MULTIPOLES')
charges = np.array(dmavals)
print(charges)
np.save('SSI-033ASP-276SER-1-dimer.npy', np.array(charges))--------------------------------------------------------------------------

*** tstart() called on ds3
*** at Tue Apr 28 10:40:09 2020

   => Loading Basis Set <=

    Name: CC-PVDZ
    Role: ORBITAL
    Keyword: BASIS
    atoms 1-3, 11-12  entry C          line   138 file /theoryfs2/ds/metcalf/miniconda2/envs/tf2gpu/share/psi4/basis/cc-pvdz.gbs
    atoms 4-5, 13     entry O          line   198 file /theoryfs2/ds/metcalf/miniconda2/envs/tf2gpu/share/psi4/basis/cc-pvdz.gbs
    atoms 6-10, 14-19 entry H          line    22 file /theoryfs2/ds/metcalf/miniconda2/envs/tf2gpu/share/psi4/basis/cc-pvdz.gbs

         ---------------------------------------------------------
                                   SCF
               by Justin Turney, Rob Parrish, Andy Simmonett
                          and Daniel G. A. Smith
                              RHF Reference
                        1 Threads,    500 MiB Core
         ---------------------------------------------------------

  ==> Geometry <==

    Molecular point group: c1
    Full point group: C1

    Geometry (in Angstrom), charge = -1, multiplicity = 1:

       Center              X                  Y                   Z               Mass
    ------------   -----------------  -----------------  -----------------  -----------------
         C           -1.469845005146     0.522676339652     0.323609592429    12.000000000000
         C           -2.688845005146     1.054676339652     1.075609592429    12.000000000000
         C           -0.509845005146     1.608676339652    -0.043390407571    12.000000000000
         O           -0.770845005146     2.809676339652     0.143609592429    15.994914619570
         O            0.568154994854     1.264676339652    -0.560390407571    15.994914619570
         H           -0.963845005146    -0.241323660348     0.911609592429     1.007825032230
         H           -1.800845005146     0.055676339652    -0.606390407571     1.007825032230
         H           -3.039845005146     1.972676339652     0.600609592429     1.007825032230
         H           -2.382541005146     1.270366339652     2.109849592429     1.007825032230
         H           -3.504915005146     0.321356339652     0.996429592429     1.007825032230
         C            1.028154994854    -2.290323660348    -0.064390407571    12.000000000000
         C            1.830154994854    -3.581323660348    -0.205390407571    12.000000000000
         O            1.779154994854    -1.226323660348    -0.596390407571    15.994914619570
         H            0.083154994854    -2.377323660348    -0.602390407571     1.007825032230
         H            0.818154994854    -2.106323660348     0.989609592429     1.007825032230
         H            1.185154994854    -4.400323660348     0.109609592429     1.007825032230
         H            1.295154994854    -0.375323660348    -0.490390407571     1.007825032230
         H            2.753757994854    -3.600923660348     0.391749592429     1.007825032230
         H            2.091008994854    -3.741623660348    -1.261920407571     1.007825032230

  Running in c1 symmetry.

  Rotational constants: A =      0.11753  B =      0.02456  C =      0.02072 [cm^-1]
  Rotational constants: A =   3523.58680  B =    736.15375  C =    621.14953 [MHz]
  Nuclear repulsion =  371.456606960655961

  Charge       = -1
  Multiplicity = 1
  Electrons    = 66
  Nalpha       = 33
  Nbeta        = 33

  ==> Algorithm <==

  SCF Algorithm Type is PK.
  DIIS enabled.
  MOM disabled.
  Fractional occupation disabled.
  Guess Type is SAD.
  Energy threshold   = 1.00e-06
  Density threshold  = 1.00e-10
  Integral threshold = 0.00e+00

  ==> Primary Basis <==

  Basis Set: CC-PVDZ
    Blend: CC-PVDZ
    Number of shells: 81
    Number of basis function: 167
    Number of Cartesian functions: 175
    Spherical Harmonics?: true
    Max angular momentum: 2

  ==> Pre-Iterations <==

   -------------------------------------------------------
    Irrep   Nso     Nmo     Nalpha   Nbeta   Ndocc  Nsocc
   -------------------------------------------------------
     A        167     167       0       0       0       0
   -------------------------------------------------------
    Total     167     167      33      33      33       0
   -------------------------------------------------------

  ==> Integral Setup <==

  Using integral reordering PK algorithm.
  Sizing the integral batches needed.
  Building batch lookup table.
   Calculation information:
      Number of atoms:                  19
      Number of AO shells:              81
      Number of primitives:            231
      Number of atomic orbitals:       175
      Number of basis functions:       167

      Integral cutoff                 1.00e-12
      Number of threads:                 1

	Batch   1 pq = [       0,    9405] index = [             0,44231715] size =     44231715
	Batch   2 pq = [    9405,   13301] index = [      44231715,88464951] size =     44233236
	Batch   3 pq = [   13301,   14028] index = [      88464951,98399406] size =      9934455
  Task number: 9
  Buffer size: 11059200
  Buffer per thread: 2
  We computed 4266608 shell quartets total.
  Whereas there are 5516181 unique shell quartets.

  ==> DiskJK: Disk-Based J/K Matrices <==

    J tasked:                  Yes
    K tasked:                  Yes
    wK tasked:                  No
    Memory [MiB]:              375
    Schwarz Cutoff:          1E-12

    OpenMP threads:              1

  Minimum eigenvalue in the overlap matrix is 3.3224266048E-03.
  Using Symmetric Orthogonalization.

  SCF Guess: Superposition of Atomic Densities via on-the-fly atomic UHF.

  ==> Iterations <==

                        Total Energy        Delta E     RMS |[F,P]|

   @RHF iter SAD:  -418.74763962473969   -4.18748e+02   0.00000e+00
   @RHF iter   1:  -420.08930422029601   -1.34166e+00   4.64765e-03 DIIS
   @RHF iter   2:  -420.31972132671854   -2.30417e-01   2.56900e-03 DIIS
   @RHF iter   3:  -420.38725354713768   -6.75322e-02   3.97463e-04 DIIS
   @RHF iter   4:  -420.39029510501308   -3.04156e-03   1.58223e-04 DIIS
   @RHF iter   5:  -420.39072578498337   -4.30680e-04   2.91365e-05 DIIS
   @RHF iter   6:  -420.39074293127135   -1.71463e-05   1.24614e-05 DIIS
   @RHF iter   7:  -420.39074524306187   -2.31179e-06   2.78731e-06 DIIS
   @RHF iter   8:  -420.39074547169707   -2.28635e-07   1.11676e-06 DIIS
   @RHF iter   9:  -420.39074550443428   -3.27372e-08   4.72672e-07 DIIS
   @RHF iter  10:  -420.39074551271506   -8.28078e-09   1.75291e-07 DIIS
   @RHF iter  11:  -420.39074551398005   -1.26499e-09   5.31505e-08 DIIS
   @RHF iter  12:  -420.39074551408061   -1.00556e-10   1.75631e-08 DIIS
   @RHF iter  13:  -420.39074551409357   -1.29603e-11   4.20993e-09 DIIS
   @RHF iter  14:  -420.39074551409419   -6.25278e-13   9.43338e-10 DIIS
   @RHF iter  15:  -420.39074551409198    2.21689e-12   2.80644e-10 DIIS
   @RHF iter  16:  -420.39074551409396   -1.98952e-12   1.02041e-10 DIIS
   @RHF iter  17:  -420.39074551409504   -1.08002e-12   3.89262e-11 DIIS
  Energy and wave function converged.

  ==> Post-Iterations <==

    Orbital Energies [Eh]
    ---------------------

    Doubly Occupied:

       1A    -20.376388     2A    -20.282124     3A    -20.279977
       4A    -11.144645     5A    -11.130918     6A    -11.113334
       7A    -11.080775     8A    -11.067674     9A     -1.189337
      10A     -1.179004    11A     -1.060666    12A     -0.887746
      13A     -0.886627    14A     -0.718607    15A     -0.706278
      16A     -0.551687    17A     -0.522853    18A     -0.514218
      19A     -0.477114    20A     -0.455401    21A     -0.437178
      22A     -0.411080    23A     -0.406351    24A     -0.402500
      25A     -0.380080    26A     -0.369514    27A     -0.342266
      28A     -0.335744    29A     -0.318021    30A     -0.282652
      31A     -0.208321    32A     -0.191352    33A     -0.184729

    Virtual:

      34A      0.296249    35A      0.316083    36A      0.339254
      37A      0.342756    38A      0.363247    39A      0.372259
      40A      0.393970    41A      0.410720    42A      0.415228
      43A      0.427898    44A      0.464429    45A      0.488131
      46A      0.511442    47A      0.541249    48A      0.578992
      49A      0.606460    50A      0.688785    51A      0.710217
      52A      0.719452    53A      0.745674    54A      0.751640
      55A      0.764988    56A      0.846071    57A      0.857130
      58A      0.888208    59A      0.894479    60A      0.914668
      61A      0.945403    62A      0.963572    63A      0.985712
      64A      0.994692    65A      0.999226    66A      1.000075
      67A      1.011554    68A      1.018731    69A      1.029157
      70A      1.032041    71A      1.050083    72A      1.054052
      73A      1.067873    74A      1.080685    75A      1.086792
      76A      1.130798    77A      1.151894    78A      1.239567
      79A      1.251065    80A      1.281513    81A      1.286473
      82A      1.302520    83A      1.327397    84A      1.412411
      85A      1.431422    86A      1.466654    87A      1.489252
      88A      1.513226    89A      1.539631    90A      1.575549
      91A      1.590585    92A      1.618402    93A      1.620351
      94A      1.652901    95A      1.678094    96A      1.706982
      97A      1.715462    98A      1.784272    99A      1.797591
     100A      1.813768   101A      1.826830   102A      1.836467
     103A      1.862916   104A      1.927928   105A      1.956569
     106A      1.989487   107A      2.001180   108A      2.006597
     109A      2.013354   110A      2.026137   111A      2.046629
     112A      2.065926   113A      2.073453   114A      2.093082
     115A      2.102645   116A      2.119836   117A      2.135562
     118A      2.144728   119A      2.163312   120A      2.176033
     121A      2.201494   122A      2.213221   123A      2.233150
     124A      2.237653   125A      2.308154   126A      2.351426
     127A      2.374777   128A      2.398191   129A      2.418753
     130A      2.439135   131A      2.477955   132A      2.498765
     133A      2.535319   134A      2.597144   135A      2.616103
     136A      2.638636   137A      2.653148   138A      2.706365
     139A      2.727951   140A      2.751457   141A      2.774071
     142A      2.856235   143A      2.888595   144A      2.906453
     145A      2.914096   146A      2.928746   147A      2.974569
     148A      2.987693   149A      3.019806   150A      3.034775
     151A      3.050023   152A      3.120625   153A      3.229470
     154A      3.278865   155A      3.303473   156A      3.386027
     157A      3.488335   158A      3.589258   159A      3.615217
     160A      3.647145   161A      3.764107   162A      3.796771
     163A      3.808159   164A      4.056269   165A      4.104368
     166A      4.213474   167A      4.339394

    Final Occupation by Irrep:
              A
    DOCC [    33 ]

  @RHF Final Energy:  -420.39074551409504

   => Energetics <=

    Nuclear Repulsion Energy =            371.4566069606559608
    One-Electron Energy =               -1323.9043803950069105
    Two-Electron Energy =                 532.0570279202559050
    Total Energy =                       -420.3907455140949878

Computation Completed

Properties will be evaluated at   0.000000,   0.000000,   0.000000 [a0]

Properties computed using the SCF density matrix

  Nuclear Dipole Moment: [e a0]
     X:    -3.2413      Y:   -12.3826      Z:     2.9466

  Electronic Dipole Moment: [e a0]
     X:     2.4748      Y:     9.3543      Z:    -2.3084

  Dipole Moment: [e a0]
     X:    -0.7665      Y:    -3.0283      Z:     0.6383     Total:     3.1884

  Dipole Moment: [D]
     X:    -1.9483      Y:    -7.6972      Z:     1.6223     Total:     8.1040

*** tstop() called on ds3 at Tue Apr 28 10:40:54 2020
Module time:
	user time   =      30.63 seconds =       0.51 minutes
	system time =      14.73 seconds =       0.25 minutes
	total time  =         45 seconds =       0.75 minutes
Total time:
	user time   =      30.63 seconds =       0.51 minutes
	system time =      14.73 seconds =       0.25 minutes
	total time  =         45 seconds =       0.75 minutes
                                     G D M A

                                 by Anthony Stone

                           version 2.2.06, 22 June 2011

               Distributed Multipoles from Gaussian wavefunctions

Starting at 10:40:54 on 28 Apr 2020

Using SCF density matrix from file ./SSI/SSI-033ASP-276SER-1-dimer.test.8519.fchk

                         Distributed Multipole Analysis

Standard DMA

Positions and radii in angstrom
Multipole moments in atomic units, ea_0^k for rank k

C          x = -1.469845  y =  0.522676  z =  0.323610 angstrom
           Maximum rank =  0   Radius =  0.650 angstrom
                   Q00  =  -0.179630

C          x = -2.688845  y =  1.054676  z =  1.075610 angstrom
           Maximum rank =  0   Radius =  0.650 angstrom
                   Q00  =  -0.207183

C          x = -0.509845  y =  1.608676  z = -0.043390 angstrom
           Maximum rank =  0   Radius =  0.650 angstrom
                   Q00  =   1.003136

O          x = -0.770845  y =  2.809676  z =  0.143610 angstrom
           Maximum rank =  0   Radius =  0.650 angstrom
                   Q00  =  -0.938004

O          x =  0.568155  y =  1.264676  z = -0.560390 angstrom
           Maximum rank =  0   Radius =  0.650 angstrom
                   Q00  =  -0.965939

H          x = -0.963845  y = -0.241324  z =  0.911610 angstrom
           Maximum rank =  0   Radius =  0.325 angstrom
                   Q00  =   0.051546

H          x = -1.800845  y =  0.055676  z = -0.606390 angstrom
           Maximum rank =  0   Radius =  0.325 angstrom
                   Q00  =   0.059536

H          x = -3.039845  y =  1.972676  z =  0.600610 angstrom
           Maximum rank =  0   Radius =  0.325 angstrom
                   Q00  =   0.099871

H          x = -2.382541  y =  1.270366  z =  2.109850 angstrom
           Maximum rank =  0   Radius =  0.325 angstrom
                   Q00  =   0.069584

H          x = -3.504915  y =  0.321356  z =  0.996430 angstrom
           Maximum rank =  0   Radius =  0.325 angstrom
                   Q00  =   0.021311

C          x =  1.028155  y = -2.290324  z = -0.064390 angstrom
           Maximum rank =  0   Radius =  0.650 angstrom
                   Q00  =   0.154371

C          x =  1.830155  y = -3.581324  z = -0.205390 angstrom
           Maximum rank =  0   Radius =  0.650 angstrom
                   Q00  =  -0.251894

O          x =  1.779155  y = -1.226324  z = -0.596390 angstrom
           Maximum rank =  0   Radius =  0.650 angstrom
                   Q00  =  -0.669450

H          x =  0.083155  y = -2.377324  z = -0.602390 angstrom
           Maximum rank =  0   Radius =  0.325 angstrom
                   Q00  =   0.016964

H          x =  0.818155  y = -2.106324  z =  0.989610 angstrom
           Maximum rank =  0   Radius =  0.325 angstrom
                   Q00  =   0.010582

H          x =  1.185155  y = -4.400324  z =  0.109610 angstrom
           Maximum rank =  0   Radius =  0.325 angstrom
                   Q00  =   0.049991

H          x =  1.295155  y = -0.375324  z = -0.490390 angstrom
           Maximum rank =  0   Radius =  0.325 angstrom
                   Q00  =   0.525827

H          x =  2.753758  y = -3.600924  z =  0.391750 angstrom
           Maximum rank =  0   Radius =  0.325 angstrom
                   Q00  =   0.074501

H          x =  2.091009  y = -3.741624  z = -1.261920 angstrom
           Maximum rank =  0   Radius =  0.325 angstrom
                   Q00  =   0.074880

Total multipoles referred to origin at
           x =   0.000000,  y =    0.000000,  z =    0.000000 angstrom
                   Q00  =  -1.000000

Finished at 10:40:54 on 28 Apr 2020

  DMA results are available in the Python driver through the
	  variable('DMA DISTRIBUTED MULTIPOLES')
  and
	  variable('DMA TOTAL MULTIPOLES')
  commands.

    Psi4 stopped on: Tuesday, 28 April 2020 10:40AM
    Psi4 wall time for execution: 0:00:44.53

*** Psi4 exiting successfully. Buy a developer a beer!
