                               Psi4 1.3.2 release

  ==> Input File <==

--------------------------------------------------------------------------
import numpy as np
set {scf_type pk
basis cc-pvdz
d_convergence 10
gdma_switch   0
gdma_limit    0
gdma_origin   [ 0.0,  0.0,  0.0 ]
}
molecule test {
    units Angstrom
    0 1
    --
    0 1
    C                1.299307293242560     2.726054071745387    -0.739608414637310
    C                1.723307293242560     3.767054071745387     0.284391585362690
    H                0.249307293242560     2.467054071745387    -0.602608414637310
    H                1.433307293242560     3.131054071745387    -1.742608414637310
    H                1.902307293242560     1.830054071745387    -0.654608414637309
    H                2.773307293242560     4.016054071745387     0.132391585362691
    H                1.573427293242560     3.369764071745387     1.299131585362690
    H                1.130217293242560     4.684824071745388     0.158121585362691
    C                1.659307293242560    -2.716945928254613     1.052391585362691
    C               -0.879692706757440     0.102054071745387     0.868391585362691
    C                0.101307293242560    -0.760945928254613     1.337391585362690
    C               -1.392692706757440    -0.062945928254613    -0.412608414637309
    C                0.596307293242560    -1.779945928254613     0.531391585362690
    C               -0.919692706757440    -1.083945928254613    -1.224608414637310
    C                0.066307293242560    -1.942945928254613    -0.747608414637310
    O               -2.356692706757440     0.787054071745387    -0.853608414637310
    H               -1.246692706757440     0.895054071745387     1.504391585362690
    H                0.482307293242560    -0.633945928254613     2.340391585362690
    H               -2.553692706757440     1.477054071745387    -0.215608414637309
    H               -1.331692706757440    -1.207945928254613    -2.214608414637310
    H                1.517307293242560    -3.701945928254613     0.601391585362691
    H                1.507307293242560    -2.818945928254613     2.125391585362690
    H                0.432307293242560    -2.739945928254613    -1.382608414637309
    H                2.698197293242560    -2.392425928254613     0.893001585362690

}
e, wfn = energy('scf', return_wfn=True)
gdma(wfn)
dmavals = variable('DMA DISTRIBUTED MULTIPOLES')
charges = np.array(dmavals)
print(charges)
np.save('SSI-004LEU-031TYR-1-dimer.npy', np.array(charges))--------------------------------------------------------------------------

*** tstart() called on ds3
*** at Mon Apr 27 06:08:07 2020

   => Loading Basis Set <=

    Name: CC-PVDZ
    Role: ORBITAL
    Keyword: BASIS
    atoms 1-2, 9-15  entry C          line   138 file /theoryfs2/ds/metcalf/miniconda2/envs/tf2gpu/share/psi4/basis/cc-pvdz.gbs
    atoms 3-8, 17-24 entry H          line    22 file /theoryfs2/ds/metcalf/miniconda2/envs/tf2gpu/share/psi4/basis/cc-pvdz.gbs
    atoms 16         entry O          line   198 file /theoryfs2/ds/metcalf/miniconda2/envs/tf2gpu/share/psi4/basis/cc-pvdz.gbs

         ---------------------------------------------------------
                                   SCF
               by Justin Turney, Rob Parrish, Andy Simmonett
                          and Daniel G. A. Smith
                              RHF Reference
                        1 Threads,    500 MiB Core
         ---------------------------------------------------------

  ==> Geometry <==

    Molecular point group: c1
    Full point group: C1

    Geometry (in Angstrom), charge = 0, multiplicity = 1:

       Center              X                  Y                   Z               Mass
    ------------   -----------------  -----------------  -----------------  -----------------
         C            1.299307293243     2.726054071745    -0.739608414637    12.000000000000
         C            1.723307293243     3.767054071745     0.284391585363    12.000000000000
         H            0.249307293243     2.467054071745    -0.602608414637     1.007825032230
         H            1.433307293243     3.131054071745    -1.742608414637     1.007825032230
         H            1.902307293243     1.830054071745    -0.654608414637     1.007825032230
         H            2.773307293243     4.016054071745     0.132391585363     1.007825032230
         H            1.573427293243     3.369764071745     1.299131585363     1.007825032230
         H            1.130217293243     4.684824071745     0.158121585363     1.007825032230
         C            1.659307293243    -2.716945928255     1.052391585363    12.000000000000
         C           -0.879692706757     0.102054071745     0.868391585363    12.000000000000
         C            0.101307293243    -0.760945928255     1.337391585363    12.000000000000
         C           -1.392692706757    -0.062945928255    -0.412608414637    12.000000000000
         C            0.596307293243    -1.779945928255     0.531391585363    12.000000000000
         C           -0.919692706757    -1.083945928255    -1.224608414637    12.000000000000
         C            0.066307293243    -1.942945928255    -0.747608414637    12.000000000000
         O           -2.356692706757     0.787054071745    -0.853608414637    15.994914619570
         H           -1.246692706757     0.895054071745     1.504391585363     1.007825032230
         H            0.482307293243    -0.633945928255     2.340391585363     1.007825032230
         H           -2.553692706757     1.477054071745    -0.215608414637     1.007825032230
         H           -1.331692706757    -1.207945928255    -2.214608414637     1.007825032230
         H            1.517307293243    -3.701945928255     0.601391585363     1.007825032230
         H            1.507307293243    -2.818945928255     2.125391585363     1.007825032230
         H            0.432307293243    -2.739945928255    -1.382608414637     1.007825032230
         H            2.698197293243    -2.392425928255     0.893001585363     1.007825032230

  Running in c1 symmetry.

  Rotational constants: A =      0.04509  B =      0.02541  C =      0.01930 [cm^-1]
  Rotational constants: A =   1351.63085  B =    761.91552  C =    578.44964 [MHz]
  Nuclear repulsion =  498.821077063383029

  Charge       = 0
  Multiplicity = 1
  Electrons    = 76
  Nalpha       = 38
  Nbeta        = 38

  ==> Algorithm <==

  SCF Algorithm Type is PK.
  DIIS enabled.
  MOM disabled.
  Fractional occupation disabled.
  Guess Type is SAD.
  Energy threshold   = 1.00e-06
  Density threshold  = 1.00e-10
  Integral threshold = 0.00e+00

  ==> Primary Basis <==

  Basis Set: CC-PVDZ
    Blend: CC-PVDZ
    Number of shells: 102
    Number of basis function: 210
    Number of Cartesian functions: 220
    Spherical Harmonics?: true
    Max angular momentum: 2

  ==> Pre-Iterations <==

   -------------------------------------------------------
    Irrep   Nso     Nmo     Nalpha   Nbeta   Ndocc  Nsocc
   -------------------------------------------------------
     A        210     210       0       0       0       0
   -------------------------------------------------------
    Total     210     210      38      38      38       0
   -------------------------------------------------------

  ==> Integral Setup <==

  Using integral reordering PK algorithm.
  Sizing the integral batches needed.
  Building batch lookup table.
   Calculation information:
      Number of atoms:                  24
      Number of AO shells:             102
      Number of primitives:            290
      Number of atomic orbitals:       220
      Number of basis functions:       210

      Integral cutoff                 1.00e-12
      Number of threads:                 1

	Batch   1 pq = [       0,    9405] index = [             0,44231715] size =     44231715
	Batch   2 pq = [    9405,   13301] index = [      44231715,88464951] size =     44233236
	Batch   3 pq = [   13301,   16290] index = [      88464951,132690195] size =     44225244
	Batch   4 pq = [   16290,   18810] index = [     132690195,176917455] size =     44227260
	Batch   5 pq = [   18810,   21030] index = [     176917455,221140965] size =     44223510
	Batch   6 pq = [   21030,   22155] index = [     221140965,245433090] size =     24292125
  Task number: 23
  Buffer size: 11059200
  Buffer per thread: 2
  We computed 12055172 shell quartets total.
  Whereas there are 13799631 unique shell quartets.

  ==> DiskJK: Disk-Based J/K Matrices <==

    J tasked:                  Yes
    K tasked:                  Yes
    wK tasked:                  No
    Memory [MiB]:              375
    Schwarz Cutoff:          1E-12

    OpenMP threads:              1

  Minimum eigenvalue in the overlap matrix is 3.2001297734E-04.
  Using Symmetric Orthogonalization.

  SCF Guess: Superposition of Atomic Densities via on-the-fly atomic UHF.

  ==> Iterations <==

                        Total Energy        Delta E     RMS |[F,P]|

   @RHF iter SAD:  -422.72762153693088   -4.22728e+02   0.00000e+00
   @RHF iter   1:  -423.60026875111345   -8.72647e-01   2.99495e-03 DIIS
   @RHF iter   2:  -423.81837230719714   -2.18104e-01   1.26536e-03 DIIS
   @RHF iter   3:  -423.85373966861448   -3.53674e-02   2.82945e-04 DIIS
   @RHF iter   4:  -423.85658934826336   -2.84968e-03   1.17548e-04 DIIS
   @RHF iter   5:  -423.85694439601860   -3.55048e-04   2.07486e-05 DIIS
   @RHF iter   6:  -423.85696180333866   -1.74073e-05   6.31115e-06 DIIS
   @RHF iter   7:  -423.85696340686650   -1.60353e-06   2.04330e-06 DIIS
   @RHF iter   8:  -423.85696362862342   -2.21757e-07   7.72096e-07 DIIS
   @RHF iter   9:  -423.85696366641548   -3.77921e-08   3.22134e-07 DIIS
   @RHF iter  10:  -423.85696367397583   -7.56035e-09   1.37938e-07 DIIS
   @RHF iter  11:  -423.85696367636422   -2.38839e-09   5.90552e-08 DIIS
   @RHF iter  12:  -423.85696367678560   -4.21380e-10   2.74986e-08 DIIS
   @RHF iter  13:  -423.85696367685307   -6.74731e-11   7.81897e-09 DIIS
   @RHF iter  14:  -423.85696367685568   -2.61480e-12   2.06793e-09 DIIS
   @RHF iter  15:  -423.85696367685620   -5.11591e-13   6.43751e-10 DIIS
   @RHF iter  16:  -423.85696367685665   -4.54747e-13   1.87716e-10 DIIS
   @RHF iter  17:  -423.85696367685682   -1.70530e-13   6.82898e-11 DIIS
  Energy and wave function converged.

  ==> Post-Iterations <==

    Orbital Energies [Eh]
    ---------------------

    Doubly Occupied:

       1A    -20.583474     2A    -11.298334     3A    -11.238322
       4A    -11.237768     5A    -11.232657     6A    -11.231815
       7A    -11.229770     8A    -11.227933     9A    -11.216218
      10A    -11.209027    11A     -1.402591    12A     -1.152233
      13A     -1.037557    14A     -1.019065    15A     -1.016035
      16A     -0.926491    17A     -0.845349    18A     -0.831865
      19A     -0.803723    20A     -0.734096    21A     -0.669608
      22A     -0.642183    23A     -0.607521    24A     -0.598430
      25A     -0.593728    26A     -0.587539    27A     -0.585999
      28A     -0.568968    29A     -0.566822    30A     -0.526275
      31A     -0.498394    32A     -0.497689    33A     -0.484709
      34A     -0.482002    35A     -0.480222    36A     -0.467030
      37A     -0.339199    38A     -0.301831

    Virtual:

      39A      0.129858    40A      0.155052    41A      0.166174
      42A      0.184339    43A      0.202916    44A      0.213591
      45A      0.217950    46A      0.243715    47A      0.253322
      48A      0.261225    49A      0.267502    50A      0.271630
      51A      0.279516    52A      0.293073    53A      0.298992
      54A      0.314237    55A      0.370466    56A      0.374593
      57A      0.401808    58A      0.433018    59A      0.456726
      60A      0.481456    61A      0.499908    62A      0.508001
      63A      0.583231    64A      0.594875    65A      0.602703
      66A      0.614470    67A      0.633362    68A      0.648372
      69A      0.655482    70A      0.667869    71A      0.682606
      72A      0.688516    73A      0.705011    74A      0.723178
      75A      0.736465    76A      0.739778    77A      0.763695
      78A      0.770983    79A      0.786771    80A      0.792956
      81A      0.820489    82A      0.844182    83A      0.850185
      84A      0.863351    85A      0.872846    86A      0.876383
      87A      0.881972    88A      0.888907    89A      0.893184
      90A      0.896816    91A      0.902625    92A      0.917186
      93A      0.921714    94A      0.929003    95A      0.938838
      96A      0.941416    97A      0.943674    98A      0.969255
      99A      0.989176   100A      1.018682   101A      1.027167
     102A      1.055931   103A      1.122251   104A      1.129446
     105A      1.135572   106A      1.143640   107A      1.154290
     108A      1.179989   109A      1.204040   110A      1.236276
     111A      1.248052   112A      1.249807   113A      1.275278
     114A      1.299826   115A      1.307909   116A      1.313814
     117A      1.323095   118A      1.357138   119A      1.364333
     120A      1.387917   121A      1.481186   122A      1.482726
     123A      1.489045   124A      1.504892   125A      1.526264
     126A      1.551444   127A      1.574324   128A      1.614610
     129A      1.626590   130A      1.681392   131A      1.687032
     132A      1.697158   133A      1.705256   134A      1.743222
     135A      1.750797   136A      1.780714   137A      1.801136
     138A      1.808858   139A      1.863408   140A      1.872040
     141A      1.881777   142A      1.891682   143A      1.895440
     144A      1.911975   145A      1.913242   146A      1.918310
     147A      1.920041   148A      1.943624   149A      1.951395
     150A      1.955639   151A      1.961572   152A      1.963506
     153A      1.974660   154A      1.981084   155A      1.985174
     156A      1.994404   157A      2.044096   158A      2.046095
     159A      2.057250   160A      2.065019   161A      2.075147
     162A      2.105524   163A      2.117990   164A      2.146163
     165A      2.152798   166A      2.163319   167A      2.202811
     168A      2.234244   169A      2.258749   170A      2.275087
     171A      2.299690   172A      2.300663   173A      2.316792
     174A      2.325025   175A      2.380982   176A      2.428132
     177A      2.461342   178A      2.466290   179A      2.469468
     180A      2.474260   181A      2.492890   182A      2.543080
     183A      2.547268   184A      2.570758   185A      2.587969
     186A      2.598470   187A      2.656161   188A      2.753264
     189A      2.764370   190A      2.769894   191A      2.790617
     192A      2.805651   193A      2.811477   194A      2.849526
     195A      2.857591   196A      2.869022   197A      2.899517
     198A      2.954841   199A      2.964171   200A      2.994274
     201A      3.002571   202A      3.093909   203A      3.115286
     204A      3.253105   205A      3.285682   206A      3.351327
     207A      3.584998   208A      3.675147   209A      3.988565
     210A      4.198097

    Final Occupation by Irrep:
              A
    DOCC [    38 ]

  @RHF Final Energy:  -423.85696367685682

   => Energetics <=

    Nuclear Repulsion Energy =            498.8210770633830293
    One-Electron Energy =               -1563.4111371359247187
    Two-Electron Energy =                 640.7330963956849246
    Total Energy =                       -423.8569636768568216

Computation Completed

Properties will be evaluated at   0.000000,   0.000000,   0.000000 [a0]

Properties computed using the SCF density matrix

  Nuclear Dipole Moment: [e a0]
     X:     9.8951      Y:     7.8558      Z:     2.0973

  Electronic Dipole Moment: [e a0]
     X:    -9.7464      Y:    -7.7492      Z:    -1.6096

  Dipole Moment: [e a0]
     X:     0.1487      Y:     0.1066      Z:     0.4877     Total:     0.5209

  Dipole Moment: [D]
     X:     0.3779      Y:     0.2709      Z:     1.2397     Total:     1.3240

*** tstop() called on ds3 at Mon Apr 27 06:10:03 2020
Module time:
	user time   =      83.37 seconds =       1.39 minutes
	system time =      35.74 seconds =       0.60 minutes
	total time  =        116 seconds =       1.93 minutes
Total time:
	user time   =      83.37 seconds =       1.39 minutes
	system time =      35.74 seconds =       0.60 minutes
	total time  =        116 seconds =       1.93 minutes
                                     G D M A

                                 by Anthony Stone

                           version 2.2.06, 22 June 2011

               Distributed Multipoles from Gaussian wavefunctions

Starting at 6:10:3 on 27 Apr 2020

Using SCF density matrix from file ./SSI/SSI-004LEU-031TYR-1-dimer.test.595.fchk

                         Distributed Multipole Analysis

Standard DMA

Positions and radii in angstrom
Multipole moments in atomic units, ea_0^k for rank k

C          x =  1.299307  y =  2.726054  z = -0.739608 angstrom
           Maximum rank =  0   Radius =  0.650 angstrom
                   Q00  =  -0.225473

C          x =  1.723307  y =  3.767054  z =  0.284392 angstrom
           Maximum rank =  0   Radius =  0.650 angstrom
                   Q00  =  -0.232140

H          x =  0.249307  y =  2.467054  z = -0.602608 angstrom
           Maximum rank =  0   Radius =  0.325 angstrom
                   Q00  =   0.066770

H          x =  1.433307  y =  3.131054  z = -1.742608 angstrom
           Maximum rank =  0   Radius =  0.325 angstrom
                   Q00  =   0.073243

H          x =  1.902307  y =  1.830054  z = -0.654608 angstrom
           Maximum rank =  0   Radius =  0.325 angstrom
                   Q00  =   0.085598

H          x =  2.773307  y =  4.016054  z =  0.132392 angstrom
           Maximum rank =  0   Radius =  0.325 angstrom
                   Q00  =   0.079099

H          x =  1.573427  y =  3.369764  z =  1.299132 angstrom
           Maximum rank =  0   Radius =  0.325 angstrom
                   Q00  =   0.072414

H          x =  1.130217  y =  4.684824  z =  0.158122 angstrom
           Maximum rank =  0   Radius =  0.325 angstrom
                   Q00  =   0.073615

C          x =  1.659307  y = -2.716946  z =  1.052392 angstrom
           Maximum rank =  0   Radius =  0.650 angstrom
                   Q00  =  -0.191994

C          x = -0.879693  y =  0.102054  z =  0.868392 angstrom
           Maximum rank =  0   Radius =  0.650 angstrom
                   Q00  =  -0.176727

C          x =  0.101307  y = -0.760946  z =  1.337392 angstrom
           Maximum rank =  0   Radius =  0.650 angstrom
                   Q00  =   0.031775

C          x = -1.392693  y = -0.062946  z = -0.412608 angstrom
           Maximum rank =  0   Radius =  0.650 angstrom
                   Q00  =   0.317637

C          x =  0.596307  y = -1.779946  z =  0.531392 angstrom
           Maximum rank =  0   Radius =  0.650 angstrom
                   Q00  =  -0.142651

C          x = -0.919693  y = -1.083946  z = -1.224608 angstrom
           Maximum rank =  0   Radius =  0.650 angstrom
                   Q00  =  -0.119777

C          x =  0.066307  y = -1.942946  z = -0.747608 angstrom
           Maximum rank =  0   Radius =  0.650 angstrom
                   Q00  =  -0.013284

O          x = -2.356693  y =  0.787054  z = -0.853608 angstrom
           Maximum rank =  0   Radius =  0.650 angstrom
                   Q00  =  -0.676264

H          x = -1.246693  y =  0.895054  z =  1.504392 angstrom
           Maximum rank =  0   Radius =  0.325 angstrom
                   Q00  =   0.069191

H          x =  0.482307  y = -0.633946  z =  2.340392 angstrom
           Maximum rank =  0   Radius =  0.325 angstrom
                   Q00  =   0.067601

H          x = -2.553693  y =  1.477054  z = -0.215608 angstrom
           Maximum rank =  0   Radius =  0.325 angstrom
                   Q00  =   0.407369

H          x = -1.331693  y = -1.207946  z = -2.214608 angstrom
           Maximum rank =  0   Radius =  0.325 angstrom
                   Q00  =   0.080829

H          x =  1.517307  y = -3.701946  z =  0.601392 angstrom
           Maximum rank =  0   Radius =  0.325 angstrom
                   Q00  =   0.095977

H          x =  1.507307  y = -2.818946  z =  2.125392 angstrom
           Maximum rank =  0   Radius =  0.325 angstrom
                   Q00  =   0.093493

H          x =  0.432307  y = -2.739946  z = -1.382608 angstrom
           Maximum rank =  0   Radius =  0.325 angstrom
                   Q00  =   0.063736

H          x =  2.698197  y = -2.392426  z =  0.893002 angstrom
           Maximum rank =  0   Radius =  0.325 angstrom
                   Q00  =   0.099961

Total multipoles referred to origin at
           x =   0.000000,  y =    0.000000,  z =    0.000000 angstrom
                   Q00  =  -0.000000

Finished at 6:10:3 on 27 Apr 2020

  DMA results are available in the Python driver through the
	  variable('DMA DISTRIBUTED MULTIPOLES')
  and
	  variable('DMA TOTAL MULTIPOLES')
  commands.

    Psi4 stopped on: Monday, 27 April 2020 06:10AM
    Psi4 wall time for execution: 0:01:55.89

*** Psi4 exiting successfully. Buy a developer a beer!
