                               Psi4 1.3.2 release

  ==> Input File <==

--------------------------------------------------------------------------
import numpy as np
set {scf_type pk
basis cc-pvdz
d_convergence 10
gdma_switch   0
gdma_limit    0
gdma_origin   [ 0.0,  0.0,  0.0 ]
}
molecule test {
    units Angstrom
    0 1
    --
    0 1
    C               -1.070406234716146    -1.166036895842284    -1.388556825811476
    C               -0.676406234716146    -0.455036895842284    -2.682556825811477
    H               -1.830406234716146    -1.925036895842284    -1.567556825811476
    H               -0.193406234716146    -1.644036895842284    -0.956556825811476
    H               -1.458406234716146    -0.441036895842284    -0.674556825811476
    H                0.103593765283854     0.272963104157716    -2.458556825811477
    H               -1.540376234716146     0.072393104157716    -3.113107825811476
    H               -0.288686234716146    -1.191016895842284    -3.402282825811477
    C                0.486593765283854     0.192963104157716     1.793443174188524
    C                1.254593765283854     1.427963104157716     2.269443174188523
    H                0.510593765283854     0.137963104157716     0.705443174188524
    H                0.953593765283854    -0.702036895842284     2.205443174188523
    H               -0.542406234716146     0.223963104157716     2.150443174188523
    H                1.121593765283854     1.507963104157716     3.343443174188523
    H                0.900973765283854     2.359893104157716     1.804196374188523
    H                2.330313765283854     1.329783104157716     2.061609974188523

}
e, wfn = energy('scf', return_wfn=True)
gdma(wfn)
dmavals = variable('DMA DISTRIBUTED MULTIPOLES')
charges = np.array(dmavals)
print(charges)
np.save('SSI-026THR-031LEU-1-dimer.npy', np.array(charges))--------------------------------------------------------------------------

*** tstart() called on ds3
*** at Sun Apr 26 23:57:28 2020

   => Loading Basis Set <=

    Name: CC-PVDZ
    Role: ORBITAL
    Keyword: BASIS
    atoms 1-2, 9-10  entry C          line   138 file /theoryfs2/ds/metcalf/miniconda2/envs/tf2gpu/share/psi4/basis/cc-pvdz.gbs
    atoms 3-8, 11-16 entry H          line    22 file /theoryfs2/ds/metcalf/miniconda2/envs/tf2gpu/share/psi4/basis/cc-pvdz.gbs

         ---------------------------------------------------------
                                   SCF
               by Justin Turney, Rob Parrish, Andy Simmonett
                          and Daniel G. A. Smith
                              RHF Reference
                        1 Threads,    500 MiB Core
         ---------------------------------------------------------

  ==> Geometry <==

    Molecular point group: c1
    Full point group: C1

    Geometry (in Angstrom), charge = 0, multiplicity = 1:

       Center              X                  Y                   Z               Mass
    ------------   -----------------  -----------------  -----------------  -----------------
         C           -1.070406234716    -1.166036895842    -1.388556825811    12.000000000000
         C           -0.676406234716    -0.455036895842    -2.682556825811    12.000000000000
         H           -1.830406234716    -1.925036895842    -1.567556825811     1.007825032230
         H           -0.193406234716    -1.644036895842    -0.956556825811     1.007825032230
         H           -1.458406234716    -0.441036895842    -0.674556825811     1.007825032230
         H            0.103593765284     0.272963104158    -2.458556825811     1.007825032230
         H           -1.540376234716     0.072393104158    -3.113107825811     1.007825032230
         H           -0.288686234716    -1.191016895842    -3.402282825811     1.007825032230
         C            0.486593765284     0.192963104158     1.793443174189    12.000000000000
         C            1.254593765284     1.427963104158     2.269443174189    12.000000000000
         H            0.510593765284     0.137963104158     0.705443174189     1.007825032230
         H            0.953593765284    -0.702036895842     2.205443174189     1.007825032230
         H           -0.542406234716     0.223963104158     2.150443174189     1.007825032230
         H            1.121593765284     1.507963104158     3.343443174189     1.007825032230
         H            0.900973765284     2.359893104158     1.804196374189     1.007825032230
         H            2.330313765284     1.329783104158     2.061609974189     1.007825032230

  Running in c1 symmetry.

  Rotational constants: A =      0.46910  B =      0.04670  C =      0.04392 [cm^-1]
  Rotational constants: A =  14063.18870  B =   1400.08680  C =   1316.77134 [MHz]
  Nuclear repulsion =  121.137332757995765

  Charge       = 0
  Multiplicity = 1
  Electrons    = 36
  Nalpha       = 18
  Nbeta        = 18

  ==> Algorithm <==

  SCF Algorithm Type is PK.
  DIIS enabled.
  MOM disabled.
  Fractional occupation disabled.
  Guess Type is SAD.
  Energy threshold   = 1.00e-06
  Density threshold  = 1.00e-10
  Integral threshold = 0.00e+00

  ==> Primary Basis <==

  Basis Set: CC-PVDZ
    Blend: CC-PVDZ
    Number of shells: 60
    Number of basis function: 116
    Number of Cartesian functions: 120
    Spherical Harmonics?: true
    Max angular momentum: 2

  ==> Pre-Iterations <==

   -------------------------------------------------------
    Irrep   Nso     Nmo     Nalpha   Nbeta   Ndocc  Nsocc
   -------------------------------------------------------
     A        116     116       0       0       0       0
   -------------------------------------------------------
    Total     116     116      18      18      18       0
   -------------------------------------------------------

  ==> Integral Setup <==

  Using integral reordering PK algorithm.
  Sizing the integral batches needed.
  Building batch lookup table.
   Calculation information:
      Number of atoms:                  16
      Number of AO shells:              60
      Number of primitives:            148
      Number of atomic orbitals:       120
      Number of basis functions:       116

      Integral cutoff                 1.00e-12
      Number of threads:                 1

	Batch   1 pq = [       0,    6786] index = [             0,23028291] size =     23028291
  Task number: 3
  Buffer size: 11059200
  Buffer per thread: 2
  We computed 1389352 shell quartets total.
  Whereas there are 1675365 unique shell quartets.

  ==> DiskJK: Disk-Based J/K Matrices <==

    J tasked:                  Yes
    K tasked:                  Yes
    wK tasked:                  No
    Memory [MiB]:              375
    Schwarz Cutoff:          1E-12

    OpenMP threads:              1

  Minimum eigenvalue in the overlap matrix is 7.3068899157E-03.
  Using Symmetric Orthogonalization.

  SCF Guess: Superposition of Atomic Densities via on-the-fly atomic UHF.

  ==> Iterations <==

                        Total Energy        Delta E     RMS |[F,P]|

   @RHF iter SAD:  -157.34791027700720   -1.57348e+02   0.00000e+00
   @RHF iter   1:  -158.30809602525608   -9.60186e-01   4.20887e-03 DIIS
   @RHF iter   2:  -158.44132458147573   -1.33229e-01   1.79331e-03 DIIS
   @RHF iter   3:  -158.46466010219214   -2.33355e-02   3.49980e-04 DIIS
   @RHF iter   4:  -158.46649809926117   -1.83800e-03   3.91957e-05 DIIS
   @RHF iter   5:  -158.46652210922633   -2.40100e-05   6.87073e-06 DIIS
   @RHF iter   6:  -158.46652277629514   -6.67069e-07   1.32979e-06 DIIS
   @RHF iter   7:  -158.46652279254454   -1.62494e-08   3.14340e-07 DIIS
   @RHF iter   8:  -158.46652279348572   -9.41185e-10   3.59032e-08 DIIS
   @RHF iter   9:  -158.46652279350718   -2.14584e-11   5.50939e-09 DIIS
   @RHF iter  10:  -158.46652279350701    1.70530e-13   1.33477e-09 DIIS
   @RHF iter  11:  -158.46652279350684    1.70530e-13   2.59481e-10 DIIS
   @RHF iter  12:  -158.46652279350741   -5.68434e-13   4.67878e-11 DIIS
  Energy and wave function converged.

  ==> Post-Iterations <==

    Orbital Energies [Eh]
    ---------------------

    Doubly Occupied:

       1A    -11.219492     2A    -11.218437     3A    -11.216819
       4A    -11.215460     5A     -1.019115     6A     -1.016748
       7A     -0.839783     8A     -0.834657     9A     -0.604136
      10A     -0.598330    11A     -0.595175    12A     -0.592721
      13A     -0.504196    14A     -0.499339    15A     -0.490739
      16A     -0.486847    17A     -0.483164    18A     -0.478800

    Virtual:

      19A      0.172421    20A      0.198459    21A      0.222224
      22A      0.238692    23A      0.243996    24A      0.253601
      25A      0.262633    26A      0.272771    27A      0.284126
      28A      0.287001    29A      0.301197    30A      0.341854
      31A      0.386007    32A      0.403856    33A      0.574290
      34A      0.594325    35A      0.600429    36A      0.602815
      37A      0.618136    38A      0.627629    39A      0.672636
      40A      0.679923    41A      0.701277    42A      0.791738
      43A      0.836357    44A      0.871949    45A      0.882391
      46A      0.890017    47A      0.891489    48A      0.894478
      49A      0.898208    50A      0.901102    51A      0.911811
      52A      0.919362    53A      0.926336    54A      0.947778
      55A      0.980909    56A      1.011632    57A      1.120072
      58A      1.124796    59A      1.136695    60A      1.157381
      61A      1.230482    62A      1.248283    63A      1.465588
      64A      1.470497    65A      1.476518    66A      1.487527
      67A      1.567023    68A      1.604039    69A      1.679344
      70A      1.686042    71A      1.694528    72A      1.699311
      73A      1.858762    74A      1.862939    75A      1.870755
      76A      1.884163    77A      1.889454    78A      1.909983
      79A      1.931763    80A      1.939867    81A      1.944096
      82A      1.945896    83A      1.948411    84A      1.954240
      85A      1.957621    86A      1.965967    87A      1.982751
      88A      2.022954    89A      2.094929    90A      2.104691
      91A      2.119526    92A      2.124188    93A      2.292581
      94A      2.302761    95A      2.320018    96A      2.326102
      97A      2.449517    98A      2.452344    99A      2.465411
     100A      2.475363   101A      2.552665   102A      2.565968
     103A      2.569838   104A      2.584118   105A      2.758505
     106A      2.761865   107A      2.789422   108A      2.795574
     109A      2.850354   110A      2.854973   111A      2.859322
     112A      2.868515   113A      2.939080   114A      2.950213
     115A      2.967891   116A      2.982750

    Final Occupation by Irrep:
              A
    DOCC [    18 ]

  @RHF Final Energy:  -158.46652279350741

   => Energetics <=

    Nuclear Repulsion Energy =            121.1373327579957646
    One-Electron Energy =                -451.3797945587791105
    Two-Electron Energy =                 171.7759390072759516
    Total Energy =                       -158.4665227935074086

Computation Completed

Properties will be evaluated at   0.000000,   0.000000,   0.000000 [a0]

Properties computed using the SCF density matrix

  Nuclear Dipole Moment: [e a0]
     X:     0.0628      Y:     0.0016      Z:     0.0918

  Electronic Dipole Moment: [e a0]
     X:    -0.0665      Y:    -0.0158      Z:    -0.0756

  Dipole Moment: [e a0]
     X:    -0.0037      Y:    -0.0142      Z:     0.0162     Total:     0.0219

  Dipole Moment: [D]
     X:    -0.0094      Y:    -0.0360      Z:     0.0413     Total:     0.0556

*** tstop() called on ds3 at Sun Apr 26 23:57:37 2020
Module time:
	user time   =       6.99 seconds =       0.12 minutes
	system time =       2.55 seconds =       0.04 minutes
	total time  =          9 seconds =       0.15 minutes
Total time:
	user time   =       6.99 seconds =       0.12 minutes
	system time =       2.55 seconds =       0.04 minutes
	total time  =          9 seconds =       0.15 minutes
                                     G D M A

                                 by Anthony Stone

                           version 2.2.06, 22 June 2011

               Distributed Multipoles from Gaussian wavefunctions

Starting at 23:57:37 on 26 Apr 2020

Using SCF density matrix from file ./SSI/SSI-026THR-031LEU-1-dimer.test.5831.fchk

                         Distributed Multipole Analysis

Standard DMA

Positions and radii in angstrom
Multipole moments in atomic units, ea_0^k for rank k

C          x = -1.070406  y = -1.166037  z = -1.388557 angstrom
           Maximum rank =  0   Radius =  0.650 angstrom
                   Q00  =  -0.236206

C          x = -0.676406  y = -0.455037  z = -2.682557 angstrom
           Maximum rank =  0   Radius =  0.650 angstrom
                   Q00  =  -0.236026

H          x = -1.830406  y = -1.925037  z = -1.567557 angstrom
           Maximum rank =  0   Radius =  0.325 angstrom
                   Q00  =   0.079946

H          x = -0.193406  y = -1.644037  z = -0.956557 angstrom
           Maximum rank =  0   Radius =  0.325 angstrom
                   Q00  =   0.078355

H          x = -1.458406  y = -0.441037  z = -0.674557 angstrom
           Maximum rank =  0   Radius =  0.325 angstrom
                   Q00  =   0.079341

H          x =  0.103594  y =  0.272963  z = -2.458557 angstrom
           Maximum rank =  0   Radius =  0.325 angstrom
                   Q00  =   0.077558

H          x = -1.540376  y =  0.072393  z = -3.113108 angstrom
           Maximum rank =  0   Radius =  0.325 angstrom
                   Q00  =   0.079209

H          x = -0.288686  y = -1.191017  z = -3.402283 angstrom
           Maximum rank =  0   Radius =  0.325 angstrom
                   Q00  =   0.078253

C          x =  0.486594  y =  0.192963  z =  1.793443 angstrom
           Maximum rank =  0   Radius =  0.650 angstrom
                   Q00  =  -0.234502

C          x =  1.254594  y =  1.427963  z =  2.269443 angstrom
           Maximum rank =  0   Radius =  0.650 angstrom
                   Q00  =  -0.241727

H          x =  0.510594  y =  0.137963  z =  0.705443 angstrom
           Maximum rank =  0   Radius =  0.325 angstrom
                   Q00  =   0.081703

H          x =  0.953594  y = -0.702037  z =  2.205443 angstrom
           Maximum rank =  0   Radius =  0.325 angstrom
                   Q00  =   0.079259

H          x = -0.542406  y =  0.223963  z =  2.150443 angstrom
           Maximum rank =  0   Radius =  0.325 angstrom
                   Q00  =   0.079863

H          x =  1.121594  y =  1.507963  z =  3.343443 angstrom
           Maximum rank =  0   Radius =  0.325 angstrom
                   Q00  =   0.077553

H          x =  0.900974  y =  2.359893  z =  1.804196 angstrom
           Maximum rank =  0   Radius =  0.325 angstrom
                   Q00  =   0.079338

H          x =  2.330314  y =  1.329783  z =  2.061610 angstrom
           Maximum rank =  0   Radius =  0.325 angstrom
                   Q00  =   0.078080

Total multipoles referred to origin at
           x =   0.000000,  y =    0.000000,  z =    0.000000 angstrom
                   Q00  =  -0.000000

Finished at 23:57:37 on 26 Apr 2020

  DMA results are available in the Python driver through the
	  variable('DMA DISTRIBUTED MULTIPOLES')
  and
	  variable('DMA TOTAL MULTIPOLES')
  commands.

    Psi4 stopped on: Sunday, 26 April 2020 11:57PM
    Psi4 wall time for execution: 0:00:09.35

*** Psi4 exiting successfully. Buy a developer a beer!
