                               Psi4 1.3.2 release

  ==> Input File <==

--------------------------------------------------------------------------
import numpy as np
set {scf_type pk
basis cc-pvdz
d_convergence 10
gdma_switch   0
gdma_limit    0
gdma_origin   [ 0.0,  0.0,  0.0 ]
}
molecule test {
    units Angstrom
    -1 1
    --
    -1 1
    C               -0.481068964373503     0.268514026463841    -3.148353618268086
    C               -0.367068964373503    -0.908485973536159    -2.201353618268086
    O                0.145931035626497    -0.797485973536159    -1.091353618268086
    N               -0.854068964373503    -2.057485973536159    -2.637353618268086
    H               -1.046068964373503    -0.026485973536159    -4.034353618268086
    H                0.517931035626497     0.558514026463841    -3.476353618268087
    H               -0.689068964373504    -2.874485973536159    -2.068353618268086
    H               -1.215068964373504    -2.132485973536159    -3.577353618268087
    H               -0.985258964373503     1.135424026463841    -2.696399618268087
    C               -0.315068964373503     1.421514026463841     3.403646381731914
    C                0.428931035626497     0.856514026463841     2.210646381731914
    O                0.483931035626497    -0.386485973536159     2.068646381731914
    O                0.975931035626497     1.669514026463841     1.431646381731914
    H               -0.825068964373503     2.345514026463841     3.120646381731914
    H                0.413931035626497     1.661514026463841     4.180646381731914
    H               -1.046798964373503     0.709964026463841     3.813849381731913

}
e, wfn = energy('scf', return_wfn=True)
gdma(wfn)
dmavals = variable('DMA DISTRIBUTED MULTIPOLES')
charges = np.array(dmavals)
print(charges)
np.save('SSI-063GLN-067ASP-1-dimer.npy', np.array(charges))--------------------------------------------------------------------------

*** tstart() called on ds3
*** at Mon Apr 27 07:29:11 2020

   => Loading Basis Set <=

    Name: CC-PVDZ
    Role: ORBITAL
    Keyword: BASIS
    atoms 1-2, 10-11 entry C          line   138 file /theoryfs2/ds/metcalf/miniconda2/envs/tf2gpu/share/psi4/basis/cc-pvdz.gbs
    atoms 3, 12-13   entry O          line   198 file /theoryfs2/ds/metcalf/miniconda2/envs/tf2gpu/share/psi4/basis/cc-pvdz.gbs
    atoms 4          entry N          line   168 file /theoryfs2/ds/metcalf/miniconda2/envs/tf2gpu/share/psi4/basis/cc-pvdz.gbs
    atoms 5-9, 14-16 entry H          line    22 file /theoryfs2/ds/metcalf/miniconda2/envs/tf2gpu/share/psi4/basis/cc-pvdz.gbs

         ---------------------------------------------------------
                                   SCF
               by Justin Turney, Rob Parrish, Andy Simmonett
                          and Daniel G. A. Smith
                              RHF Reference
                        1 Threads,    500 MiB Core
         ---------------------------------------------------------

  ==> Geometry <==

    Molecular point group: c1
    Full point group: C1

    Geometry (in Angstrom), charge = -1, multiplicity = 1:

       Center              X                  Y                   Z               Mass
    ------------   -----------------  -----------------  -----------------  -----------------
         C           -0.481068964374     0.268514026464    -3.148353618268    12.000000000000
         C           -0.367068964374    -0.908485973536    -2.201353618268    12.000000000000
         O            0.145931035626    -0.797485973536    -1.091353618268    15.994914619570
         N           -0.854068964374    -2.057485973536    -2.637353618268    14.003074004430
         H           -1.046068964374    -0.026485973536    -4.034353618268     1.007825032230
         H            0.517931035626     0.558514026464    -3.476353618268     1.007825032230
         H           -0.689068964374    -2.874485973536    -2.068353618268     1.007825032230
         H           -1.215068964374    -2.132485973536    -3.577353618268     1.007825032230
         H           -0.985258964374     1.135424026464    -2.696399618268     1.007825032230
         C           -0.315068964374     1.421514026464     3.403646381732    12.000000000000
         C            0.428931035626     0.856514026464     2.210646381732    12.000000000000
         O            0.483931035626    -0.386485973536     2.068646381732    15.994914619570
         O            0.975931035626     1.669514026464     1.431646381732    15.994914619570
         H           -0.825068964374     2.345514026464     3.120646381732     1.007825032230
         H            0.413931035626     1.661514026464     4.180646381732     1.007825032230
         H           -1.046798964374     0.709964026464     3.813849381732     1.007825032230

  Running in c1 symmetry.

  Rotational constants: A =      0.14315  B =      0.02048  C =      0.01897 [cm^-1]
  Rotational constants: A =   4291.38501  B =    613.94858  C =    568.61329 [MHz]
  Nuclear repulsion =  339.612475218242196

  Charge       = -1
  Multiplicity = 1
  Electrons    = 64
  Nalpha       = 32
  Nbeta        = 32

  ==> Algorithm <==

  SCF Algorithm Type is PK.
  DIIS enabled.
  MOM disabled.
  Fractional occupation disabled.
  Guess Type is SAD.
  Energy threshold   = 1.00e-06
  Density threshold  = 1.00e-10
  Integral threshold = 0.00e+00

  ==> Primary Basis <==

  Basis Set: CC-PVDZ
    Blend: CC-PVDZ
    Number of shells: 72
    Number of basis function: 152
    Number of Cartesian functions: 160
    Spherical Harmonics?: true
    Max angular momentum: 2

  ==> Pre-Iterations <==

   -------------------------------------------------------
    Irrep   Nso     Nmo     Nalpha   Nbeta   Ndocc  Nsocc
   -------------------------------------------------------
     A        152     152       0       0       0       0
   -------------------------------------------------------
    Total     152     152      32      32      32       0
   -------------------------------------------------------

  ==> Integral Setup <==

  Using integral reordering PK algorithm.
  Sizing the integral batches needed.
  Building batch lookup table.
   Calculation information:
      Number of atoms:                  16
      Number of AO shells:              72
      Number of primitives:            216
      Number of atomic orbitals:       160
      Number of basis functions:       152

      Integral cutoff                 1.00e-12
      Number of threads:                 1

	Batch   1 pq = [       0,    9405] index = [             0,44231715] size =     44231715
	Batch   2 pq = [    9405,   11628] index = [      44231715,67611006] size =     23379291
  Task number: 7
  Buffer size: 11059200
  Buffer per thread: 2
  We computed 2198069 shell quartets total.
  Whereas there are 3454506 unique shell quartets.

  ==> DiskJK: Disk-Based J/K Matrices <==

    J tasked:                  Yes
    K tasked:                  Yes
    wK tasked:                  No
    Memory [MiB]:              375
    Schwarz Cutoff:          1E-12

    OpenMP threads:              1

  Minimum eigenvalue in the overlap matrix is 4.4946369067E-03.
  Using Symmetric Orthogonalization.

  SCF Guess: Superposition of Atomic Densities via on-the-fly atomic UHF.

  ==> Iterations <==

                        Total Energy        Delta E     RMS |[F,P]|

   @RHF iter SAD:  -433.43963770199241   -4.33440e+02   0.00000e+00
   @RHF iter   1:  -434.84948942728528   -1.40985e+00   5.65359e-03 DIIS
   @RHF iter   2:  -435.10062741294337   -2.51138e-01   3.54211e-03 DIIS
   @RHF iter   3:  -435.20206646887618   -1.01439e-01   5.58259e-04 DIIS
   @RHF iter   4:  -435.20624761947460   -4.18115e-03   2.29329e-04 DIIS
   @RHF iter   5:  -435.20706949001885   -8.21871e-04   5.41307e-05 DIIS
   @RHF iter   6:  -435.20712912515063   -5.96351e-05   2.71402e-05 DIIS
   @RHF iter   7:  -435.20714561630848   -1.64912e-05   9.23408e-06 DIIS
   @RHF iter   8:  -435.20714863548181   -3.01917e-06   3.40212e-06 DIIS
   @RHF iter   9:  -435.20714900202813   -3.66546e-07   1.17229e-06 DIIS
   @RHF iter  10:  -435.20714903861045   -3.65823e-08   3.10485e-07 DIIS
   @RHF iter  11:  -435.20714904086304   -2.25259e-09   1.19844e-07 DIIS
   @RHF iter  12:  -435.20714904103824   -1.75191e-10   3.34303e-08 DIIS
   @RHF iter  13:  -435.20714904106495   -2.67164e-11   7.61385e-09 DIIS
   @RHF iter  14:  -435.20714904106700   -2.04636e-12   2.41576e-09 DIIS
   @RHF iter  15:  -435.20714904106734   -3.41061e-13   9.10333e-10 DIIS
   @RHF iter  16:  -435.20714904106524    2.10321e-12   4.05117e-10 DIIS
   @RHF iter  17:  -435.20714904106620   -9.66338e-13   1.93911e-10 DIIS
   @RHF iter  18:  -435.20714904106615    5.68434e-14   6.48904e-11 DIIS
  Energy and wave function converged.

  ==> Post-Iterations <==

    Orbital Energies [Eh]
    ---------------------

    Doubly Occupied:

       1A    -20.379369     2A    -20.227891     3A    -20.227603
       4A    -15.482250     5A    -11.226711     6A    -11.139059
       7A    -11.087324     8A    -11.031276     9A     -1.246021
      10A     -1.117141    11A     -1.107815    12A     -1.005002
      13A     -0.893465    14A     -0.776575    15A     -0.690433
      16A     -0.624691    17A     -0.537126    18A     -0.502587
      19A     -0.475486    20A     -0.454503    21A     -0.442929
      22A     -0.413857    23A     -0.391217    24A     -0.385010
      25A     -0.374363    26A     -0.315088    27A     -0.285009
      28A     -0.282685    29A     -0.274199    30A     -0.152792
      31A     -0.141746    32A     -0.129673

    Virtual:

      33A      0.258028    34A      0.311249    35A      0.314941
      36A      0.322328    37A      0.369087    38A      0.370049
      39A      0.393269    40A      0.413679    41A      0.430800
      42A      0.484802    43A      0.511908    44A      0.578857
      45A      0.594264    46A      0.674761    47A      0.724016
      48A      0.733596    49A      0.740643    50A      0.768148
      51A      0.802780    52A      0.822753    53A      0.838282
      54A      0.852783    55A      0.854562    56A      0.889111
      57A      0.940544    58A      0.954936    59A      0.969454
      60A      0.990334    61A      0.996442    62A      1.023936
      63A      1.038440    64A      1.052169    65A      1.053942
      66A      1.061011    67A      1.089915    68A      1.102926
      69A      1.109083    70A      1.159490    71A      1.165003
      72A      1.232264    73A      1.241223    74A      1.269451
      75A      1.351143    76A      1.370689    77A      1.414236
      78A      1.422000    79A      1.488005    80A      1.505213
      81A      1.520838    82A      1.527264    83A      1.548774
      84A      1.568924    85A      1.586010    86A      1.604336
      87A      1.617548    88A      1.631500    89A      1.691677
      90A      1.711649    91A      1.734918    92A      1.767278
      93A      1.777623    94A      1.820259    95A      1.858116
      96A      1.873438    97A      1.920762    98A      1.955443
      99A      1.987815   100A      2.004170   101A      2.016231
     102A      2.035295   103A      2.065676   104A      2.078611
     105A      2.086747   106A      2.126777   107A      2.164895
     108A      2.168107   109A      2.185575   110A      2.230475
     111A      2.238080   112A      2.276741   113A      2.338552
     114A      2.390639   115A      2.408597   116A      2.451225
     117A      2.461391   118A      2.506935   119A      2.525557
     120A      2.564716   121A      2.585463   122A      2.635286
     123A      2.686320   124A      2.698161   125A      2.733700
     126A      2.755403   127A      2.794308   128A      2.843228
     129A      2.875153   130A      2.906358   131A      2.928138
     132A      2.961359   133A      2.987903   134A      3.000573
     135A      3.064002   136A      3.212897   137A      3.259248
     138A      3.273300   139A      3.305799   140A      3.326171
     141A      3.390495   142A      3.395205   143A      3.609343
     144A      3.653818   145A      3.659979   146A      3.815420
     147A      3.868755   148A      4.000940   149A      4.042156
     150A      4.087368   151A      4.110262   152A      4.223407

    Final Occupation by Irrep:
              A
    DOCC [    32 ]

  @RHF Final Energy:  -435.20714904106615

   => Energetics <=

    Nuclear Repulsion Energy =            339.6124752182421958
    One-Electron Energy =               -1281.9974568559762247
    Two-Electron Energy =                 507.1778325966678267
    Total Energy =                       -435.2071490410661454

Computation Completed

Properties will be evaluated at   0.000000,   0.000000,   0.000000 [a0]

Properties computed using the SCF density matrix

  Nuclear Dipole Moment: [e a0]
     X:    -4.5604      Y:     1.2996      Z:    -4.4222

  Electronic Dipole Moment: [e a0]
     X:     2.6208      Y:    -2.8515      Z:     0.1049

  Dipole Moment: [e a0]
     X:    -1.9397      Y:    -1.5519      Z:    -4.3173     Total:     4.9809

  Dipole Moment: [D]
     X:    -4.9301      Y:    -3.9445      Z:   -10.9734     Total:    12.6602

*** tstop() called on ds3 at Mon Apr 27 07:29:43 2020
Module time:
	user time   =      20.21 seconds =       0.34 minutes
	system time =      13.23 seconds =       0.22 minutes
	total time  =         32 seconds =       0.53 minutes
Total time:
	user time   =      20.21 seconds =       0.34 minutes
	system time =      13.23 seconds =       0.22 minutes
	total time  =         32 seconds =       0.53 minutes
                                     G D M A

                                 by Anthony Stone

                           version 2.2.06, 22 June 2011

               Distributed Multipoles from Gaussian wavefunctions

Starting at 7:29:43 on 27 Apr 2020

Using SCF density matrix from file ./SSI/SSI-063GLN-067ASP-1-dimer.test.14988.fchk

                         Distributed Multipole Analysis

Standard DMA

Positions and radii in angstrom
Multipole moments in atomic units, ea_0^k for rank k

C          x = -0.481069  y =  0.268514  z = -3.148354 angstrom
           Maximum rank =  0   Radius =  0.650 angstrom
                   Q00  =  -0.264352

C          x = -0.367069  y = -0.908486  z = -2.201354 angstrom
           Maximum rank =  0   Radius =  0.650 angstrom
                   Q00  =   0.797244

O          x =  0.145931  y = -0.797486  z = -1.091354 angstrom
           Maximum rank =  0   Radius =  0.650 angstrom
                   Q00  =  -0.728325

N          x = -0.854069  y = -2.057486  z = -2.637354 angstrom
           Maximum rank =  0   Radius =  0.650 angstrom
                   Q00  =  -0.506848

H          x = -1.046069  y = -0.026486  z = -4.034354 angstrom
           Maximum rank =  0   Radius =  0.325 angstrom
                   Q00  =   0.037039

H          x =  0.517931  y =  0.558514  z = -3.476354 angstrom
           Maximum rank =  0   Radius =  0.325 angstrom
                   Q00  =   0.128328

H          x = -0.689069  y = -2.874486  z = -2.068354 angstrom
           Maximum rank =  0   Radius =  0.325 angstrom
                   Q00  =   0.213423

H          x = -1.215069  y = -2.132486  z = -3.577354 angstrom
           Maximum rank =  0   Radius =  0.325 angstrom
                   Q00  =   0.179960

H          x = -0.985259  y =  1.135424  z = -2.696400 angstrom
           Maximum rank =  0   Radius =  0.325 angstrom
                   Q00  =   0.141827

C          x = -0.315069  y =  1.421514  z =  3.403646 angstrom
           Maximum rank =  0   Radius =  0.650 angstrom
                   Q00  =  -0.270465

C          x =  0.428931  y =  0.856514  z =  2.210646 angstrom
           Maximum rank =  0   Radius =  0.650 angstrom
                   Q00  =   0.975880

O          x =  0.483931  y = -0.386486  z =  2.068646 angstrom
           Maximum rank =  0   Radius =  0.650 angstrom
                   Q00  =  -0.921754

O          x =  0.975931  y =  1.669514  z =  1.431646 angstrom
           Maximum rank =  0   Radius =  0.650 angstrom
                   Q00  =  -0.937045

H          x = -0.825069  y =  2.345514  z =  3.120646 angstrom
           Maximum rank =  0   Radius =  0.325 angstrom
                   Q00  =   0.044868

H          x =  0.413931  y =  1.661514  z =  4.180646 angstrom
           Maximum rank =  0   Radius =  0.325 angstrom
                   Q00  =   0.070574

H          x = -1.046799  y =  0.709964  z =  3.813849 angstrom
           Maximum rank =  0   Radius =  0.325 angstrom
                   Q00  =   0.039644

Total multipoles referred to origin at
           x =   0.000000,  y =    0.000000,  z =    0.000000 angstrom
                   Q00  =  -1.000000

Finished at 7:29:43 on 27 Apr 2020

  DMA results are available in the Python driver through the
	  variable('DMA DISTRIBUTED MULTIPOLES')
  and
	  variable('DMA TOTAL MULTIPOLES')
  commands.

    Psi4 stopped on: Monday, 27 April 2020 07:29AM
    Psi4 wall time for execution: 0:00:32.16

*** Psi4 exiting successfully. Buy a developer a beer!
