                               Psi4 1.3.2 release

  ==> Input File <==

--------------------------------------------------------------------------
import numpy as np
set {scf_type pk
basis cc-pvdz
d_convergence 10
gdma_switch   0
gdma_limit    0
gdma_origin   [ 0.0,  0.0,  0.0 ]
}
molecule test {
    units Angstrom
    0 1
    --
    0 1
    C                1.121806419502110    -0.560697118676522     1.204783063939967
    C                0.489806419502110    -1.872697118676522     1.660783063939968
    H                1.946806419502110    -0.310697118676522     1.867783063939967
    H                1.517806419502110    -0.666697118676522     0.195783063939968
    H                0.415806419502109     0.265302881323478     1.174783063939968
    H               -0.238193580497890    -2.180697118676522     0.908783063939968
    H               -0.037383580497890    -1.752687118676522     2.618731063939967
    H                1.264926419502109    -2.649247118676522     1.739222063939968
    C               -1.365193580497891     1.200302881323478    -0.902216936060032
    C               -0.251193580497890     1.234302881323478    -1.960216936060032
    H               -2.330193580497890     1.410302881323478    -1.365216936060032
    H               -1.413193580497891     0.220302881323478    -0.432216936060032
    H               -1.173193580497891     1.923302881323478    -0.108216936060032
    H                0.701806419502109     1.085302881323478    -1.450216936060032
    H               -0.218503580497890     2.203712881323478    -2.479036936060032
    H               -0.379643580497890     0.437372881323478    -2.707475936060032

}
e, wfn = energy('scf', return_wfn=True)
gdma(wfn)
dmavals = variable('DMA DISTRIBUTED MULTIPOLES')
charges = np.array(dmavals)
print(charges)
np.save('SSI-082ILE-135ILE-1-dimer.npy', np.array(charges))--------------------------------------------------------------------------

*** tstart() called on ds3
*** at Tue Apr 28 14:13:42 2020

   => Loading Basis Set <=

    Name: CC-PVDZ
    Role: ORBITAL
    Keyword: BASIS
    atoms 1-2, 9-10  entry C          line   138 file /theoryfs2/ds/metcalf/miniconda2/envs/tf2gpu/share/psi4/basis/cc-pvdz.gbs
    atoms 3-8, 11-16 entry H          line    22 file /theoryfs2/ds/metcalf/miniconda2/envs/tf2gpu/share/psi4/basis/cc-pvdz.gbs

         ---------------------------------------------------------
                                   SCF
               by Justin Turney, Rob Parrish, Andy Simmonett
                          and Daniel G. A. Smith
                              RHF Reference
                        1 Threads,    500 MiB Core
         ---------------------------------------------------------

  ==> Geometry <==

    Molecular point group: c1
    Full point group: C1

    Geometry (in Angstrom), charge = 0, multiplicity = 1:

       Center              X                  Y                   Z               Mass
    ------------   -----------------  -----------------  -----------------  -----------------
         C            1.121806419502    -0.560697118677     1.204783063940    12.000000000000
         C            0.489806419502    -1.872697118677     1.660783063940    12.000000000000
         H            1.946806419502    -0.310697118677     1.867783063940     1.007825032230
         H            1.517806419502    -0.666697118677     0.195783063940     1.007825032230
         H            0.415806419502     0.265302881323     1.174783063940     1.007825032230
         H           -0.238193580498    -2.180697118677     0.908783063940     1.007825032230
         H           -0.037383580498    -1.752687118677     2.618731063940     1.007825032230
         H            1.264926419502    -2.649247118677     1.739222063940     1.007825032230
         C           -1.365193580498     1.200302881323    -0.902216936060    12.000000000000
         C           -0.251193580498     1.234302881323    -1.960216936060    12.000000000000
         H           -2.330193580498     1.410302881323    -1.365216936060     1.007825032230
         H           -1.413193580498     0.220302881323    -0.432216936060     1.007825032230
         H           -1.173193580498     1.923302881323    -0.108216936060     1.007825032230
         H            0.701806419502     1.085302881323    -1.450216936060     1.007825032230
         H           -0.218503580498     2.203712881323    -2.479036936060     1.007825032230
         H           -0.379643580498     0.437372881323    -2.707475936060     1.007825032230

  Running in c1 symmetry.

  Rotational constants: A =      0.39047  B =      0.06062  C =      0.05734 [cm^-1]
  Rotational constants: A =  11705.96475  B =   1817.45800  C =   1718.94425 [MHz]
  Nuclear repulsion =  125.548661279894546

  Charge       = 0
  Multiplicity = 1
  Electrons    = 36
  Nalpha       = 18
  Nbeta        = 18

  ==> Algorithm <==

  SCF Algorithm Type is PK.
  DIIS enabled.
  MOM disabled.
  Fractional occupation disabled.
  Guess Type is SAD.
  Energy threshold   = 1.00e-06
  Density threshold  = 1.00e-10
  Integral threshold = 0.00e+00

  ==> Primary Basis <==

  Basis Set: CC-PVDZ
    Blend: CC-PVDZ
    Number of shells: 60
    Number of basis function: 116
    Number of Cartesian functions: 120
    Spherical Harmonics?: true
    Max angular momentum: 2

  ==> Pre-Iterations <==

   -------------------------------------------------------
    Irrep   Nso     Nmo     Nalpha   Nbeta   Ndocc  Nsocc
   -------------------------------------------------------
     A        116     116       0       0       0       0
   -------------------------------------------------------
    Total     116     116      18      18      18       0
   -------------------------------------------------------

  ==> Integral Setup <==

  Using integral reordering PK algorithm.
  Sizing the integral batches needed.
  Building batch lookup table.
   Calculation information:
      Number of atoms:                  16
      Number of AO shells:              60
      Number of primitives:            148
      Number of atomic orbitals:       120
      Number of basis functions:       116

      Integral cutoff                 1.00e-12
      Number of threads:                 1

	Batch   1 pq = [       0,    6786] index = [             0,23028291] size =     23028291
  Task number: 3
  Buffer size: 11059200
  Buffer per thread: 2
  We computed 1566011 shell quartets total.
  Whereas there are 1675365 unique shell quartets.

  ==> DiskJK: Disk-Based J/K Matrices <==

    J tasked:                  Yes
    K tasked:                  Yes
    wK tasked:                  No
    Memory [MiB]:              375
    Schwarz Cutoff:          1E-12

    OpenMP threads:              1

  Minimum eigenvalue in the overlap matrix is 7.5192960480E-03.
  Using Symmetric Orthogonalization.

  SCF Guess: Superposition of Atomic Densities via on-the-fly atomic UHF.

  ==> Iterations <==

                        Total Energy        Delta E     RMS |[F,P]|

   @RHF iter SAD:  -157.35141706216669   -1.57351e+02   0.00000e+00
   @RHF iter   1:  -158.30818467638471   -9.56768e-01   4.19521e-03 DIIS
   @RHF iter   2:  -158.44098093768346   -1.32796e-01   1.78833e-03 DIIS
   @RHF iter   3:  -158.46422581796642   -2.32449e-02   3.49976e-04 DIIS
   @RHF iter   4:  -158.46606513174865   -1.83931e-03   3.87777e-05 DIIS
   @RHF iter   5:  -158.46608877508527   -2.36433e-05   6.27416e-06 DIIS
   @RHF iter   6:  -158.46608937378554   -5.98700e-07   8.51371e-07 DIIS
   @RHF iter   7:  -158.46608938219947   -8.41393e-09   2.65545e-07 DIIS
   @RHF iter   8:  -158.46608938280045   -6.00977e-10   4.44107e-08 DIIS
   @RHF iter   9:  -158.46608938283052   -3.00702e-11   9.75739e-09 DIIS
   @RHF iter  10:  -158.46608938283202   -1.50635e-12   2.48793e-09 DIIS
   @RHF iter  11:  -158.46608938283202    0.00000e+00   6.52709e-10 DIIS
   @RHF iter  12:  -158.46608938283225   -2.27374e-13   1.98277e-10 DIIS
   @RHF iter  13:  -158.46608938283222    2.84217e-14   3.27081e-11 DIIS
  Energy and wave function converged.

  ==> Post-Iterations <==

    Orbital Energies [Eh]
    ---------------------

    Doubly Occupied:

       1A    -11.220220     2A    -11.220217     3A    -11.218252
       4A    -11.215550     5A     -1.020228     6A     -1.014977
       7A     -0.839451     8A     -0.838275     9A     -0.607867
      10A     -0.596640    11A     -0.594911    12A     -0.589088
      13A     -0.504573    14A     -0.502448    15A     -0.490771
      16A     -0.485911    17A     -0.484527    18A     -0.479683

    Virtual:

      19A      0.170046    20A      0.202399    21A      0.225259
      22A      0.226636    23A      0.247249    24A      0.256831
      25A      0.266180    26A      0.274927    27A      0.279901
      28A      0.318294    29A      0.323862    30A      0.330786
      31A      0.394312    32A      0.403501    33A      0.571345
      34A      0.590908    35A      0.595004    36A      0.608114
      37A      0.620886    38A      0.628848    39A      0.677146
      40A      0.695287    41A      0.717153    42A      0.803929
      43A      0.838949    44A      0.849438    45A      0.877307
      46A      0.886779    47A      0.892186    48A      0.896573
      49A      0.899684    50A      0.906712    51A      0.922320
      52A      0.941275    53A      0.945519    54A      0.961613
      55A      1.001269    56A      1.006014    57A      1.127368
      58A      1.129286    59A      1.139744    60A      1.152931
      61A      1.245135    62A      1.248395    63A      1.461378
      64A      1.463467    65A      1.474773    66A      1.491832
      67A      1.561539    68A      1.569657    69A      1.682826
      70A      1.688342    71A      1.696520    72A      1.718752
      73A      1.860658    74A      1.863959    75A      1.876158
      76A      1.886980    77A      1.900857    78A      1.905147
      79A      1.928289    80A      1.937608    81A      1.943393
      82A      1.947412    83A      1.948630    84A      1.957468
      85A      1.960257    86A      1.979162    87A      1.985004
      88A      2.022915    89A      2.079282    90A      2.099738
      91A      2.115769    92A      2.141113    93A      2.293585
      94A      2.307586    95A      2.320382    96A      2.333841
      97A      2.445423    98A      2.454967    99A      2.461269
     100A      2.465174   101A      2.551906   102A      2.556714
     103A      2.575266   104A      2.586483   105A      2.759173
     106A      2.764896   107A      2.792367   108A      2.795158
     109A      2.851679   110A      2.860352   111A      2.867036
     112A      2.875863   113A      2.935754   114A      2.955041
     115A      2.973495   116A      2.990971

    Final Occupation by Irrep:
              A
    DOCC [    18 ]

  @RHF Final Energy:  -158.46608938283222

   => Energetics <=

    Nuclear Repulsion Energy =            125.5486612798945458
    One-Electron Energy =                -460.1823205969163268
    Two-Electron Energy =                 176.1675699341895722
    Total Energy =                       -158.4660893828322230

Computation Completed

Properties will be evaluated at   0.000000,   0.000000,   0.000000 [a0]

Properties computed using the SCF density matrix

  Nuclear Dipole Moment: [e a0]
     X:     0.0533      Y:    -0.0135      Z:    -0.0350

  Electronic Dipole Moment: [e a0]
     X:    -0.0507      Y:     0.0155      Z:     0.0341

  Dipole Moment: [e a0]
     X:     0.0026      Y:     0.0020      Z:    -0.0008     Total:     0.0034

  Dipole Moment: [D]
     X:     0.0065      Y:     0.0051      Z:    -0.0021     Total:     0.0086

*** tstop() called on ds3 at Tue Apr 28 14:13:55 2020
Module time:
	user time   =       8.69 seconds =       0.14 minutes
	system time =       2.99 seconds =       0.05 minutes
	total time  =         13 seconds =       0.22 minutes
Total time:
	user time   =       8.69 seconds =       0.14 minutes
	system time =       2.99 seconds =       0.05 minutes
	total time  =         13 seconds =       0.22 minutes
                                     G D M A

                                 by Anthony Stone

                           version 2.2.06, 22 June 2011

               Distributed Multipoles from Gaussian wavefunctions

Starting at 14:13:55 on 28 Apr 2020

Using SCF density matrix from file ./SSI/SSI-082ILE-135ILE-1-dimer.test.9231.fchk

                         Distributed Multipole Analysis

Standard DMA

Positions and radii in angstrom
Multipole moments in atomic units, ea_0^k for rank k

C          x =  1.121806  y = -0.560697  z =  1.204783 angstrom
           Maximum rank =  0   Radius =  0.650 angstrom
                   Q00  =  -0.241897

C          x =  0.489806  y = -1.872697  z =  1.660783 angstrom
           Maximum rank =  0   Radius =  0.650 angstrom
                   Q00  =  -0.234673

H          x =  1.946806  y = -0.310697  z =  1.867783 angstrom
           Maximum rank =  0   Radius =  0.325 angstrom
                   Q00  =   0.077881

H          x =  1.517806  y = -0.666697  z =  0.195783 angstrom
           Maximum rank =  0   Radius =  0.325 angstrom
                   Q00  =   0.077135

H          x =  0.415806  y =  0.265303  z =  1.174783 angstrom
           Maximum rank =  0   Radius =  0.325 angstrom
                   Q00  =   0.084147

H          x = -0.238194  y = -2.180697  z =  0.908783 angstrom
           Maximum rank =  0   Radius =  0.325 angstrom
                   Q00  =   0.075700

H          x = -0.037384  y = -1.752687  z =  2.618731 angstrom
           Maximum rank =  0   Radius =  0.325 angstrom
                   Q00  =   0.080555

H          x =  1.264926  y = -2.649247  z =  1.739222 angstrom
           Maximum rank =  0   Radius =  0.325 angstrom
                   Q00  =   0.080822

C          x = -1.365194  y =  1.200303  z = -0.902217 angstrom
           Maximum rank =  0   Radius =  0.650 angstrom
                   Q00  =  -0.244809

C          x = -0.251194  y =  1.234303  z = -1.960217 angstrom
           Maximum rank =  0   Radius =  0.650 angstrom
                   Q00  =  -0.237856

H          x = -2.330194  y =  1.410303  z = -1.365217 angstrom
           Maximum rank =  0   Radius =  0.325 angstrom
                   Q00  =   0.080286

H          x = -1.413194  y =  0.220303  z = -0.432217 angstrom
           Maximum rank =  0   Radius =  0.325 angstrom
                   Q00  =   0.080772

H          x = -1.173194  y =  1.923303  z = -0.108217 angstrom
           Maximum rank =  0   Radius =  0.325 angstrom
                   Q00  =   0.080258

H          x =  0.701806  y =  1.085303  z = -1.450217 angstrom
           Maximum rank =  0   Radius =  0.325 angstrom
                   Q00  =   0.080822

H          x = -0.218504  y =  2.203713  z = -2.479037 angstrom
           Maximum rank =  0   Radius =  0.325 angstrom
                   Q00  =   0.080437

H          x = -0.379644  y =  0.437373  z = -2.707476 angstrom
           Maximum rank =  0   Radius =  0.325 angstrom
                   Q00  =   0.080420

Total multipoles referred to origin at
           x =   0.000000,  y =    0.000000,  z =    0.000000 angstrom
                   Q00  =  -0.000000

Finished at 14:13:55 on 28 Apr 2020

  DMA results are available in the Python driver through the
	  variable('DMA DISTRIBUTED MULTIPOLES')
  and
	  variable('DMA TOTAL MULTIPOLES')
  commands.

    Psi4 stopped on: Tuesday, 28 April 2020 02:13PM
    Psi4 wall time for execution: 0:00:13.34

*** Psi4 exiting successfully. Buy a developer a beer!
