                               Psi4 1.3.2 release

  ==> Input File <==

--------------------------------------------------------------------------
import numpy as np
set {scf_type pk
basis cc-pvdz
d_convergence 10
gdma_switch   0
gdma_limit    0
gdma_origin   [ 0.0,  0.0,  0.0 ]
}
molecule test {
    units Angstrom
    0 1
    --
    0 1
    C               -1.423609399045522    -0.974376899180321    -1.029419835397219
    C               -1.521609399045522    -0.676376899180321    -2.518419835397219
    H               -0.390609399045522    -1.193376899180321    -0.752419835397219
    H               -1.764609399045522    -0.121376899180321    -0.445419835397219
    H               -2.062609399045522    -1.817376899180321    -0.758419835397219
    H               -2.578609399045522    -0.631376899180321    -2.786419835397219
    H               -1.050459399045522    -1.491223899180321    -3.087669835397219
    H               -1.049929399045522     0.282015100819679    -2.781099835397219
    C                1.138390600954478     0.530623100819679     1.155580164602781
    C                1.805390600954478     1.121623100819679     2.392580164602781
    H                1.128390600954478     1.251623100819679     0.337580164602781
    H                1.700390600954478    -0.343376899180321     0.824580164602781
    H                0.119390600954478     0.219623100819679     1.391580164602781
    H                2.779390600954478     1.501623100819679     2.094580164602780
    H                1.194900600954478     1.950346100819679     2.780550164602781
    H                1.991480600954478     0.375108100819679     3.178760164602781

}
e, wfn = energy('scf', return_wfn=True)
gdma(wfn)
dmavals = variable('DMA DISTRIBUTED MULTIPOLES')
charges = np.array(dmavals)
print(charges)
np.save('SSI-083ILE-173LEU-1-dimer.npy', np.array(charges))--------------------------------------------------------------------------

*** tstart() called on ds3
*** at Tue Apr 28 14:44:19 2020

   => Loading Basis Set <=

    Name: CC-PVDZ
    Role: ORBITAL
    Keyword: BASIS
    atoms 1-2, 9-10  entry C          line   138 file /theoryfs2/ds/metcalf/miniconda2/envs/tf2gpu/share/psi4/basis/cc-pvdz.gbs
    atoms 3-8, 11-16 entry H          line    22 file /theoryfs2/ds/metcalf/miniconda2/envs/tf2gpu/share/psi4/basis/cc-pvdz.gbs

         ---------------------------------------------------------
                                   SCF
               by Justin Turney, Rob Parrish, Andy Simmonett
                          and Daniel G. A. Smith
                              RHF Reference
                        1 Threads,    500 MiB Core
         ---------------------------------------------------------

  ==> Geometry <==

    Molecular point group: c1
    Full point group: C1

    Geometry (in Angstrom), charge = 0, multiplicity = 1:

       Center              X                  Y                   Z               Mass
    ------------   -----------------  -----------------  -----------------  -----------------
         C           -1.423609399046    -0.974376899180    -1.029419835397    12.000000000000
         C           -1.521609399046    -0.676376899180    -2.518419835397    12.000000000000
         H           -0.390609399046    -1.193376899180    -0.752419835397     1.007825032230
         H           -1.764609399046    -0.121376899180    -0.445419835397     1.007825032230
         H           -2.062609399046    -1.817376899180    -0.758419835397     1.007825032230
         H           -2.578609399046    -0.631376899180    -2.786419835397     1.007825032230
         H           -1.050459399046    -1.491223899180    -3.087669835397     1.007825032230
         H           -1.049929399046     0.282015100820    -2.781099835397     1.007825032230
         C            1.138390600954     0.530623100820     1.155580164603    12.000000000000
         C            1.805390600954     1.121623100820     2.392580164603    12.000000000000
         H            1.128390600954     1.251623100820     0.337580164603     1.007825032230
         H            1.700390600954    -0.343376899180     0.824580164603     1.007825032230
         H            0.119390600954     0.219623100820     1.391580164603     1.007825032230
         H            2.779390600954     1.501623100820     2.094580164603     1.007825032230
         H            1.194900600954     1.950346100820     2.780550164603     1.007825032230
         H            1.991480600954     0.375108100820     3.178760164603     1.007825032230

  Running in c1 symmetry.

  Rotational constants: A =      0.73180  B =      0.04208  C =      0.04112 [cm^-1]
  Rotational constants: A =  21938.85861  B =   1261.46468  C =   1232.64735 [MHz]
  Nuclear repulsion =  120.681285812153916

  Charge       = 0
  Multiplicity = 1
  Electrons    = 36
  Nalpha       = 18
  Nbeta        = 18

  ==> Algorithm <==

  SCF Algorithm Type is PK.
  DIIS enabled.
  MOM disabled.
  Fractional occupation disabled.
  Guess Type is SAD.
  Energy threshold   = 1.00e-06
  Density threshold  = 1.00e-10
  Integral threshold = 0.00e+00

  ==> Primary Basis <==

  Basis Set: CC-PVDZ
    Blend: CC-PVDZ
    Number of shells: 60
    Number of basis function: 116
    Number of Cartesian functions: 120
    Spherical Harmonics?: true
    Max angular momentum: 2

  ==> Pre-Iterations <==

   -------------------------------------------------------
    Irrep   Nso     Nmo     Nalpha   Nbeta   Ndocc  Nsocc
   -------------------------------------------------------
     A        116     116       0       0       0       0
   -------------------------------------------------------
    Total     116     116      18      18      18       0
   -------------------------------------------------------

  ==> Integral Setup <==

  Using integral reordering PK algorithm.
  Sizing the integral batches needed.
  Building batch lookup table.
   Calculation information:
      Number of atoms:                  16
      Number of AO shells:              60
      Number of primitives:            148
      Number of atomic orbitals:       120
      Number of basis functions:       116

      Integral cutoff                 1.00e-12
      Number of threads:                 1

	Batch   1 pq = [       0,    6786] index = [             0,23028291] size =     23028291
  Task number: 3
  Buffer size: 11059200
  Buffer per thread: 2
  We computed 1367552 shell quartets total.
  Whereas there are 1675365 unique shell quartets.

  ==> DiskJK: Disk-Based J/K Matrices <==

    J tasked:                  Yes
    K tasked:                  Yes
    wK tasked:                  No
    Memory [MiB]:              375
    Schwarz Cutoff:          1E-12

    OpenMP threads:              1

  Minimum eigenvalue in the overlap matrix is 6.5648007958E-03.
  Using Symmetric Orthogonalization.

  SCF Guess: Superposition of Atomic Densities via on-the-fly atomic UHF.

  ==> Iterations <==

                        Total Energy        Delta E     RMS |[F,P]|

   @RHF iter SAD:  -157.36015522101687   -1.57360e+02   0.00000e+00
   @RHF iter   1:  -158.30617691341200   -9.46022e-01   4.22874e-03 DIIS
   @RHF iter   2:  -158.44035366142413   -1.34177e-01   1.81051e-03 DIIS
   @RHF iter   3:  -158.46410799415858   -2.37543e-02   3.51015e-04 DIIS
   @RHF iter   4:  -158.46595854367061   -1.85055e-03   3.90229e-05 DIIS
   @RHF iter   5:  -158.46598250908391   -2.39654e-05   6.58345e-06 DIIS
   @RHF iter   6:  -158.46598315239552   -6.43312e-07   1.06499e-06 DIIS
   @RHF iter   7:  -158.46598316418465   -1.17891e-08   3.21367e-07 DIIS
   @RHF iter   8:  -158.46598316514516   -9.60512e-10   4.82687e-08 DIIS
   @RHF iter   9:  -158.46598316518569   -4.05294e-11   1.04450e-08 DIIS
   @RHF iter  10:  -158.46598316518799   -2.30216e-12   2.62397e-09 DIIS
   @RHF iter  11:  -158.46598316518788    1.13687e-13   7.40533e-10 DIIS
   @RHF iter  12:  -158.46598316518791   -2.84217e-14   1.88348e-10 DIIS
   @RHF iter  13:  -158.46598316518757    3.41061e-13   2.71817e-11 DIIS
  Energy and wave function converged.

  ==> Post-Iterations <==

    Orbital Energies [Eh]
    ---------------------

    Doubly Occupied:

       1A    -11.218466     2A    -11.218253     3A    -11.216426
       4A    -11.214942     5A     -1.019658     6A     -1.017494
       7A     -0.839373     8A     -0.833025     9A     -0.599866
      10A     -0.598799    11A     -0.595712    12A     -0.594466
      13A     -0.506842    14A     -0.501420    15A     -0.487021
      16A     -0.486311    17A     -0.480963    18A     -0.477233

    Virtual:

      19A      0.176006    20A      0.193587    21A      0.226341
      22A      0.232680    23A      0.237936    24A      0.257354
      25A      0.266637    26A      0.278713    27A      0.280499
      28A      0.296018    29A      0.307997    30A      0.318625
      31A      0.398857    32A      0.410106    33A      0.569018
      34A      0.596015    35A      0.600396    36A      0.602744
      37A      0.606961    38A      0.633286    39A      0.675321
      40A      0.683572    41A      0.706689    42A      0.768150
      43A      0.851909    44A      0.874165    45A      0.883471
      46A      0.891721    47A      0.892388    48A      0.895461
      49A      0.903099    50A      0.905874    51A      0.917916
      52A      0.923889    53A      0.931501    54A      0.944565
      55A      0.964133    56A      0.998829    57A      1.119179
      58A      1.120153    59A      1.138318    60A      1.155830
      61A      1.236570    62A      1.238746    63A      1.466008
      64A      1.475869    65A      1.483724    66A      1.489153
      67A      1.569580    68A      1.585131    69A      1.682235
      70A      1.682904    71A      1.694327    72A      1.698543
      73A      1.858005    74A      1.862739    75A      1.872532
      76A      1.880883    77A      1.898920    78A      1.912235
      79A      1.928549    80A      1.938823    81A      1.944404
      82A      1.948206    83A      1.951378    84A      1.953179
      85A      1.957983    86A      1.960371    87A      2.001201
      88A      2.041672    89A      2.091242    90A      2.109448
      91A      2.126431    92A      2.130304    93A      2.301776
      94A      2.309950    95A      2.315652    96A      2.342123
      97A      2.439383    98A      2.447114    99A      2.463570
     100A      2.481380   101A      2.548445   102A      2.562459
     103A      2.582121   104A      2.584080   105A      2.759492
     106A      2.760419   107A      2.779545   108A      2.789264
     109A      2.851294   110A      2.854836   111A      2.862469
     112A      2.864574   113A      2.938579   114A      2.950240
     115A      2.959164   116A      2.976943

    Final Occupation by Irrep:
              A
    DOCC [    18 ]

  @RHF Final Energy:  -158.46598316518757

   => Energetics <=

    Nuclear Repulsion Energy =            120.6812858121539165
    One-Electron Energy =                -450.4819986236224736
    Two-Electron Energy =                 171.3347296462809766
    Total Energy =                       -158.4659831651875663

Computation Completed

Properties will be evaluated at   0.000000,   0.000000,   0.000000 [a0]

Properties computed using the SCF density matrix

  Nuclear Dipole Moment: [e a0]
     X:     0.0160      Y:    -0.0167      Z:    -0.0036

  Electronic Dipole Moment: [e a0]
     X:    -0.0129      Y:     0.0125      Z:     0.0061

  Dipole Moment: [e a0]
     X:     0.0031      Y:    -0.0041      Z:     0.0026     Total:     0.0058

  Dipole Moment: [D]
     X:     0.0079      Y:    -0.0105      Z:     0.0065     Total:     0.0147

*** tstop() called on ds3 at Tue Apr 28 14:44:40 2020
Module time:
	user time   =       7.11 seconds =       0.12 minutes
	system time =       2.65 seconds =       0.04 minutes
	total time  =         21 seconds =       0.35 minutes
Total time:
	user time   =       7.11 seconds =       0.12 minutes
	system time =       2.65 seconds =       0.04 minutes
	total time  =         21 seconds =       0.35 minutes
                                     G D M A

                                 by Anthony Stone

                           version 2.2.06, 22 June 2011

               Distributed Multipoles from Gaussian wavefunctions

Starting at 14:44:40 on 28 Apr 2020

Using SCF density matrix from file ./SSI/SSI-083ILE-173LEU-1-dimer.test.8397.fchk

                         Distributed Multipole Analysis

Standard DMA

Positions and radii in angstrom
Multipole moments in atomic units, ea_0^k for rank k

C          x = -1.423609  y = -0.974377  z = -1.029420 angstrom
           Maximum rank =  0   Radius =  0.650 angstrom
                   Q00  =  -0.237137

C          x = -1.521609  y = -0.676377  z = -2.518420 angstrom
           Maximum rank =  0   Radius =  0.650 angstrom
                   Q00  =  -0.233769

H          x = -0.390609  y = -1.193377  z = -0.752420 angstrom
           Maximum rank =  0   Radius =  0.325 angstrom
                   Q00  =   0.081417

H          x = -1.764609  y = -0.121377  z = -0.445420 angstrom
           Maximum rank =  0   Radius =  0.325 angstrom
                   Q00  =   0.076935

H          x = -2.062609  y = -1.817377  z = -0.758420 angstrom
           Maximum rank =  0   Radius =  0.325 angstrom
                   Q00  =   0.077802

H          x = -2.578609  y = -0.631377  z = -2.786420 angstrom
           Maximum rank =  0   Radius =  0.325 angstrom
                   Q00  =   0.076527

H          x = -1.050459  y = -1.491224  z = -3.087670 angstrom
           Maximum rank =  0   Radius =  0.325 angstrom
                   Q00  =   0.077116

H          x = -1.049929  y =  0.282015  z = -2.781100 angstrom
           Maximum rank =  0   Radius =  0.325 angstrom
                   Q00  =   0.079994

C          x =  1.138391  y =  0.530623  z =  1.155580 angstrom
           Maximum rank =  0   Radius =  0.650 angstrom
                   Q00  =  -0.226618

C          x =  1.805391  y =  1.121623  z =  2.392580 angstrom
           Maximum rank =  0   Radius =  0.650 angstrom
                   Q00  =  -0.244975

H          x =  1.128391  y =  1.251623  z =  0.337580 angstrom
           Maximum rank =  0   Radius =  0.325 angstrom
                   Q00  =   0.080325

H          x =  1.700391  y = -0.343377  z =  0.824580 angstrom
           Maximum rank =  0   Radius =  0.325 angstrom
                   Q00  =   0.075778

H          x =  0.119391  y =  0.219623  z =  1.391580 angstrom
           Maximum rank =  0   Radius =  0.325 angstrom
                   Q00  =   0.080253

H          x =  2.779391  y =  1.501623  z =  2.094580 angstrom
           Maximum rank =  0   Radius =  0.325 angstrom
                   Q00  =   0.076660

H          x =  1.194901  y =  1.950346  z =  2.780550 angstrom
           Maximum rank =  0   Radius =  0.325 angstrom
                   Q00  =   0.078786

H          x =  1.991481  y =  0.375108  z =  3.178760 angstrom
           Maximum rank =  0   Radius =  0.325 angstrom
                   Q00  =   0.080907

Total multipoles referred to origin at
           x =   0.000000,  y =    0.000000,  z =    0.000000 angstrom
                   Q00  =  -0.000000

Finished at 14:44:40 on 28 Apr 2020

  DMA results are available in the Python driver through the
	  variable('DMA DISTRIBUTED MULTIPOLES')
  and
	  variable('DMA TOTAL MULTIPOLES')
  commands.

    Psi4 stopped on: Tuesday, 28 April 2020 02:44PM
    Psi4 wall time for execution: 0:00:21.54

*** Psi4 exiting successfully. Buy a developer a beer!
