                               Psi4 1.3.2 release

  ==> Input File <==

--------------------------------------------------------------------------
import numpy as np
set {scf_type pk
basis cc-pvdz
d_convergence 10
gdma_switch   0
gdma_limit    0
gdma_origin   [ 0.0,  0.0,  0.0 ]
}
molecule test {
    units Angstrom
    0 1
    --
    0 1
    C                1.982752379734018    -0.016322543079986     1.638921061505639
    C                3.135752379734018    -0.208322543079986     2.612921061505639
    O                2.064752379734017     1.295677456920014     1.084921061505639
    H                2.027752379734018    -0.764322543079986     0.845921061505639
    H                1.039752379734018    -0.128322543079986     2.175921061505639
    H                3.034752379734018    -1.168322543079986     3.117921061505639
    H                1.203752379734017     1.503677456920014     0.701921061505639
    H                3.082276379734017     0.625447456920014     3.328441061505639
    H                4.050226379734018    -0.205432543079986     2.001587061505639
    C                0.782752379734017     1.419677456920014    -1.723078938494361
    C                0.127752379734017     2.301677456920014    -2.778078938494361
    C               -0.145247620265983     0.445677456920014    -1.042078938494361
    C               -0.212247620265983    -0.890322543079986    -1.442078938494361
    C               -0.948247620265983     0.868677456920014     0.014921061505639
    C               -1.073247620265982    -1.790322543079986    -0.789078938494361
    C               -1.809247620265982    -0.024322543079986     0.665921061505639
    C               -1.861247620265982    -1.350322543079986     0.267921061505639
    O               -2.708247620265982    -2.205322543079986     0.912921061505639
    H                1.596752379734018     0.859677456920014    -2.169078938494361
    H                1.209752379734018     2.096677456920014    -0.990078938494361
    H               -0.636247620265982     2.917677456920014    -2.299078938494361
    H                0.402752379734018    -1.237322543079986    -2.263078938494361
    H               -0.939247620265982     1.907677456920014     0.323921061505639
    H               -1.118247620265983    -2.821322543079986    -1.109078938494361
    H               -2.437247620265982     0.313677456920014     1.477921061505639
    H               -2.637247620265982    -3.102322543079986     0.571921061505639
    H               -0.318077620265983     1.679027456920014    -3.567725938494361
    H                0.895089379734017     2.961677456920013    -3.208889938494361

}
e, wfn = energy('scf', return_wfn=True)
gdma(wfn)
dmavals = variable('DMA DISTRIBUTED MULTIPOLES')
charges = np.array(dmavals)
print(charges)
np.save('SSI-008SER-093TYR-1-dimer.npy', np.array(charges))--------------------------------------------------------------------------

*** tstart() called on ds3
*** at Tue Apr 28 15:02:52 2020

   => Loading Basis Set <=

    Name: CC-PVDZ
    Role: ORBITAL
    Keyword: BASIS
    atoms 1-2, 10-17 entry C          line   138 file /theoryfs2/ds/metcalf/miniconda2/envs/tf2gpu/share/psi4/basis/cc-pvdz.gbs
    atoms 3, 18      entry O          line   198 file /theoryfs2/ds/metcalf/miniconda2/envs/tf2gpu/share/psi4/basis/cc-pvdz.gbs
    atoms 4-9, 19-28 entry H          line    22 file /theoryfs2/ds/metcalf/miniconda2/envs/tf2gpu/share/psi4/basis/cc-pvdz.gbs

         ---------------------------------------------------------
                                   SCF
               by Justin Turney, Rob Parrish, Andy Simmonett
                          and Daniel G. A. Smith
                              RHF Reference
                        1 Threads,    500 MiB Core
         ---------------------------------------------------------

  ==> Geometry <==

    Molecular point group: c1
    Full point group: C1

    Geometry (in Angstrom), charge = 0, multiplicity = 1:

       Center              X                  Y                   Z               Mass
    ------------   -----------------  -----------------  -----------------  -----------------
         C            1.982752379734    -0.016322543080     1.638921061506    12.000000000000
         C            3.135752379734    -0.208322543080     2.612921061506    12.000000000000
         O            2.064752379734     1.295677456920     1.084921061506    15.994914619570
         H            2.027752379734    -0.764322543080     0.845921061506     1.007825032230
         H            1.039752379734    -0.128322543080     2.175921061506     1.007825032230
         H            3.034752379734    -1.168322543080     3.117921061506     1.007825032230
         H            1.203752379734     1.503677456920     0.701921061506     1.007825032230
         H            3.082276379734     0.625447456920     3.328441061506     1.007825032230
         H            4.050226379734    -0.205432543080     2.001587061506     1.007825032230
         C            0.782752379734     1.419677456920    -1.723078938494    12.000000000000
         C            0.127752379734     2.301677456920    -2.778078938494    12.000000000000
         C           -0.145247620266     0.445677456920    -1.042078938494    12.000000000000
         C           -0.212247620266    -0.890322543080    -1.442078938494    12.000000000000
         C           -0.948247620266     0.868677456920     0.014921061506    12.000000000000
         C           -1.073247620266    -1.790322543080    -0.789078938494    12.000000000000
         C           -1.809247620266    -0.024322543080     0.665921061506    12.000000000000
         C           -1.861247620266    -1.350322543080     0.267921061506    12.000000000000
         O           -2.708247620266    -2.205322543080     0.912921061506    15.994914619570
         H            1.596752379734     0.859677456920    -2.169078938494     1.007825032230
         H            1.209752379734     2.096677456920    -0.990078938494     1.007825032230
         H           -0.636247620266     2.917677456920    -2.299078938494     1.007825032230
         H            0.402752379734    -1.237322543080    -2.263078938494     1.007825032230
         H           -0.939247620266     1.907677456920     0.323921061506     1.007825032230
         H           -1.118247620266    -2.821322543080    -1.109078938494     1.007825032230
         H           -2.437247620266     0.313677456920     1.477921061506     1.007825032230
         H           -2.637247620266    -3.102322543080     0.571921061506     1.007825032230
         H           -0.318077620266     1.679027456920    -3.567725938494     1.007825032230
         H            0.895089379734     2.961677456920    -3.208889938494     1.007825032230

  Running in c1 symmetry.

  Rotational constants: A =      0.02851  B =      0.02207  C =      0.01459 [cm^-1]
  Rotational constants: A =    854.83912  B =    661.76142  C =    437.42300 [MHz]
  Nuclear repulsion =  702.119820995955706

  Charge       = 0
  Multiplicity = 1
  Electrons    = 92
  Nalpha       = 46
  Nbeta        = 46

  ==> Algorithm <==

  SCF Algorithm Type is PK.
  DIIS enabled.
  MOM disabled.
  Fractional occupation disabled.
  Guess Type is SAD.
  Energy threshold   = 1.00e-06
  Density threshold  = 1.00e-10
  Integral threshold = 0.00e+00

  ==> Primary Basis <==

  Basis Set: CC-PVDZ
    Blend: CC-PVDZ
    Number of shells: 120
    Number of basis function: 248
    Number of Cartesian functions: 260
    Spherical Harmonics?: true
    Max angular momentum: 2

  ==> Pre-Iterations <==

   -------------------------------------------------------
    Irrep   Nso     Nmo     Nalpha   Nbeta   Ndocc  Nsocc
   -------------------------------------------------------
     A        248     248       0       0       0       0
   -------------------------------------------------------
    Total     248     248      46      46      46       0
   -------------------------------------------------------

  ==> Integral Setup <==

  Using integral reordering PK algorithm.
  Sizing the integral batches needed.
  Building batch lookup table.
   Calculation information:
      Number of atoms:                  28
      Number of AO shells:             120
      Number of primitives:            344
      Number of atomic orbitals:       260
      Number of basis functions:       248

      Integral cutoff                 1.00e-12
      Number of threads:                 1

	Batch   1 pq = [       0,    9405] index = [             0,44231715] size =     44231715
	Batch   2 pq = [    9405,   13301] index = [      44231715,88464951] size =     44233236
	Batch   3 pq = [   13301,   16290] index = [      88464951,132690195] size =     44225244
	Batch   4 pq = [   16290,   18810] index = [     132690195,176917455] size =     44227260
	Batch   5 pq = [   18810,   21030] index = [     176917455,221140965] size =     44223510
	Batch   6 pq = [   21030,   23037] index = [     221140965,265363203] size =     44222238
	Batch   7 pq = [   23037,   24883] index = [     265363203,309594286] size =     44231083
	Batch   8 pq = [   24883,   26601] index = [     309594286,353819901] size =     44225615
	Batch   9 pq = [   26601,   28214] index = [     353819901,398029005] size =     44209104
	Batch  10 pq = [   28214,   29740] index = [     398029005,442248670] size =     44219665
	Batch  11 pq = [   29740,   30876] index = [     442248670,476679126] size =     34430456
  Task number: 44
  Buffer size: 11059200
  Buffer per thread: 2
  We computed 26665979 shell quartets total.
  Whereas there are 26357430 unique shell quartets.
     1.17 percent of shell quartets recomputed by reordering.

  ==> DiskJK: Disk-Based J/K Matrices <==

    J tasked:                  Yes
    K tasked:                  Yes
    wK tasked:                  No
    Memory [MiB]:              375
    Schwarz Cutoff:          1E-12

    OpenMP threads:              1

  Minimum eigenvalue in the overlap matrix is 3.2488501941E-04.
  Using Symmetric Orthogonalization.

  SCF Guess: Superposition of Atomic Densities via on-the-fly atomic UHF.

  ==> Iterations <==

                        Total Energy        Delta E     RMS |[F,P]|

   @RHF iter SAD:  -536.52955561491433   -5.36530e+02   0.00000e+00
   @RHF iter   1:  -537.44638302723183   -9.16827e-01   2.79460e-03 DIIS
   @RHF iter   2:  -537.69770336873842   -2.51320e-01   1.24030e-03 DIIS
   @RHF iter   3:  -537.74027266275289   -4.25693e-02   2.81036e-04 DIIS
   @RHF iter   4:  -537.74384404552666   -3.57138e-03   1.04124e-04 DIIS
   @RHF iter   5:  -537.74422118997495   -3.77144e-04   2.03745e-05 DIIS
   @RHF iter   6:  -537.74424281745917   -2.16275e-05   7.76257e-06 DIIS
   @RHF iter   7:  -537.74424556615509   -2.74870e-06   2.36546e-06 DIIS
   @RHF iter   8:  -537.74424593266906   -3.66514e-07   6.74513e-07 DIIS
   @RHF iter   9:  -537.74424597381540   -4.11463e-08   2.11895e-07 DIIS
   @RHF iter  10:  -537.74424597862196   -4.80657e-09   8.24244e-08 DIIS
   @RHF iter  11:  -537.74424597984512   -1.22316e-09   3.77700e-08 DIIS
   @RHF iter  12:  -537.74424598011592   -2.70802e-10   1.83198e-08 DIIS
   @RHF iter  13:  -537.74424598017868   -6.27551e-11   7.16894e-09 DIIS
   @RHF iter  14:  -537.74424598018970   -1.10276e-11   1.84543e-09 DIIS
   @RHF iter  15:  -537.74424598018948    2.27374e-13   6.84085e-10 DIIS
   @RHF iter  16:  -537.74424598018913    3.41061e-13   1.97534e-10 DIIS
   @RHF iter  17:  -537.74424598019209   -2.95586e-12   6.88754e-11 DIIS
  Energy and wave function converged.

  ==> Post-Iterations <==

    Orbital Energies [Eh]
    ---------------------

    Doubly Occupied:

       1A    -20.589986     2A    -20.536436     3A    -11.307209
       4A    -11.261027     5A    -11.249768     6A    -11.248716
       7A    -11.244302     8A    -11.240309     9A    -11.240217
      10A    -11.228567    11A    -11.224266    12A    -11.212141
      13A     -1.405982    14A     -1.339191    15A     -1.160519
      16A     -1.066412    17A     -1.024677    18A     -1.000646
      19A     -0.985584    20A     -0.867291    21A     -0.852494
      22A     -0.817331    23A     -0.797849    24A     -0.740470
      25A     -0.687880    26A     -0.673551    27A     -0.654456
      28A     -0.634238    29A     -0.622167    30A     -0.604188
      31A     -0.594652    32A     -0.590459    33A     -0.570519
      34A     -0.557083    35A     -0.549878    36A     -0.529257
      37A     -0.525260    38A     -0.512366    39A     -0.505281
      40A     -0.484042    41A     -0.479378    42A     -0.472452
      43A     -0.460497    44A     -0.423989    45A     -0.345626
      46A     -0.312048

    Virtual:

      47A      0.115583    48A      0.144539    49A      0.173923
      50A      0.178163    51A      0.201661    52A      0.203250
      53A      0.213060    54A      0.240301    55A      0.242865
      56A      0.253922    57A      0.260254    58A      0.263023
      59A      0.273502    60A      0.286995    61A      0.293237
      62A      0.298958    63A      0.304897    64A      0.340044
      65A      0.346018    66A      0.372307    67A      0.398215
      68A      0.408919    69A      0.419075    70A      0.427350
      71A      0.468925    72A      0.478692    73A      0.488182
      74A      0.509358    75A      0.573179    76A      0.598350
      77A      0.601206    78A      0.624772    79A      0.634226
      80A      0.637197    81A      0.666529    82A      0.670097
      83A      0.685288    84A      0.698539    85A      0.705527
      86A      0.715535    87A      0.727185    88A      0.735214
      89A      0.746459    90A      0.759908    91A      0.775296
      92A      0.782245    93A      0.786852    94A      0.801391
      95A      0.813777    96A      0.836913    97A      0.848689
      98A      0.862378    99A      0.864765   100A      0.874384
     101A      0.885860   102A      0.888322   103A      0.895368
     104A      0.900576   105A      0.902827   106A      0.906914
     107A      0.923093   108A      0.923633   109A      0.932244
     110A      0.946713   111A      0.950644   112A      0.951756
     113A      0.964820   114A      0.976915   115A      0.987506
     116A      1.011165   117A      1.018742   118A      1.052791
     119A      1.083803   120A      1.103854   121A      1.133874
     122A      1.137338   123A      1.152111   124A      1.170552
     125A      1.170934   126A      1.189085   127A      1.214634
     128A      1.220717   129A      1.247760   130A      1.257148
     131A      1.271960   132A      1.280894   133A      1.293509
     134A      1.300989   135A      1.334752   136A      1.354649
     137A      1.356333   138A      1.390739   139A      1.420625
     140A      1.424746   141A      1.467190   142A      1.473989
     143A      1.492111   144A      1.501573   145A      1.504913
     146A      1.539807   147A      1.572687   148A      1.592193
     149A      1.602836   150A      1.612467   151A      1.631415
     152A      1.661646   153A      1.675535   154A      1.679379
     155A      1.696856   156A      1.729308   157A      1.736681
     158A      1.782073   159A      1.789092   160A      1.805928
     161A      1.841876   162A      1.847420   163A      1.867732
     164A      1.874047   165A      1.879486   166A      1.883599
     167A      1.894503   168A      1.898201   169A      1.901259
     170A      1.911401   171A      1.918497   172A      1.925825
     173A      1.940439   174A      1.952526   175A      1.967427
     176A      1.969708   177A      1.986196   178A      1.992562
     179A      1.998458   180A      2.010688   181A      2.016860
     182A      2.023994   183A      2.030945   184A      2.032065
     185A      2.048408   186A      2.058629   187A      2.081238
     188A      2.094462   189A      2.102669   190A      2.128150
     191A      2.138743   192A      2.142748   193A      2.151305
     194A      2.191341   195A      2.224894   196A      2.230305
     197A      2.255468   198A      2.259144   199A      2.281536
     200A      2.293382   201A      2.316964   202A      2.331909
     203A      2.339992   204A      2.350311   205A      2.370835
     206A      2.434386   207A      2.453342   208A      2.460351
     209A      2.479860   210A      2.491098   211A      2.517982
     212A      2.532600   213A      2.546628   214A      2.548575
     215A      2.569090   216A      2.589736   217A      2.630440
     218A      2.638933   219A      2.663680   220A      2.748912
     221A      2.770935   222A      2.781330   223A      2.782397
     224A      2.785873   225A      2.793493   226A      2.807314
     227A      2.862852   228A      2.868325   229A      2.906323
     230A      2.918260   231A      2.938614   232A      2.969356
     233A      2.987893   234A      3.009111   235A      3.079477
     236A      3.170262   237A      3.243527   238A      3.275252
     239A      3.339662   240A      3.353551   241A      3.438509
     242A      3.486743   243A      3.562561   244A      3.632647
     245A      3.669515   246A      3.953816   247A      4.181548
     248A      4.188034

    Final Occupation by Irrep:
              A
    DOCC [    46 ]

  @RHF Final Energy:  -537.74424598019209

   => Energetics <=

    Nuclear Repulsion Energy =            702.1198209959557062
    One-Electron Energy =               -2124.8668229984396021
    Two-Electron Energy =                 885.0027560222918055
    Total Energy =                       -537.7442459801920904

Computation Completed

Properties will be evaluated at   0.000000,   0.000000,   0.000000 [a0]

Properties computed using the SCF density matrix

  Nuclear Dipole Moment: [e a0]
     X:     9.7996      Y:     5.0934      Z:    -0.9856

  Electronic Dipole Moment: [e a0]
     X:   -10.1672      Y:    -5.8805      Z:     0.4871

  Dipole Moment: [e a0]
     X:    -0.3676      Y:    -0.7870      Z:    -0.4985     Total:     1.0015

  Dipole Moment: [D]
     X:    -0.9343      Y:    -2.0005      Z:    -1.2671     Total:     2.5456

*** tstop() called on ds3 at Tue Apr 28 15:11:51 2020
Module time:
	user time   =     196.60 seconds =       3.28 minutes
	system time =      64.30 seconds =       1.07 minutes
	total time  =        539 seconds =       8.98 minutes
Total time:
	user time   =     196.60 seconds =       3.28 minutes
	system time =      64.30 seconds =       1.07 minutes
	total time  =        539 seconds =       8.98 minutes
                                     G D M A

                                 by Anthony Stone

                           version 2.2.06, 22 June 2011

               Distributed Multipoles from Gaussian wavefunctions

Starting at 15:11:51 on 28 Apr 2020

Using SCF density matrix from file ./SSI/SSI-008SER-093TYR-1-dimer.test.30215.fchk

                         Distributed Multipole Analysis

Standard DMA

Positions and radii in angstrom
Multipole moments in atomic units, ea_0^k for rank k

C          x =  1.982752  y = -0.016323  z =  1.638921 angstrom
           Maximum rank =  0   Radius =  0.650 angstrom
                   Q00  =   0.065780

C          x =  3.135752  y = -0.208323  z =  2.612921 angstrom
           Maximum rank =  0   Radius =  0.650 angstrom
                   Q00  =  -0.218134

O          x =  2.064752  y =  1.295677  z =  1.084921 angstrom
           Maximum rank =  0   Radius =  0.650 angstrom
                   Q00  =  -0.591422

H          x =  2.027752  y = -0.764323  z =  0.845921 angstrom
           Maximum rank =  0   Radius =  0.325 angstrom
                   Q00  =   0.047842

H          x =  1.039752  y = -0.128323  z =  2.175921 angstrom
           Maximum rank =  0   Radius =  0.325 angstrom
                   Q00  =   0.044178

H          x =  3.034752  y = -1.168323  z =  3.117921 angstrom
           Maximum rank =  0   Radius =  0.325 angstrom
                   Q00  =   0.082981

H          x =  1.203752  y =  1.503677  z =  0.701921 angstrom
           Maximum rank =  0   Radius =  0.325 angstrom
                   Q00  =   0.407704

H          x =  3.082276  y =  0.625447  z =  3.328441 angstrom
           Maximum rank =  0   Radius =  0.325 angstrom
                   Q00  =   0.088715

H          x =  4.050226  y = -0.205433  z =  2.001587 angstrom
           Maximum rank =  0   Radius =  0.325 angstrom
                   Q00  =   0.082820

C          x =  0.782752  y =  1.419677  z = -1.723079 angstrom
           Maximum rank =  0   Radius =  0.650 angstrom
                   Q00  =  -0.028547

C          x =  0.127752  y =  2.301677  z = -2.778079 angstrom
           Maximum rank =  0   Radius =  0.650 angstrom
                   Q00  =  -0.229847

C          x = -0.145248  y =  0.445677  z = -1.042079 angstrom
           Maximum rank =  0   Radius =  0.650 angstrom
                   Q00  =  -0.151669

C          x = -0.212248  y = -0.890323  z = -1.442079 angstrom
           Maximum rank =  0   Radius =  0.650 angstrom
                   Q00  =  -0.055072

C          x = -0.948248  y =  0.868677  z =  0.014921 angstrom
           Maximum rank =  0   Radius =  0.650 angstrom
                   Q00  =   0.005300

C          x = -1.073248  y = -1.790323  z = -0.789079 angstrom
           Maximum rank =  0   Radius =  0.650 angstrom
                   Q00  =  -0.173569

C          x = -1.809248  y = -0.024323  z =  0.665921 angstrom
           Maximum rank =  0   Radius =  0.650 angstrom
                   Q00  =  -0.109087

C          x = -1.861248  y = -1.350323  z =  0.267921 angstrom
           Maximum rank =  0   Radius =  0.650 angstrom
                   Q00  =   0.328901

O          x = -2.708248  y = -2.205323  z =  0.912921 angstrom
           Maximum rank =  0   Radius =  0.650 angstrom
                   Q00  =  -0.674049

H          x =  1.596752  y =  0.859677  z = -2.169079 angstrom
           Maximum rank =  0   Radius =  0.325 angstrom
                   Q00  =   0.073174

H          x =  1.209752  y =  2.096677  z = -0.990079 angstrom
           Maximum rank =  0   Radius =  0.325 angstrom
                   Q00  =   0.051285

H          x = -0.636248  y =  2.917677  z = -2.299079 angstrom
           Maximum rank =  0   Radius =  0.325 angstrom
                   Q00  =   0.080518

H          x =  0.402752  y = -1.237323  z = -2.263079 angstrom
           Maximum rank =  0   Radius =  0.325 angstrom
                   Q00  =   0.073777

H          x = -0.939248  y =  1.907677  z =  0.323921 angstrom
           Maximum rank =  0   Radius =  0.325 angstrom
                   Q00  =   0.063208

H          x = -1.118248  y = -2.821323  z = -1.109079 angstrom
           Maximum rank =  0   Radius =  0.325 angstrom
                   Q00  =   0.076564

H          x = -2.437248  y =  0.313677  z =  1.477921 angstrom
           Maximum rank =  0   Radius =  0.325 angstrom
                   Q00  =   0.085847

H          x = -2.637248  y = -3.102323  z =  0.571921 angstrom
           Maximum rank =  0   Radius =  0.325 angstrom
                   Q00  =   0.406880

H          x = -0.318078  y =  1.679027  z = -3.567726 angstrom
           Maximum rank =  0   Radius =  0.325 angstrom
                   Q00  =   0.081270

H          x =  0.895089  y =  2.961677  z = -3.208890 angstrom
           Maximum rank =  0   Radius =  0.325 angstrom
                   Q00  =   0.084653

Total multipoles referred to origin at
           x =   0.000000,  y =    0.000000,  z =    0.000000 angstrom
                   Q00  =  -0.000000

Finished at 15:11:51 on 28 Apr 2020

  DMA results are available in the Python driver through the
	  variable('DMA DISTRIBUTED MULTIPOLES')
  and
	  variable('DMA TOTAL MULTIPOLES')
  commands.

    Psi4 stopped on: Tuesday, 28 April 2020 03:11PM
    Psi4 wall time for execution: 0:08:58.87

*** Psi4 exiting successfully. Buy a developer a beer!
