                               Psi4 1.3.2 release

  ==> Input File <==

--------------------------------------------------------------------------
import numpy as np
set {scf_type pk
basis cc-pvdz
d_convergence 10
gdma_switch   0
gdma_limit    0
gdma_origin   [ 0.0,  0.0,  0.0 ]
}
molecule test {
    units Angstrom
    -1 1
    --
    -1 1
    C               -1.282277798626240    -2.427392901686639     0.926035484489960
    C               -1.858277798626240    -3.369392901686639     1.989035484489960
    H               -0.326277798626240    -2.028392901686639     1.260035484489960
    H               -1.125277798626240    -2.946392901686639    -0.013964515510040
    H               -1.966277798626240    -1.600392901686639     0.745035484489960
    H               -2.886277798626240    -3.610392901686639     1.711035484489960
    H               -1.856137798626240    -2.899232901686639     2.983495484489960
    H               -1.279447798626240    -4.303212901686639     2.043215484489960
    C               -0.091277798626240     0.598607098313361    -1.105964515510040
    C               -0.732277798626240     1.664607098313361    -2.003964515510040
    C                1.040722201373760     1.096607098313362    -0.200964515510040
    O                1.550722201373760     2.213607098313361    -0.407964515510040
    O                1.432722201373760     0.351607098313361     0.718035484489960
    H               -0.863277798626240     0.119607098313361    -0.507964515510040
    H                0.333722201373760    -0.179392901686639    -1.743964515510041
    H                0.068722201373760     2.182607098313361    -2.531964515510040
    H               -1.283267798626240     2.384897098313361    -1.381404515510041
    H               -1.357337798626240     1.185007098313361    -2.771614515510040

}
e, wfn = energy('scf', return_wfn=True)
gdma(wfn)
dmavals = variable('DMA DISTRIBUTED MULTIPOLES')
charges = np.array(dmavals)
print(charges)
np.save('SSI-033ILE-037ASP-1-dimer.npy', np.array(charges))--------------------------------------------------------------------------

*** tstart() called on ds3
*** at Tue Apr 28 04:38:27 2020

   => Loading Basis Set <=

    Name: CC-PVDZ
    Role: ORBITAL
    Keyword: BASIS
    atoms 1-2, 9-11  entry C          line   138 file /theoryfs2/ds/metcalf/miniconda2/envs/tf2gpu/share/psi4/basis/cc-pvdz.gbs
    atoms 3-8, 14-18 entry H          line    22 file /theoryfs2/ds/metcalf/miniconda2/envs/tf2gpu/share/psi4/basis/cc-pvdz.gbs
    atoms 12-13      entry O          line   198 file /theoryfs2/ds/metcalf/miniconda2/envs/tf2gpu/share/psi4/basis/cc-pvdz.gbs

         ---------------------------------------------------------
                                   SCF
               by Justin Turney, Rob Parrish, Andy Simmonett
                          and Daniel G. A. Smith
                              RHF Reference
                        1 Threads,    500 MiB Core
         ---------------------------------------------------------

  ==> Geometry <==

    Molecular point group: c1
    Full point group: C1

    Geometry (in Angstrom), charge = -1, multiplicity = 1:

       Center              X                  Y                   Z               Mass
    ------------   -----------------  -----------------  -----------------  -----------------
         C           -1.282277798626    -2.427392901687     0.926035484490    12.000000000000
         C           -1.858277798626    -3.369392901687     1.989035484490    12.000000000000
         H           -0.326277798626    -2.028392901687     1.260035484490     1.007825032230
         H           -1.125277798626    -2.946392901687    -0.013964515510     1.007825032230
         H           -1.966277798626    -1.600392901687     0.745035484490     1.007825032230
         H           -2.886277798626    -3.610392901687     1.711035484490     1.007825032230
         H           -1.856137798626    -2.899232901687     2.983495484490     1.007825032230
         H           -1.279447798626    -4.303212901687     2.043215484490     1.007825032230
         C           -0.091277798626     0.598607098313    -1.105964515510    12.000000000000
         C           -0.732277798626     1.664607098313    -2.003964515510    12.000000000000
         C            1.040722201374     1.096607098313    -0.200964515510    12.000000000000
         O            1.550722201374     2.213607098313    -0.407964515510    15.994914619570
         O            1.432722201374     0.351607098313     0.718035484490    15.994914619570
         H           -0.863277798626     0.119607098313    -0.507964515510     1.007825032230
         H            0.333722201374    -0.179392901687    -1.743964515510     1.007825032230
         H            0.068722201374     2.182607098313    -2.531964515510     1.007825032230
         H           -1.283267798626     2.384897098313    -1.381404515510     1.007825032230
         H           -1.357337798626     1.185007098313    -2.771614515510     1.007825032230

  Running in c1 symmetry.

  Rotational constants: A =      0.12278  B =      0.02697  C =      0.02273 [cm^-1]
  Rotational constants: A =   3680.99433  B =    808.67798  C =    681.38606 [MHz]
  Nuclear repulsion =  284.645722098556121

  Charge       = -1
  Multiplicity = 1
  Electrons    = 58
  Nalpha       = 29
  Nbeta        = 29

  ==> Algorithm <==

  SCF Algorithm Type is PK.
  DIIS enabled.
  MOM disabled.
  Fractional occupation disabled.
  Guess Type is SAD.
  Energy threshold   = 1.00e-06
  Density threshold  = 1.00e-10
  Integral threshold = 0.00e+00

  ==> Primary Basis <==

  Basis Set: CC-PVDZ
    Blend: CC-PVDZ
    Number of shells: 75
    Number of basis function: 153
    Number of Cartesian functions: 160
    Spherical Harmonics?: true
    Max angular momentum: 2

  ==> Pre-Iterations <==

   -------------------------------------------------------
    Irrep   Nso     Nmo     Nalpha   Nbeta   Ndocc  Nsocc
   -------------------------------------------------------
     A        153     153       0       0       0       0
   -------------------------------------------------------
    Total     153     153      29      29      29       0
   -------------------------------------------------------

  ==> Integral Setup <==

  Using integral reordering PK algorithm.
  Sizing the integral batches needed.
  Building batch lookup table.
   Calculation information:
      Number of atoms:                  18
      Number of AO shells:              75
      Number of primitives:            209
      Number of atomic orbitals:       160
      Number of basis functions:       153

      Integral cutoff                 1.00e-12
      Number of threads:                 1

	Batch   1 pq = [       0,    9405] index = [             0,44231715] size =     44231715
	Batch   2 pq = [    9405,   11781] index = [      44231715,69401871] size =     25170156
  Task number: 7
  Buffer size: 11059200
  Buffer per thread: 2
  We computed 3167443 shell quartets total.
  Whereas there are 4062675 unique shell quartets.

  ==> DiskJK: Disk-Based J/K Matrices <==

    J tasked:                  Yes
    K tasked:                  Yes
    wK tasked:                  No
    Memory [MiB]:              375
    Schwarz Cutoff:          1E-12

    OpenMP threads:              1

  Minimum eigenvalue in the overlap matrix is 3.7926339622E-03.
  Using Symmetric Orthogonalization.

  SCF Guess: Superposition of Atomic Densities via on-the-fly atomic UHF.

  ==> Iterations <==

                        Total Energy        Delta E     RMS |[F,P]|

   @RHF iter SAD:  -343.84094567941241   -3.43841e+02   0.00000e+00
   @RHF iter   1:  -345.22331932108500   -1.38237e+00   4.90753e-03 DIIS
   @RHF iter   2:  -345.44508759011188   -2.21768e-01   2.71270e-03 DIIS
   @RHF iter   3:  -345.50976016294834   -6.46726e-02   4.23107e-04 DIIS
   @RHF iter   4:  -345.51272934386617   -2.96918e-03   1.64849e-04 DIIS
   @RHF iter   5:  -345.51315970976651   -4.30366e-04   2.42631e-05 DIIS
   @RHF iter   6:  -345.51317287826214   -1.31685e-05   5.72656e-06 DIIS
   @RHF iter   7:  -345.51317348114350   -6.02881e-07   2.23192e-06 DIIS
   @RHF iter   8:  -345.51317355630175   -7.51583e-08   8.27312e-07 DIIS
   @RHF iter   9:  -345.51317356665311   -1.03514e-08   2.36535e-07 DIIS
   @RHF iter  10:  -345.51317356852167   -1.86856e-09   8.64447e-08 DIIS
   @RHF iter  11:  -345.51317356878798   -2.66311e-10   2.52803e-08 DIIS
   @RHF iter  12:  -345.51317356881407   -2.60911e-11   8.29379e-09 DIIS
   @RHF iter  13:  -345.51317356881611   -2.04636e-12   2.61889e-09 DIIS
   @RHF iter  14:  -345.51317356881623   -1.13687e-13   7.12296e-10 DIIS
   @RHF iter  15:  -345.51317356881475    1.47793e-12   2.53887e-10 DIIS
   @RHF iter  16:  -345.51317356881725   -2.50111e-12   8.86813e-11 DIIS
  Energy and wave function converged.

  ==> Post-Iterations <==

    Orbital Energies [Eh]
    ---------------------

    Doubly Occupied:

       1A    -20.257870     2A    -20.254330     3A    -11.125714
       4A    -11.111315     5A    -11.103455     6A    -11.071610
       7A    -11.052262     8A     -1.150631     9A     -1.033710
      10A     -0.914236    11A     -0.867274    12A     -0.735024
      13A     -0.699400    14A     -0.503320    15A     -0.495480
      16A     -0.493536    17A     -0.457140    18A     -0.429811
      19A     -0.399970    20A     -0.386720    21A     -0.383481
      22A     -0.378503    23A     -0.362240    24A     -0.355084
      25A     -0.322281    26A     -0.298039    27A     -0.180131
      28A     -0.166972    29A     -0.158308

    Virtual:

      30A      0.281644    31A      0.321053    32A      0.341404
      33A      0.346538    34A      0.355712    35A      0.373485
      36A      0.394489    37A      0.403347    38A      0.418102
      39A      0.421326    40A      0.448930    41A      0.497914
      42A      0.515516    43A      0.552763    44A      0.609142
      45A      0.690071    46A      0.699181    47A      0.702291
      48A      0.708519    49A      0.713586    50A      0.759699
      51A      0.789019    52A      0.804170    53A      0.843634
      54A      0.874586    55A      0.936840    56A      0.965651
      57A      0.978846    58A      0.982152    59A      0.985325
      60A      1.003692    61A      1.009645    62A      1.012126
      63A      1.034854    64A      1.037793    65A      1.045920
      66A      1.059723    67A      1.061517    68A      1.075489
      69A      1.079026    70A      1.091488    71A      1.148221
      72A      1.154982    73A      1.221337    74A      1.231016
      75A      1.289070    76A      1.306134    77A      1.317703
      78A      1.338610    79A      1.408747    80A      1.468092
      81A      1.495149    82A      1.532271    83A      1.573583
      84A      1.584811    85A      1.609323    86A      1.626358
      87A      1.641311    88A      1.675077    89A      1.708148
      90A      1.732937    91A      1.775799    92A      1.813471
      93A      1.815082    94A      1.831690    95A      1.868798
      96A      1.915922    97A      1.971673    98A      1.974011
      99A      1.996616   100A      2.016916   101A      2.032425
     102A      2.039468   103A      2.044551   104A      2.052967
     105A      2.057553   106A      2.060782   107A      2.091311
     108A      2.141035   109A      2.152075   110A      2.167093
     111A      2.176623   112A      2.190320   113A      2.203343
     114A      2.218518   115A      2.229308   116A      2.255969
     117A      2.357409   118A      2.390770   119A      2.415135
     120A      2.434569   121A      2.471906   122A      2.494001
     123A      2.525991   124A      2.546016   125A      2.562644
     126A      2.597254   127A      2.661314   128A      2.666982
     129A      2.683854   130A      2.726896   131A      2.768636
     132A      2.822801   133A      2.853055   134A      2.905189
     135A      2.915066   136A      2.958102   137A      2.962264
     138A      2.986476   139A      3.001811   140A      3.046102
     141A      3.057250   142A      3.069318   143A      3.144043
     144A      3.247563   145A      3.294343   146A      3.302759
     147A      3.367725   148A      3.651593   149A      3.783114
     150A      3.831811   151A      4.068082   152A      4.095987
     153A      4.220104

    Final Occupation by Irrep:
              A
    DOCC [    29 ]

  @RHF Final Energy:  -345.51317356881725

   => Energetics <=

    Nuclear Repulsion Energy =            284.6457220985561207
    One-Electron Energy =               -1046.0220982580265172
    Two-Electron Energy =                 415.8632025906531453
    Total Energy =                       -345.5131735688172512

Computation Completed

Properties will be evaluated at   0.000000,   0.000000,   0.000000 [a0]

Properties computed using the SCF density matrix

  Nuclear Dipole Moment: [e a0]
     X:   -11.7426      Y:   -10.9517      Z:    -0.1936

  Electronic Dipole Moment: [e a0]
     X:     9.1585      Y:     8.6847      Z:    -0.1775

  Dipole Moment: [e a0]
     X:    -2.5841      Y:    -2.2670      Z:    -0.3711     Total:     3.4576

  Dipole Moment: [D]
     X:    -6.5682      Y:    -5.7621      Z:    -0.9433     Total:     8.7882

*** tstop() called on ds3 at Tue Apr 28 04:39:58 2020
Module time:
	user time   =      20.97 seconds =       0.35 minutes
	system time =       8.91 seconds =       0.15 minutes
	total time  =         91 seconds =       1.52 minutes
Total time:
	user time   =      20.97 seconds =       0.35 minutes
	system time =       8.91 seconds =       0.15 minutes
	total time  =         91 seconds =       1.52 minutes
                                     G D M A

                                 by Anthony Stone

                           version 2.2.06, 22 June 2011

               Distributed Multipoles from Gaussian wavefunctions

Starting at 4:39:58 on 28 Apr 2020

Using SCF density matrix from file ./SSI/SSI-033ILE-037ASP-1-dimer.test.27745.fchk

                         Distributed Multipole Analysis

Standard DMA

Positions and radii in angstrom
Multipole moments in atomic units, ea_0^k for rank k

C          x = -1.282278  y = -2.427393  z =  0.926035 angstrom
           Maximum rank =  0   Radius =  0.650 angstrom
                   Q00  =  -0.190928

C          x = -1.858278  y = -3.369393  z =  1.989035 angstrom
           Maximum rank =  0   Radius =  0.650 angstrom
                   Q00  =  -0.245413

H          x = -0.326278  y = -2.028393  z =  1.260035 angstrom
           Maximum rank =  0   Radius =  0.325 angstrom
                   Q00  =   0.099905

H          x = -1.125278  y = -2.946393  z = -0.013965 angstrom
           Maximum rank =  0   Radius =  0.325 angstrom
                   Q00  =   0.063501

H          x = -1.966278  y = -1.600393  z =  0.745035 angstrom
           Maximum rank =  0   Radius =  0.325 angstrom
                   Q00  =   0.072544

H          x = -2.886278  y = -3.610393  z =  1.711035 angstrom
           Maximum rank =  0   Radius =  0.325 angstrom
                   Q00  =   0.054272

H          x = -1.856138  y = -2.899233  z =  2.983495 angstrom
           Maximum rank =  0   Radius =  0.325 angstrom
                   Q00  =   0.076852

H          x = -1.279448  y = -4.303213  z =  2.043215 angstrom
           Maximum rank =  0   Radius =  0.325 angstrom
                   Q00  =   0.064867

C          x = -0.091278  y =  0.598607  z = -1.105965 angstrom
           Maximum rank =  0   Radius =  0.650 angstrom
                   Q00  =  -0.173762

C          x = -0.732278  y =  1.664607  z = -2.003965 angstrom
           Maximum rank =  0   Radius =  0.650 angstrom
                   Q00  =  -0.215699

C          x =  1.040722  y =  1.096607  z = -0.200965 angstrom
           Maximum rank =  0   Radius =  0.650 angstrom
                   Q00  =   1.028995

O          x =  1.550722  y =  2.213607  z = -0.407965 angstrom
           Maximum rank =  0   Radius =  0.650 angstrom
                   Q00  =  -0.958356

O          x =  1.432722  y =  0.351607  z =  0.718035 angstrom
           Maximum rank =  0   Radius =  0.650 angstrom
                   Q00  =  -0.941456

H          x = -0.863278  y =  0.119607  z = -0.507965 angstrom
           Maximum rank =  0   Radius =  0.325 angstrom
                   Q00  =   0.035694

H          x =  0.333722  y = -0.179393  z = -1.743965 angstrom
           Maximum rank =  0   Radius =  0.325 angstrom
                   Q00  =   0.049725

H          x =  0.068722  y =  2.182607  z = -2.531965 angstrom
           Maximum rank =  0   Radius =  0.325 angstrom
                   Q00  =   0.090298

H          x = -1.283268  y =  2.384897  z = -1.381405 angstrom
           Maximum rank =  0   Radius =  0.325 angstrom
                   Q00  =   0.070341

H          x = -1.357338  y =  1.185007  z = -2.771615 angstrom
           Maximum rank =  0   Radius =  0.325 angstrom
                   Q00  =   0.018622

Total multipoles referred to origin at
           x =   0.000000,  y =    0.000000,  z =    0.000000 angstrom
                   Q00  =  -1.000000

Finished at 4:39:58 on 28 Apr 2020

  DMA results are available in the Python driver through the
	  variable('DMA DISTRIBUTED MULTIPOLES')
  and
	  variable('DMA TOTAL MULTIPOLES')
  commands.

    Psi4 stopped on: Tuesday, 28 April 2020 04:39AM
    Psi4 wall time for execution: 0:01:31.15

*** Psi4 exiting successfully. Buy a developer a beer!
