                               Psi4 1.3.2 release

  ==> Input File <==

--------------------------------------------------------------------------
import numpy as np
set {scf_type pk
basis cc-pvdz
d_convergence 10
gdma_switch   0
gdma_limit    0
gdma_origin   [ 0.0,  0.0,  0.0 ]
}
molecule test {
    units Angstrom
    -1 1
    --
    -1 1
    C               -1.352552316713366    -1.496896654681000     0.946128655205809
    C               -0.214552316713366    -1.418896654681000    -0.057871344794190
    O                0.979447683286634    -1.475896654681000     0.315128655205810
    O               -0.501552316713366    -1.235896654681000    -1.260871344794190
    H               -1.981552316713366    -2.362896654681000     0.735128655205809
    H               -1.963552316713366    -0.599896654681000     0.830128655205809
    H               -0.991926316713366    -1.545746654681000     1.984185655205809
    C                0.633447683286634     2.070103345319001     0.316128655205810
    C                0.441447683286634     3.452103345319000    -0.248871344794190
    H               -0.135552316713366     1.831103345319000     1.049128655205809
    H                0.560447683286634     1.351103345319000    -0.496871344794190
    H                1.620447683286634     1.985103345319000     0.771128655205810
    H               -0.558552316713366     3.520103345319000    -0.678871344794191
    H                1.156447683286634     3.576103345319000    -1.059871344794190
    H                0.569897683286634     4.249033345319001     0.498387655205810

}
e, wfn = energy('scf', return_wfn=True)
gdma(wfn)
dmavals = variable('DMA DISTRIBUTED MULTIPOLES')
charges = np.array(dmavals)
print(charges)
np.save('SSI-079ASP-135ILE-1-dimer.npy', np.array(charges))--------------------------------------------------------------------------

*** tstart() called on ds3
*** at Sun Apr 26 17:11:29 2020

   => Loading Basis Set <=

    Name: CC-PVDZ
    Role: ORBITAL
    Keyword: BASIS
    atoms 1-2, 8-9   entry C          line   138 file /theoryfs2/ds/metcalf/miniconda2/envs/tf2gpu/share/psi4/basis/cc-pvdz.gbs
    atoms 3-4        entry O          line   198 file /theoryfs2/ds/metcalf/miniconda2/envs/tf2gpu/share/psi4/basis/cc-pvdz.gbs
    atoms 5-7, 10-15 entry H          line    22 file /theoryfs2/ds/metcalf/miniconda2/envs/tf2gpu/share/psi4/basis/cc-pvdz.gbs

         ---------------------------------------------------------
                                   SCF
               by Justin Turney, Rob Parrish, Andy Simmonett
                          and Daniel G. A. Smith
                              RHF Reference
                        1 Threads,    500 MiB Core
         ---------------------------------------------------------

  ==> Geometry <==

    Molecular point group: c1
    Full point group: C1

    Geometry (in Angstrom), charge = -1, multiplicity = 1:

       Center              X                  Y                   Z               Mass
    ------------   -----------------  -----------------  -----------------  -----------------
         C           -1.352552316713    -1.496896654681     0.946128655206    12.000000000000
         C           -0.214552316713    -1.418896654681    -0.057871344794    12.000000000000
         O            0.979447683287    -1.475896654681     0.315128655206    15.994914619570
         O           -0.501552316713    -1.235896654681    -1.260871344794    15.994914619570
         H           -1.981552316713    -2.362896654681     0.735128655206     1.007825032230
         H           -1.963552316713    -0.599896654681     0.830128655206     1.007825032230
         H           -0.991926316713    -1.545746654681     1.984185655206     1.007825032230
         C            0.633447683287     2.070103345319     0.316128655206    12.000000000000
         C            0.441447683287     3.452103345319    -0.248871344794    12.000000000000
         H           -0.135552316713     1.831103345319     1.049128655206     1.007825032230
         H            0.560447683287     1.351103345319    -0.496871344794     1.007825032230
         H            1.620447683287     1.985103345319     0.771128655206     1.007825032230
         H           -0.558552316713     3.520103345319    -0.678871344794     1.007825032230
         H            1.156447683287     3.576103345319    -1.059871344794     1.007825032230
         H            0.569897683287     4.249033345319     0.498387655206     1.007825032230

  Running in c1 symmetry.

  Rotational constants: A =      0.17169  B =      0.03957  C =      0.03913 [cm^-1]
  Rotational constants: A =   5147.17321  B =   1186.21353  C =   1173.23219 [MHz]
  Nuclear repulsion =  223.346297785893995

  Charge       = -1
  Multiplicity = 1
  Electrons    = 50
  Nalpha       = 25
  Nbeta        = 25

  ==> Algorithm <==

  SCF Algorithm Type is PK.
  DIIS enabled.
  MOM disabled.
  Fractional occupation disabled.
  Guess Type is SAD.
  Energy threshold   = 1.00e-06
  Density threshold  = 1.00e-10
  Integral threshold = 0.00e+00

  ==> Primary Basis <==

  Basis Set: CC-PVDZ
    Blend: CC-PVDZ
    Number of shells: 63
    Number of basis function: 129
    Number of Cartesian functions: 135
    Spherical Harmonics?: true
    Max angular momentum: 2

  ==> Pre-Iterations <==

   -------------------------------------------------------
    Irrep   Nso     Nmo     Nalpha   Nbeta   Ndocc  Nsocc
   -------------------------------------------------------
     A        129     129       0       0       0       0
   -------------------------------------------------------
    Total     129     129      25      25      25       0
   -------------------------------------------------------

  ==> Integral Setup <==

  Using integral reordering PK algorithm.
  Sizing the integral batches needed.
  Building batch lookup table.
   Calculation information:
      Number of atoms:                  15
      Number of AO shells:              63
      Number of primitives:            177
      Number of atomic orbitals:       135
      Number of basis functions:       129

      Integral cutoff                 1.00e-12
      Number of threads:                 1

	Batch   1 pq = [       0,    8385] index = [             0,35158305] size =     35158305
  Task number: 4
  Buffer size: 11059200
  Buffer per thread: 2
  We computed 1687855 shell quartets total.
  Whereas there are 2033136 unique shell quartets.

  ==> DiskJK: Disk-Based J/K Matrices <==

    J tasked:                  Yes
    K tasked:                  Yes
    wK tasked:                  No
    Memory [MiB]:              375
    Schwarz Cutoff:          1E-12

    OpenMP threads:              1

  Minimum eigenvalue in the overlap matrix is 5.2570286293E-03.
  Using Symmetric Orthogonalization.

  SCF Guess: Superposition of Atomic Densities via on-the-fly atomic UHF.

  ==> Iterations <==

                        Total Energy        Delta E     RMS |[F,P]|

   @RHF iter SAD:  -304.89138306569203   -3.04891e+02   0.00000e+00
   @RHF iter   1:  -306.20298975047524   -1.31161e+00   5.70210e-03 DIIS
   @RHF iter   2:  -306.40628968566233   -2.03300e-01   3.20673e-03 DIIS
   @RHF iter   3:  -306.46898915497604   -6.26995e-02   4.77011e-04 DIIS
   @RHF iter   4:  -306.47158153189707   -2.59238e-03   1.78438e-04 DIIS
   @RHF iter   5:  -306.47196626581922   -3.84734e-04   2.58846e-05 DIIS
   @RHF iter   6:  -306.47197655667264   -1.02909e-05   6.54371e-06 DIIS
   @RHF iter   7:  -306.47197707905002   -5.22377e-07   2.44800e-06 DIIS
   @RHF iter   8:  -306.47197713948395   -6.04339e-08   8.51353e-07 DIIS
   @RHF iter   9:  -306.47197714671972   -7.23577e-09   2.30830e-07 DIIS
   @RHF iter  10:  -306.47197714788473   -1.16501e-09   8.24057e-08 DIIS
   @RHF iter  11:  -306.47197714806890   -1.84173e-10   2.41855e-08 DIIS
   @RHF iter  12:  -306.47197714808647   -1.75646e-11   7.55842e-09 DIIS
   @RHF iter  13:  -306.47197714808766   -1.19371e-12   2.51304e-09 DIIS
   @RHF iter  14:  -306.47197714808880   -1.13687e-12   8.03112e-10 DIIS
   @RHF iter  15:  -306.47197714808732    1.47793e-12   3.22477e-10 DIIS
   @RHF iter  16:  -306.47197714808857   -1.25056e-12   9.83828e-11 DIIS
  Energy and wave function converged.

  ==> Post-Iterations <==

    Orbital Energies [Eh]
    ---------------------

    Doubly Occupied:

       1A    -20.251129     2A    -20.248101     3A    -11.109042
       4A    -11.104889     5A    -11.079652     6A    -11.050303
       7A     -1.142645     8A     -1.024072     9A     -0.902917
      10A     -0.795945    11A     -0.711465    12A     -0.495929
      13A     -0.481482    14A     -0.479828    15A     -0.410886
      16A     -0.403806    17A     -0.397334    18A     -0.380641
      19A     -0.361379    20A     -0.358157    21A     -0.334943
      22A     -0.296517    23A     -0.179599    24A     -0.160647
      25A     -0.151225

    Virtual:

      26A      0.297391    27A      0.336646    28A      0.362240
      29A      0.366251    30A      0.382011    31A      0.400402
      32A      0.412741    33A      0.419781    34A      0.449283
      35A      0.498387    36A      0.524415    37A      0.575920
      38A      0.672384    39A      0.708579    40A      0.721039
      41A      0.723752    42A      0.769854    43A      0.791618
      44A      0.819892    45A      0.843415    46A      0.884063
      47A      0.962371    48A      0.978077    49A      0.999913
      50A      1.002703    51A      1.015225    52A      1.027707
      53A      1.032802    54A      1.041655    55A      1.054072
      56A      1.060435    57A      1.085440    58A      1.098241
      59A      1.120981    60A      1.141578    61A      1.235380
      62A      1.252038    63A      1.271222    64A      1.329043
      65A      1.359839    66A      1.379012    67A      1.405720
      68A      1.546244    69A      1.572128    70A      1.586676
      71A      1.597883    72A      1.606412    73A      1.620263
      74A      1.654460    75A      1.683348    76A      1.728357
      77A      1.741551    78A      1.791710    79A      1.833908
      80A      1.842657    81A      1.870526    82A      1.973247
      83A      1.989752    84A      2.028896    85A      2.050339
      86A      2.075259    87A      2.078840    88A      2.082693
      89A      2.087113    90A      2.092242    91A      2.105447
      92A      2.126469    93A      2.166141    94A      2.217474
      95A      2.228502    96A      2.241466    97A      2.295569
      98A      2.314837    99A      2.427690   100A      2.433622
     101A      2.458165   102A      2.500527   103A      2.576390
     104A      2.595016   105A      2.614982   106A      2.650305
     107A      2.700228   108A      2.714601   109A      2.730426
     110A      2.807264   111A      2.880142   112A      2.917663
     113A      2.937406   114A      2.965079   115A      2.978649
     116A      2.992636   117A      3.001199   118A      3.084703
     119A      3.098682   120A      3.251761   121A      3.291435
     122A      3.304415   123A      3.372361   124A      3.659414
     125A      3.769217   126A      3.823012   127A      4.077510
     128A      4.085936   129A      4.207699

    Final Occupation by Irrep:
              A
    DOCC [    25 ]

  @RHF Final Energy:  -306.47197714808857

   => Energetics <=

    Nuclear Repulsion Energy =            223.3462977858939951
    One-Electron Energy =                -871.0114833250316906
    Two-Electron Energy =                 341.1932083910491542
    Total Energy =                       -306.4719771480885697

Computation Completed

Properties will be evaluated at   0.000000,   0.000000,   0.000000 [a0]

Properties computed using the SCF density matrix

  Nuclear Dipole Moment: [e a0]
     X:    -1.6138      Y:    11.2404      Z:     3.4008

  Electronic Dipole Moment: [e a0]
     X:     0.9525      Y:    -9.1270      Z:    -2.4167

  Dipole Moment: [e a0]
     X:    -0.6613      Y:     2.1134      Z:     0.9841     Total:     2.4233

  Dipole Moment: [D]
     X:    -1.6809      Y:     5.3717      Z:     2.5014     Total:     6.1594

*** tstop() called on ds3 at Sun Apr 26 17:11:46 2020
Module time:
	user time   =      12.21 seconds =       0.20 minutes
	system time =       5.17 seconds =       0.09 minutes
	total time  =         17 seconds =       0.28 minutes
Total time:
	user time   =      12.21 seconds =       0.20 minutes
	system time =       5.17 seconds =       0.09 minutes
	total time  =         17 seconds =       0.28 minutes
                                     G D M A

                                 by Anthony Stone

                           version 2.2.06, 22 June 2011

               Distributed Multipoles from Gaussian wavefunctions

Starting at 17:11:46 on 26 Apr 2020

Using SCF density matrix from file ./SSI/SSI-079ASP-135ILE-1-dimer.test.17850.fchk

                         Distributed Multipole Analysis

Standard DMA

Positions and radii in angstrom
Multipole moments in atomic units, ea_0^k for rank k

C          x = -1.352552  y = -1.496897  z =  0.946129 angstrom
           Maximum rank =  0   Radius =  0.650 angstrom
                   Q00  =  -0.280836

C          x = -0.214552  y = -1.418897  z = -0.057871 angstrom
           Maximum rank =  0   Radius =  0.650 angstrom
                   Q00  =   0.978225

O          x =  0.979448  y = -1.475897  z =  0.315129 angstrom
           Maximum rank =  0   Radius =  0.650 angstrom
                   Q00  =  -0.932733

O          x = -0.501552  y = -1.235897  z = -1.260871 angstrom
           Maximum rank =  0   Radius =  0.650 angstrom
                   Q00  =  -0.943781

H          x = -1.981552  y = -2.362897  z =  0.735129 angstrom
           Maximum rank =  0   Radius =  0.325 angstrom
                   Q00  =   0.070975

H          x = -1.963552  y = -0.599897  z =  0.830129 angstrom
           Maximum rank =  0   Radius =  0.325 angstrom
                   Q00  =   0.065855

H          x = -0.991926  y = -1.545747  z =  1.984186 angstrom
           Maximum rank =  0   Radius =  0.325 angstrom
                   Q00  =   0.047432

C          x =  0.633448  y =  2.070103  z =  0.316129 angstrom
           Maximum rank =  0   Radius =  0.650 angstrom
                   Q00  =  -0.181404

C          x =  0.441448  y =  3.452103  z = -0.248871 angstrom
           Maximum rank =  0   Radius =  0.650 angstrom
                   Q00  =  -0.242307

H          x = -0.135552  y =  1.831103  z =  1.049129 angstrom
           Maximum rank =  0   Radius =  0.325 angstrom
                   Q00  =   0.064069

H          x =  0.560448  y =  1.351103  z = -0.496871 angstrom
           Maximum rank =  0   Radius =  0.325 angstrom
                   Q00  =   0.117191

H          x =  1.620448  y =  1.985103  z =  0.771129 angstrom
           Maximum rank =  0   Radius =  0.325 angstrom
                   Q00  =   0.060409

H          x = -0.558552  y =  3.520103  z = -0.678871 angstrom
           Maximum rank =  0   Radius =  0.325 angstrom
                   Q00  =   0.067768

H          x =  1.156448  y =  3.576103  z = -1.059871 angstrom
           Maximum rank =  0   Radius =  0.325 angstrom
                   Q00  =   0.064273

H          x =  0.569898  y =  4.249033  z =  0.498388 angstrom
           Maximum rank =  0   Radius =  0.325 angstrom
                   Q00  =   0.044864

Total multipoles referred to origin at
           x =   0.000000,  y =    0.000000,  z =    0.000000 angstrom
                   Q00  =  -1.000000

Finished at 17:11:46 on 26 Apr 2020

  DMA results are available in the Python driver through the
	  variable('DMA DISTRIBUTED MULTIPOLES')
  and
	  variable('DMA TOTAL MULTIPOLES')
  commands.

    Psi4 stopped on: Sunday, 26 April 2020 05:11PM
    Psi4 wall time for execution: 0:00:17.52

*** Psi4 exiting successfully. Buy a developer a beer!
