                               Psi4 1.3.2 release

  ==> Input File <==

--------------------------------------------------------------------------
import numpy as np
set {scf_type pk
basis cc-pvdz
d_convergence 10
gdma_switch   0
gdma_limit    0
gdma_origin   [ 0.0,  0.0,  0.0 ]
}
molecule test {
    units Angstrom
    0 1
    --
    0 1
    C                0.104190843978244    -0.498558157194894    -1.677075952717503
    C               -1.116809156021755    -1.409558157194894    -1.538075952717503
    H               -0.164809156021756     0.554441842805106    -1.640075952717503
    H                0.799190843978244    -0.718558157194894    -0.866075952717503
    H                0.626190843978244    -0.687558157194894    -2.606075952717504
    H               -1.562809156021756    -1.253558157194894    -0.556075952717503
    H               -1.851729156021756    -1.166986157194894    -2.319777952717503
    H               -0.818199156021756    -2.465852157194894    -1.609310952717503
    C                0.164190843978244     1.342441842805106     1.049924047282497
    C                0.852190843978245     0.567441842805106     2.159924047282497
    H                0.756190843978244     1.393441842805106     0.144924047282497
    H               -0.802809156021756     0.889441842805106     0.830924047282497
    H               -0.008809156021756     2.364441842805105     1.385924047282497
    H                0.734190843978244    -0.496558157194894     1.954924047282497
    H                0.323190843978244     0.777441842805106     3.087924047282496
    H                1.925400843978244     0.788817942805106     2.255924047282496

}
e, wfn = energy('scf', return_wfn=True)
gdma(wfn)
dmavals = variable('DMA DISTRIBUTED MULTIPOLES')
charges = np.array(dmavals)
print(charges)
np.save('SSI-130VAL-139ILE-1-dimer.npy', np.array(charges))--------------------------------------------------------------------------

*** tstart() called on ds3
*** at Tue Apr 28 01:16:02 2020

   => Loading Basis Set <=

    Name: CC-PVDZ
    Role: ORBITAL
    Keyword: BASIS
    atoms 1-2, 9-10  entry C          line   138 file /theoryfs2/ds/metcalf/miniconda2/envs/tf2gpu/share/psi4/basis/cc-pvdz.gbs
    atoms 3-8, 11-16 entry H          line    22 file /theoryfs2/ds/metcalf/miniconda2/envs/tf2gpu/share/psi4/basis/cc-pvdz.gbs

         ---------------------------------------------------------
                                   SCF
               by Justin Turney, Rob Parrish, Andy Simmonett
                          and Daniel G. A. Smith
                              RHF Reference
                        1 Threads,    500 MiB Core
         ---------------------------------------------------------

  ==> Geometry <==

    Molecular point group: c1
    Full point group: C1

    Geometry (in Angstrom), charge = 0, multiplicity = 1:

       Center              X                  Y                   Z               Mass
    ------------   -----------------  -----------------  -----------------  -----------------
         C            0.104190843978    -0.498558157195    -1.677075952718    12.000000000000
         C           -1.116809156022    -1.409558157195    -1.538075952718    12.000000000000
         H           -0.164809156022     0.554441842805    -1.640075952718     1.007825032230
         H            0.799190843978    -0.718558157195    -0.866075952718     1.007825032230
         H            0.626190843978    -0.687558157195    -2.606075952718     1.007825032230
         H           -1.562809156022    -1.253558157195    -0.556075952718     1.007825032230
         H           -1.851729156022    -1.166986157195    -2.319777952718     1.007825032230
         H           -0.818199156022    -2.465852157195    -1.609310952718     1.007825032230
         C            0.164190843978     1.342441842805     1.049924047282    12.000000000000
         C            0.852190843978     0.567441842805     2.159924047282    12.000000000000
         H            0.756190843978     1.393441842805     0.144924047282     1.007825032230
         H           -0.802809156022     0.889441842805     0.830924047282     1.007825032230
         H           -0.008809156022     2.364441842805     1.385924047282     1.007825032230
         H            0.734190843978    -0.496558157195     1.954924047282     1.007825032230
         H            0.323190843978     0.777441842805     3.087924047282     1.007825032230
         H            1.925400843978     0.788817942805     2.255924047282     1.007825032230

  Running in c1 symmetry.

  Rotational constants: A =      0.40009  B =      0.06584  C =      0.06378 [cm^-1]
  Rotational constants: A =  11994.33672  B =   1973.92908  C =   1912.09691 [MHz]
  Nuclear repulsion =  128.146794825544760

  Charge       = 0
  Multiplicity = 1
  Electrons    = 36
  Nalpha       = 18
  Nbeta        = 18

  ==> Algorithm <==

  SCF Algorithm Type is PK.
  DIIS enabled.
  MOM disabled.
  Fractional occupation disabled.
  Guess Type is SAD.
  Energy threshold   = 1.00e-06
  Density threshold  = 1.00e-10
  Integral threshold = 0.00e+00

  ==> Primary Basis <==

  Basis Set: CC-PVDZ
    Blend: CC-PVDZ
    Number of shells: 60
    Number of basis function: 116
    Number of Cartesian functions: 120
    Spherical Harmonics?: true
    Max angular momentum: 2

  ==> Pre-Iterations <==

   -------------------------------------------------------
    Irrep   Nso     Nmo     Nalpha   Nbeta   Ndocc  Nsocc
   -------------------------------------------------------
     A        116     116       0       0       0       0
   -------------------------------------------------------
    Total     116     116      18      18      18       0
   -------------------------------------------------------

  ==> Integral Setup <==

  Using integral reordering PK algorithm.
  Sizing the integral batches needed.
  Building batch lookup table.
   Calculation information:
      Number of atoms:                  16
      Number of AO shells:              60
      Number of primitives:            148
      Number of atomic orbitals:       120
      Number of basis functions:       116

      Integral cutoff                 1.00e-12
      Number of threads:                 1

	Batch   1 pq = [       0,    6786] index = [             0,23028291] size =     23028291
  Task number: 3
  Buffer size: 11059200
  Buffer per thread: 2
  We computed 1608716 shell quartets total.
  Whereas there are 1675365 unique shell quartets.

  ==> DiskJK: Disk-Based J/K Matrices <==

    J tasked:                  Yes
    K tasked:                  Yes
    wK tasked:                  No
    Memory [MiB]:              375
    Schwarz Cutoff:          1E-12

    OpenMP threads:              1

  Minimum eigenvalue in the overlap matrix is 6.8968234484E-03.
  Using Symmetric Orthogonalization.

  SCF Guess: Superposition of Atomic Densities via on-the-fly atomic UHF.

  ==> Iterations <==

                        Total Energy        Delta E     RMS |[F,P]|

   @RHF iter SAD:  -157.42732141005095   -1.57427e+02   0.00000e+00
   @RHF iter   1:  -158.30066108839353   -8.73340e-01   4.23338e-03 DIIS
   @RHF iter   2:  -158.43578544534759   -1.35124e-01   1.80070e-03 DIIS
   @RHF iter   3:  -158.45932588590929   -2.35404e-02   3.53741e-04 DIIS
   @RHF iter   4:  -158.46119438649737   -1.86850e-03   3.95627e-05 DIIS
   @RHF iter   5:  -158.46121901828195   -2.46318e-05   6.88923e-06 DIIS
   @RHF iter   6:  -158.46121972453039   -7.06248e-07   1.10387e-06 DIIS
   @RHF iter   7:  -158.46121973811245   -1.35821e-08   3.26688e-07 DIIS
   @RHF iter   8:  -158.46121973908686   -9.74410e-10   5.15407e-08 DIIS
   @RHF iter   9:  -158.46121973912534   -3.84830e-11   1.25592e-08 DIIS
   @RHF iter  10:  -158.46121973912850   -3.15481e-12   2.72465e-09 DIIS
   @RHF iter  11:  -158.46121973912815    3.41061e-13   7.96590e-10 DIIS
   @RHF iter  12:  -158.46121973912872   -5.68434e-13   2.33026e-10 DIIS
   @RHF iter  13:  -158.46121973912861    1.13687e-13   2.98246e-11 DIIS
  Energy and wave function converged.

  ==> Post-Iterations <==

    Orbital Energies [Eh]
    ---------------------

    Doubly Occupied:

       1A    -11.219911     2A    -11.217116     3A    -11.214118
       4A    -11.212854     5A     -1.023458     6A     -1.015850
       7A     -0.842506     8A     -0.833645     9A     -0.608993
      10A     -0.601369    11A     -0.598488    12A     -0.586067
      13A     -0.507970    14A     -0.500458    15A     -0.492866
      16A     -0.486468    17A     -0.481784    18A     -0.472676

    Virtual:

      19A      0.170010    20A      0.203905    21A      0.226570
      22A      0.231374    23A      0.246661    24A      0.255781
      25A      0.264446    26A      0.276018    27A      0.284745
      28A      0.309108    29A      0.326469    30A      0.342227
      31A      0.389550    32A      0.418232    33A      0.570165
      34A      0.599621    35A      0.601832    36A      0.616315
      37A      0.621094    38A      0.648322    39A      0.658740
      40A      0.689811    41A      0.706250    42A      0.825014
      43A      0.860967    44A      0.865385    45A      0.878182
      46A      0.885081    47A      0.890318    48A      0.899992
      49A      0.905195    50A      0.915752    51A      0.931673
      52A      0.934344    53A      0.944808    54A      0.969442
      55A      0.984888    56A      0.999062    57A      1.118484
      58A      1.124341    59A      1.137913    60A      1.209053
      61A      1.238080    62A      1.251151    63A      1.454878
      64A      1.473198    65A      1.485315    66A      1.510160
      67A      1.533493    68A      1.670555    69A      1.683977
      70A      1.688963    71A      1.706024    72A      1.718933
      73A      1.858698    74A      1.865330    75A      1.884721
      76A      1.888585    77A      1.898359    78A      1.923335
      79A      1.928742    80A      1.938948    81A      1.944780
      82A      1.944924    83A      1.963445    84A      1.967591
      85A      1.975549    86A      1.983846    87A      2.020212
      88A      2.046434    89A      2.101749    90A      2.108967
      91A      2.135580    92A      2.172737    93A      2.296802
      94A      2.308382    95A      2.325631    96A      2.338143
      97A      2.439436    98A      2.456091    99A      2.465121
     100A      2.479038   101A      2.558987   102A      2.578071
     103A      2.586564   104A      2.611970   105A      2.765770
     106A      2.773013   107A      2.795214   108A      2.798617
     109A      2.847855   110A      2.861928   111A      2.867371
     112A      2.880650   113A      2.943637   114A      2.955842
     115A      2.975699   116A      3.032225

    Final Occupation by Irrep:
              A
    DOCC [    18 ]

  @RHF Final Energy:  -158.46121973912861

   => Energetics <=

    Nuclear Repulsion Energy =            128.1467948255447595
    One-Electron Energy =                -465.3828388801547362
    Two-Electron Energy =                 178.7748243154813679
    Total Energy =                       -158.4612197391286088

Computation Completed

Properties will be evaluated at   0.000000,   0.000000,   0.000000 [a0]

Properties computed using the SCF density matrix

  Nuclear Dipole Moment: [e a0]
     X:    -0.0420      Y:    -0.0197      Z:     0.0592

  Electronic Dipole Moment: [e a0]
     X:     0.0469      Y:     0.0278      Z:    -0.0690

  Dipole Moment: [e a0]
     X:     0.0048      Y:     0.0081      Z:    -0.0098     Total:     0.0136

  Dipole Moment: [D]
     X:     0.0123      Y:     0.0205      Z:    -0.0249     Total:     0.0345

*** tstop() called on ds3 at Tue Apr 28 01:16:13 2020
Module time:
	user time   =       8.26 seconds =       0.14 minutes
	system time =       2.73 seconds =       0.05 minutes
	total time  =         11 seconds =       0.18 minutes
Total time:
	user time   =       8.26 seconds =       0.14 minutes
	system time =       2.73 seconds =       0.05 minutes
	total time  =         11 seconds =       0.18 minutes
                                     G D M A

                                 by Anthony Stone

                           version 2.2.06, 22 June 2011

               Distributed Multipoles from Gaussian wavefunctions

Starting at 1:16:13 on 28 Apr 2020

Using SCF density matrix from file ./SSI/SSI-130VAL-139ILE-1-dimer.test.7641.fchk

                         Distributed Multipole Analysis

Standard DMA

Positions and radii in angstrom
Multipole moments in atomic units, ea_0^k for rank k

C          x =  0.104191  y = -0.498558  z = -1.677076 angstrom
           Maximum rank =  0   Radius =  0.650 angstrom
                   Q00  =  -0.235606

C          x = -1.116809  y = -1.409558  z = -1.538076 angstrom
           Maximum rank =  0   Radius =  0.650 angstrom
                   Q00  =  -0.236060

H          x = -0.164809  y =  0.554442  z = -1.640076 angstrom
           Maximum rank =  0   Radius =  0.325 angstrom
                   Q00  =   0.082257

H          x =  0.799191  y = -0.718558  z = -0.866076 angstrom
           Maximum rank =  0   Radius =  0.325 angstrom
                   Q00  =   0.074107

H          x =  0.626191  y = -0.687558  z = -2.606076 angstrom
           Maximum rank =  0   Radius =  0.325 angstrom
                   Q00  =   0.079101

H          x = -1.562809  y = -1.253558  z = -0.556076 angstrom
           Maximum rank =  0   Radius =  0.325 angstrom
                   Q00  =   0.077430

H          x = -1.851729  y = -1.166986  z = -2.319778 angstrom
           Maximum rank =  0   Radius =  0.325 angstrom
                   Q00  =   0.079321

H          x = -0.818199  y = -2.465852  z = -1.609311 angstrom
           Maximum rank =  0   Radius =  0.325 angstrom
                   Q00  =   0.080112

C          x =  0.164191  y =  1.342442  z =  1.049924 angstrom
           Maximum rank =  0   Radius =  0.650 angstrom
                   Q00  =  -0.231226

C          x =  0.852191  y =  0.567442  z =  2.159924 angstrom
           Maximum rank =  0   Radius =  0.650 angstrom
                   Q00  =  -0.233899

H          x =  0.756191  y =  1.393442  z =  0.144924 angstrom
           Maximum rank =  0   Radius =  0.325 angstrom
                   Q00  =   0.084279

H          x = -0.802809  y =  0.889442  z =  0.830924 angstrom
           Maximum rank =  0   Radius =  0.325 angstrom
                   Q00  =   0.075559

H          x = -0.008809  y =  2.364442  z =  1.385924 angstrom
           Maximum rank =  0   Radius =  0.325 angstrom
                   Q00  =   0.072386

H          x =  0.734191  y = -0.496558  z =  1.954924 angstrom
           Maximum rank =  0   Radius =  0.325 angstrom
                   Q00  =   0.072223

H          x =  0.323191  y =  0.777442  z =  3.087924 angstrom
           Maximum rank =  0   Radius =  0.325 angstrom
                   Q00  =   0.077635

H          x =  1.925401  y =  0.788818  z =  2.255924 angstrom
           Maximum rank =  0   Radius =  0.325 angstrom
                   Q00  =   0.082381

Total multipoles referred to origin at
           x =   0.000000,  y =    0.000000,  z =    0.000000 angstrom
                   Q00  =  -0.000000

Finished at 1:16:13 on 28 Apr 2020

  DMA results are available in the Python driver through the
	  variable('DMA DISTRIBUTED MULTIPOLES')
  and
	  variable('DMA TOTAL MULTIPOLES')
  commands.

    Psi4 stopped on: Tuesday, 28 April 2020 01:16AM
    Psi4 wall time for execution: 0:00:10.91

*** Psi4 exiting successfully. Buy a developer a beer!
