                               Psi4 1.3.2 release

  ==> Input File <==

--------------------------------------------------------------------------
import numpy as np
set {scf_type pk
basis cc-pvdz
d_convergence 10
gdma_switch   0
gdma_limit    0
gdma_origin   [ 0.0,  0.0,  0.0 ]
}
molecule test {
    units Angstrom
    0 1
    --
    0 1
    C                3.512567828042114    -1.198190636054635    -1.851830372654796
    C                0.931567828042113    -0.296190636054635     0.797169627345205
    C                2.011567828042113    -0.219190636054635    -0.075830372654796
    C                0.160567828042114    -1.451190636054635     0.838169627345204
    C                2.332567828042114    -1.288190636054635    -0.909830372654795
    C                0.475567828042114    -2.529190636054635     0.018169627345204
    C                1.556567828042114    -2.444190636054635    -0.849830372654796
    O               -0.897432171957886    -1.531190636054635     1.694169627345204
    H                0.740567828042114     0.513809363945365     1.485169627345204
    H                2.621567828042114     0.675809363945365    -0.094830372654796
    H               -1.164432171957887    -0.660190636054635     2.004169627345204
    H               -0.112432171957886    -3.428190636054635     0.079169627345204
    H                3.609567828042114    -0.166190636054635    -2.192830372654795
    H                3.290567828042114    -1.804190636054635    -2.724830372654795
    H                1.792567828042114    -3.286190636054635    -1.487830372654795
    H                4.467527828042114    -1.511020636054635    -1.404410372654796
    C               -1.831432171957887     2.695809363945365    -1.359830372654796
    C               -2.317432171957886     2.498809363945365     0.074169627345204
    O               -3.451432171957886     2.832809363945365     0.409169627345205
    N               -1.458432171957887     1.973809363945365     0.937169627345204
    H               -1.733432171957886     1.933809363945365     1.908169627345204
    H               -0.515432171957886     1.784809363945365     0.637169627345204
    H               -1.521432171957887     1.738809363945365    -1.775830372654795
    H               -0.951432171957886     3.339809363945365    -1.312830372654796
    H               -2.588942171957886     3.172999363945365    -1.998938372654795

}
e, wfn = energy('scf', return_wfn=True)
gdma(wfn)
dmavals = variable('DMA DISTRIBUTED MULTIPOLES')
charges = np.array(dmavals)
print(charges)
np.save('SSI-072TYR-127ASN-1-dimer.npy', np.array(charges))--------------------------------------------------------------------------

*** tstart() called on ds3
*** at Mon Apr 27 20:22:29 2020

   => Loading Basis Set <=

    Name: CC-PVDZ
    Role: ORBITAL
    Keyword: BASIS
    atoms 1-7, 17-18  entry C          line   138 file /theoryfs2/ds/metcalf/miniconda2/envs/tf2gpu/share/psi4/basis/cc-pvdz.gbs
    atoms 8, 19       entry O          line   198 file /theoryfs2/ds/metcalf/miniconda2/envs/tf2gpu/share/psi4/basis/cc-pvdz.gbs
    atoms 9-16, 21-25 entry H          line    22 file /theoryfs2/ds/metcalf/miniconda2/envs/tf2gpu/share/psi4/basis/cc-pvdz.gbs
    atoms 20          entry N          line   168 file /theoryfs2/ds/metcalf/miniconda2/envs/tf2gpu/share/psi4/basis/cc-pvdz.gbs

         ---------------------------------------------------------
                                   SCF
               by Justin Turney, Rob Parrish, Andy Simmonett
                          and Daniel G. A. Smith
                              RHF Reference
                        1 Threads,    500 MiB Core
         ---------------------------------------------------------

  ==> Geometry <==

    Molecular point group: c1
    Full point group: C1

    Geometry (in Angstrom), charge = 0, multiplicity = 1:

       Center              X                  Y                   Z               Mass
    ------------   -----------------  -----------------  -----------------  -----------------
         C            3.512567828042    -1.198190636055    -1.851830372655    12.000000000000
         C            0.931567828042    -0.296190636055     0.797169627345    12.000000000000
         C            2.011567828042    -0.219190636055    -0.075830372655    12.000000000000
         C            0.160567828042    -1.451190636055     0.838169627345    12.000000000000
         C            2.332567828042    -1.288190636055    -0.909830372655    12.000000000000
         C            0.475567828042    -2.529190636055     0.018169627345    12.000000000000
         C            1.556567828042    -2.444190636055    -0.849830372655    12.000000000000
         O           -0.897432171958    -1.531190636055     1.694169627345    15.994914619570
         H            0.740567828042     0.513809363945     1.485169627345     1.007825032230
         H            2.621567828042     0.675809363945    -0.094830372655     1.007825032230
         H           -1.164432171958    -0.660190636055     2.004169627345     1.007825032230
         H           -0.112432171958    -3.428190636055     0.079169627345     1.007825032230
         H            3.609567828042    -0.166190636055    -2.192830372655     1.007825032230
         H            3.290567828042    -1.804190636055    -2.724830372655     1.007825032230
         H            1.792567828042    -3.286190636055    -1.487830372655     1.007825032230
         H            4.467527828042    -1.511020636055    -1.404410372655     1.007825032230
         C           -1.831432171958     2.695809363945    -1.359830372655    12.000000000000
         C           -2.317432171958     2.498809363945     0.074169627345    12.000000000000
         O           -3.451432171958     2.832809363945     0.409169627345    15.994914619570
         N           -1.458432171958     1.973809363945     0.937169627345    14.003074004430
         H           -1.733432171958     1.933809363945     1.908169627345     1.007825032230
         H           -0.515432171958     1.784809363945     0.637169627345     1.007825032230
         H           -1.521432171958     1.738809363945    -1.775830372655     1.007825032230
         H           -0.951432171958     3.339809363945    -1.312830372655     1.007825032230
         H           -2.588942171958     3.172999363945    -1.998938372655     1.007825032230

  Running in c1 symmetry.

  Rotational constants: A =      0.04625  B =      0.01325  C =      0.01132 [cm^-1]
  Rotational constants: A =   1386.57246  B =    397.22175  C =    339.48946 [MHz]
  Nuclear repulsion =  651.084997915049030

  Charge       = 0
  Multiplicity = 1
  Electrons    = 90
  Nalpha       = 45
  Nbeta        = 45

  ==> Algorithm <==

  SCF Algorithm Type is PK.
  DIIS enabled.
  MOM disabled.
  Fractional occupation disabled.
  Guess Type is SAD.
  Energy threshold   = 1.00e-06
  Density threshold  = 1.00e-10
  Integral threshold = 0.00e+00

  ==> Primary Basis <==

  Basis Set: CC-PVDZ
    Blend: CC-PVDZ
    Number of shells: 111
    Number of basis function: 233
    Number of Cartesian functions: 245
    Spherical Harmonics?: true
    Max angular momentum: 2

  ==> Pre-Iterations <==

   -------------------------------------------------------
    Irrep   Nso     Nmo     Nalpha   Nbeta   Ndocc  Nsocc
   -------------------------------------------------------
     A        233     233       0       0       0       0
   -------------------------------------------------------
    Total     233     233      45      45      45       0
   -------------------------------------------------------

  ==> Integral Setup <==

  Using integral reordering PK algorithm.
  Sizing the integral batches needed.
  Building batch lookup table.
   Calculation information:
      Number of atoms:                  25
      Number of AO shells:             111
      Number of primitives:            329
      Number of atomic orbitals:       245
      Number of basis functions:       233

      Integral cutoff                 1.00e-12
      Number of threads:                 1

	Batch   1 pq = [       0,    9405] index = [             0,44231715] size =     44231715
	Batch   2 pq = [    9405,   13301] index = [      44231715,88464951] size =     44233236
	Batch   3 pq = [   13301,   16290] index = [      88464951,132690195] size =     44225244
	Batch   4 pq = [   16290,   18810] index = [     132690195,176917455] size =     44227260
	Batch   5 pq = [   18810,   21030] index = [     176917455,221140965] size =     44223510
	Batch   6 pq = [   21030,   23037] index = [     221140965,265363203] size =     44222238
	Batch   7 pq = [   23037,   24883] index = [     265363203,309594286] size =     44231083
	Batch   8 pq = [   24883,   26601] index = [     309594286,353819901] size =     44225615
	Batch   9 pq = [   26601,   27261] index = [     353819901,371594691] size =     17774790
  Task number: 34
  Buffer size: 11059200
  Buffer per thread: 2
  We computed 16827015 shell quartets total.
  Whereas there are 19322436 unique shell quartets.

  ==> DiskJK: Disk-Based J/K Matrices <==

    J tasked:                  Yes
    K tasked:                  Yes
    wK tasked:                  No
    Memory [MiB]:              375
    Schwarz Cutoff:          1E-12

    OpenMP threads:              1

  Minimum eigenvalue in the overlap matrix is 3.2058256582E-04.
  Using Symmetric Orthogonalization.

  SCF Guess: Superposition of Atomic Densities via on-the-fly atomic UHF.

  ==> Iterations <==

                        Total Energy        Delta E     RMS |[F,P]|

   @RHF iter SAD:  -551.31016495705353   -5.51310e+02   0.00000e+00
   @RHF iter   1:  -552.28645695741579   -9.76292e-01   3.24486e-03 DIIS
   @RHF iter   2:  -552.54404306858237   -2.57586e-01   1.73287e-03 DIIS
   @RHF iter   3:  -552.60784973630143   -6.38067e-02   4.00785e-04 DIIS
   @RHF iter   4:  -552.61286476990665   -5.01503e-03   1.58585e-04 DIIS
   @RHF iter   5:  -552.61369196707415   -8.27197e-04   2.42416e-05 DIIS
   @RHF iter   6:  -552.61373294242480   -4.09754e-05   1.14135e-05 DIIS
   @RHF iter   7:  -552.61373991359756   -6.97117e-06   4.27541e-06 DIIS
   @RHF iter   8:  -552.61374132335936   -1.40976e-06   1.62343e-06 DIIS
   @RHF iter   9:  -552.61374149816118   -1.74802e-07   6.00930e-07 DIIS
   @RHF iter  10:  -552.61374152075234   -2.25912e-08   2.11936e-07 DIIS
   @RHF iter  11:  -552.61374152372719   -2.97484e-09   6.20315e-08 DIIS
   @RHF iter  12:  -552.61374152399219   -2.65004e-10   2.77977e-08 DIIS
   @RHF iter  13:  -552.61374152404403   -5.18412e-11   1.06359e-08 DIIS
   @RHF iter  14:  -552.61374152405972   -1.56888e-11   5.06835e-09 DIIS
   @RHF iter  15:  -552.61374152406245   -2.72848e-12   2.20282e-09 DIIS
   @RHF iter  16:  -552.61374152406518   -2.72848e-12   7.19901e-10 DIIS
   @RHF iter  17:  -552.61374152406233    2.84217e-12   2.58975e-10 DIIS
   @RHF iter  18:  -552.61374152406324   -9.09495e-13   8.61393e-11 DIIS
  Energy and wave function converged.

  ==> Post-Iterations <==

    Orbital Energies [Eh]
    ---------------------

    Doubly Occupied:

       1A    -20.590021     2A    -20.507225     3A    -15.594116
       4A    -11.350494     5A    -11.309651     6A    -11.251311
       7A    -11.248501     8A    -11.245788     9A    -11.243880
      10A    -11.243773    11A    -11.239398    12A    -11.236449
      13A     -1.407552    14A     -1.371054    15A     -1.223397
      16A     -1.163144    17A     -1.047362    18A     -1.031305
      19A     -0.999385    20A     -0.935803    21A     -0.856729
      22A     -0.814353    23A     -0.802064    24A     -0.744533
      25A     -0.735129    26A     -0.678617    27A     -0.656503
      28A     -0.651673    29A     -0.621214    30A     -0.614230
      31A     -0.599990    32A     -0.594141    33A     -0.581865
      34A     -0.572922    35A     -0.570159    36A     -0.560629
      37A     -0.534278    38A     -0.525017    39A     -0.507129
      40A     -0.496049    41A     -0.478447    42A     -0.411783
      43A     -0.408730    44A     -0.351610    45A     -0.313099

    Virtual:

      46A      0.116719    47A      0.139745    48A      0.153866
      49A      0.171166    50A      0.187983    51A      0.199779
      52A      0.208077    53A      0.211671    54A      0.246075
      55A      0.248934    56A      0.253540    57A      0.264656
      58A      0.267221    59A      0.278216    60A      0.283721
      61A      0.288952    62A      0.360334    63A      0.365192
      64A      0.389749    65A      0.422092    66A      0.445347
      67A      0.455932    68A      0.471198    69A      0.487004
      70A      0.495882    71A      0.541999    72A      0.602522
      73A      0.625763    74A      0.629366    75A      0.636619
      76A      0.647638    77A      0.659840    78A      0.668569
      79A      0.688283    80A      0.693163    81A      0.702583
      82A      0.717476    83A      0.724345    84A      0.732081
      85A      0.733821    86A      0.736261    87A      0.755595
      88A      0.760897    89A      0.768589    90A      0.783633
      91A      0.794885    92A      0.822174    93A      0.844359
      94A      0.847678    95A      0.857237    96A      0.868231
      97A      0.872747    98A      0.878280    99A      0.881498
     100A      0.886270   101A      0.901250   102A      0.915202
     103A      0.919179   104A      0.927151   105A      0.934668
     106A      0.943015   107A      0.951722   108A      0.983512
     109A      1.010932   110A      1.015158   111A      1.045991
     112A      1.088724   113A      1.099082   114A      1.113937
     115A      1.124327   116A      1.132672   117A      1.140011
     118A      1.149355   119A      1.154150   120A      1.192824
     121A      1.225232   122A      1.236995   123A      1.256090
     124A      1.278698   125A      1.286021   126A      1.297026
     127A      1.301028   128A      1.338306   129A      1.342916
     130A      1.357279   131A      1.363477   132A      1.376766
     133A      1.385531   134A      1.396192   135A      1.421098
     136A      1.455493   137A      1.478926   138A      1.499876
     139A      1.513946   140A      1.535766   141A      1.542026
     142A      1.616061   143A      1.619795   144A      1.658620
     145A      1.666636   146A      1.674869   147A      1.694358
     148A      1.705100   149A      1.716545   150A      1.742292
     151A      1.757436   152A      1.778232   153A      1.796777
     154A      1.811824   155A      1.844684   156A      1.859559
     157A      1.871145   158A      1.876584   159A      1.890443
     160A      1.902034   161A      1.906922   162A      1.910794
     163A      1.919579   164A      1.928483   165A      1.934673
     166A      1.953785   167A      1.962136   168A      1.968222
     169A      1.968969   170A      2.004714   171A      2.019886
     172A      2.028576   173A      2.041852   174A      2.049281
     175A      2.058035   176A      2.068064   177A      2.092557
     178A      2.122554   179A      2.139119   180A      2.146155
     181A      2.162721   182A      2.199384   183A      2.219840
     184A      2.231596   185A      2.254510   186A      2.270215
     187A      2.273136   188A      2.282666   189A      2.313025
     190A      2.349331   191A      2.400281   192A      2.422405
     193A      2.442363   194A      2.448032   195A      2.461620
     196A      2.495305   197A      2.505716   198A      2.527586
     199A      2.539160   200A      2.541156   201A      2.589552
     202A      2.601560   203A      2.615244   204A      2.646381
     205A      2.715499   206A      2.742218   207A      2.745731
     208A      2.764531   209A      2.789312   210A      2.793402
     211A      2.798237   212A      2.833910   213A      2.865710
     214A      2.895172   215A      2.956288   216A      2.982880
     217A      2.993956   218A      3.078332   219A      3.085893
     220A      3.096317   221A      3.135857   222A      3.258909
     223A      3.273607   224A      3.320621   225A      3.346356
     226A      3.502949   227A      3.522234   228A      3.565770
     229A      3.672488   230A      3.854889   231A      3.895262
     232A      3.965629   233A      4.181058

    Final Occupation by Irrep:
              A
    DOCC [    45 ]

  @RHF Final Energy:  -552.61374152406324

   => Energetics <=

    Nuclear Repulsion Energy =            651.0849979150490299
    One-Electron Energy =               -2043.5564745987155675
    Two-Electron Energy =                 839.8577351596031804
    Total Energy =                       -552.6137415240632436

Computation Completed

Properties will be evaluated at   0.000000,   0.000000,   0.000000 [a0]

Properties computed using the SCF density matrix

  Nuclear Dipole Moment: [e a0]
     X:     7.4220      Y:     2.1603      Z:    -6.4410

  Electronic Dipole Moment: [e a0]
     X:    -5.6140      Y:    -2.2050      Z:     6.1329

  Dipole Moment: [e a0]
     X:     1.8081      Y:    -0.0447      Z:    -0.3081     Total:     1.8347

  Dipole Moment: [D]
     X:     4.5956      Y:    -0.1136      Z:    -0.7830     Total:     4.6632

*** tstop() called on ds3 at Mon Apr 27 20:25:25 2020
Module time:
	user time   =     126.42 seconds =       2.11 minutes
	system time =      56.33 seconds =       0.94 minutes
	total time  =        176 seconds =       2.93 minutes
Total time:
	user time   =     126.42 seconds =       2.11 minutes
	system time =      56.33 seconds =       0.94 minutes
	total time  =        176 seconds =       2.93 minutes
                                     G D M A

                                 by Anthony Stone

                           version 2.2.06, 22 June 2011

               Distributed Multipoles from Gaussian wavefunctions

Starting at 20:25:25 on 27 Apr 2020

Using SCF density matrix from file ./SSI/SSI-072TYR-127ASN-1-dimer.test.14725.fchk

                         Distributed Multipole Analysis

Standard DMA

Positions and radii in angstrom
Multipole moments in atomic units, ea_0^k for rank k

C          x =  3.512568  y = -1.198191  z = -1.851830 angstrom
           Maximum rank =  0   Radius =  0.650 angstrom
                   Q00  =  -0.191226

C          x =  0.931568  y = -0.296191  z =  0.797170 angstrom
           Maximum rank =  0   Radius =  0.650 angstrom
                   Q00  =  -0.204288

C          x =  2.011568  y = -0.219191  z = -0.075830 angstrom
           Maximum rank =  0   Radius =  0.650 angstrom
                   Q00  =   0.024901

C          x =  0.160568  y = -1.451191  z =  0.838170 angstrom
           Maximum rank =  0   Radius =  0.650 angstrom
                   Q00  =   0.309692

C          x =  2.332568  y = -1.288191  z = -0.909830 angstrom
           Maximum rank =  0   Radius =  0.650 angstrom
                   Q00  =  -0.141409

C          x =  0.475568  y = -2.529191  z =  0.018170 angstrom
           Maximum rank =  0   Radius =  0.650 angstrom
                   Q00  =  -0.109466

C          x =  1.556568  y = -2.444191  z = -0.849830 angstrom
           Maximum rank =  0   Radius =  0.650 angstrom
                   Q00  =  -0.008845

O          x = -0.897432  y = -1.531191  z =  1.694170 angstrom
           Maximum rank =  0   Radius =  0.650 angstrom
                   Q00  =  -0.670330

H          x =  0.740568  y =  0.513809  z =  1.485170 angstrom
           Maximum rank =  0   Radius =  0.325 angstrom
                   Q00  =   0.058774

H          x =  2.621568  y =  0.675809  z = -0.094830 angstrom
           Maximum rank =  0   Radius =  0.325 angstrom
                   Q00  =   0.069673

H          x = -1.164432  y = -0.660191  z =  2.004170 angstrom
           Maximum rank =  0   Radius =  0.325 angstrom
                   Q00  =   0.408044

H          x = -0.112432  y = -3.428191  z =  0.079170 angstrom
           Maximum rank =  0   Radius =  0.325 angstrom
                   Q00  =   0.085327

H          x =  3.609568  y = -0.166191  z = -2.192830 angstrom
           Maximum rank =  0   Radius =  0.325 angstrom
                   Q00  =   0.094344

H          x =  3.290568  y = -1.804191  z = -2.724830 angstrom
           Maximum rank =  0   Radius =  0.325 angstrom
                   Q00  =   0.098997

H          x =  1.792568  y = -3.286191  z = -1.487830 angstrom
           Maximum rank =  0   Radius =  0.325 angstrom
                   Q00  =   0.067196

H          x =  4.467528  y = -1.511021  z = -1.404410 angstrom
           Maximum rank =  0   Radius =  0.325 angstrom
                   Q00  =   0.103869

C          x = -1.831432  y =  2.695809  z = -1.359830 angstrom
           Maximum rank =  0   Radius =  0.650 angstrom
                   Q00  =  -0.265074

C          x = -2.317432  y =  2.498809  z =  0.074170 angstrom
           Maximum rank =  0   Radius =  0.650 angstrom
                   Q00  =   0.813792

O          x = -3.451432  y =  2.832809  z =  0.409170 angstrom
           Maximum rank =  0   Radius =  0.650 angstrom
                   Q00  =  -0.789922

N          x = -1.458432  y =  1.973809  z =  0.937170 angstrom
           Maximum rank =  0   Radius =  0.650 angstrom
                   Q00  =  -0.530424

H          x = -1.733432  y =  1.933809  z =  1.908170 angstrom
           Maximum rank =  0   Radius =  0.325 angstrom
                   Q00  =   0.216644

H          x = -0.515432  y =  1.784809  z =  0.637170 angstrom
           Maximum rank =  0   Radius =  0.325 angstrom
                   Q00  =   0.210624

H          x = -1.521432  y =  1.738809  z = -1.775830 angstrom
           Maximum rank =  0   Radius =  0.325 angstrom
                   Q00  =   0.115265

H          x = -0.951432  y =  3.339809  z = -1.312830 angstrom
           Maximum rank =  0   Radius =  0.325 angstrom
                   Q00  =   0.100803

H          x = -2.588942  y =  3.172999  z = -1.998938 angstrom
           Maximum rank =  0   Radius =  0.325 angstrom
                   Q00  =   0.133042

Total multipoles referred to origin at
           x =   0.000000,  y =    0.000000,  z =    0.000000 angstrom
                   Q00  =  -0.000000

Finished at 20:25:25 on 27 Apr 2020

  DMA results are available in the Python driver through the
	  variable('DMA DISTRIBUTED MULTIPOLES')
  and
	  variable('DMA TOTAL MULTIPOLES')
  commands.

    Psi4 stopped on: Monday, 27 April 2020 08:25PM
    Psi4 wall time for execution: 0:02:56.56

*** Psi4 exiting successfully. Buy a developer a beer!
