                               Psi4 1.3.2 release

  ==> Input File <==

--------------------------------------------------------------------------
import numpy as np
set {scf_type pk
basis cc-pvdz
d_convergence 10
gdma_switch   0
gdma_limit    0
gdma_origin   [ 0.0,  0.0,  0.0 ]
}
molecule test {
    units Angstrom
    0 1
    --
    0 1
    C               -0.696234206789585    -1.699057998466386    -2.560299355274832
    C                0.883765793210415    -0.569057998466386    -0.996299355274831
    C               -0.131234206789585    -1.488057998466386    -1.176299355274832
    C                1.404765793210415    -0.366057998466386     0.257700644725168
    C                0.954765793210415    -1.094057998466386     1.350700644725169
    C               -0.613234206789585    -2.196057998466386    -0.092299355274831
    C               -0.058234206789585    -2.014057998466386     1.179700644725169
    O                1.486765793210415    -0.915057998466386     2.589700644725169
    H                1.212765793210415     0.042942001533614    -1.830299355274831
    H                1.892765793210415     0.554942001533614     0.355700644725169
    H               -1.200234206789585    -2.663057998466386    -2.601299355274831
    H                0.169765793210415    -1.785057998466386    -3.220299355274832
    H               -1.417234206789585    -2.910057998466386    -0.229299355274832
    H                1.256765793210415    -1.646057998466386     3.190700644725169
    H               -0.436234206789585    -2.575057998466386     2.018700644725168
    H               -1.363734206789585    -0.914707998466386    -2.946629355274831
    C               -1.052234206789584     2.486942001533615    -0.266299355274831
    C               -1.390234206789585     3.419942001533614    -1.429299355274831
    O               -0.476234206789585     3.144942001533614     0.831700644725169
    H               -1.961234206789584     1.978942001533614     0.057700644725169
    H               -0.358234206789585     1.728942001533614    -0.622299355274831
    H               -1.837234206789585     2.845942001533615    -2.229299355274831
    H               -1.094234206789584     3.802942001533615     1.181700644725169
    H               -0.469954206789585     3.863432001533615    -1.837219355274831
    H               -2.119354206789585     4.192382001533614    -1.143429355274831

}
e, wfn = energy('scf', return_wfn=True)
gdma(wfn)
dmavals = variable('DMA DISTRIBUTED MULTIPOLES')
charges = np.array(dmavals)
print(charges)
np.save('SSI-106TYR-112SER-1-dimer.npy', np.array(charges))--------------------------------------------------------------------------

*** tstart() called on ds3
*** at Mon Apr 27 10:04:01 2020

   => Loading Basis Set <=

    Name: CC-PVDZ
    Role: ORBITAL
    Keyword: BASIS
    atoms 1-7, 17-18  entry C          line   138 file /theoryfs2/ds/metcalf/miniconda2/envs/tf2gpu/share/psi4/basis/cc-pvdz.gbs
    atoms 8, 19       entry O          line   198 file /theoryfs2/ds/metcalf/miniconda2/envs/tf2gpu/share/psi4/basis/cc-pvdz.gbs
    atoms 9-16, 20-25 entry H          line    22 file /theoryfs2/ds/metcalf/miniconda2/envs/tf2gpu/share/psi4/basis/cc-pvdz.gbs

         ---------------------------------------------------------
                                   SCF
               by Justin Turney, Rob Parrish, Andy Simmonett
                          and Daniel G. A. Smith
                              RHF Reference
                        1 Threads,    500 MiB Core
         ---------------------------------------------------------

  ==> Geometry <==

    Molecular point group: c1
    Full point group: C1

    Geometry (in Angstrom), charge = 0, multiplicity = 1:

       Center              X                  Y                   Z               Mass
    ------------   -----------------  -----------------  -----------------  -----------------
         C           -0.696234206790    -1.699057998466    -2.560299355275    12.000000000000
         C            0.883765793210    -0.569057998466    -0.996299355275    12.000000000000
         C           -0.131234206790    -1.488057998466    -1.176299355275    12.000000000000
         C            1.404765793210    -0.366057998466     0.257700644725    12.000000000000
         C            0.954765793210    -1.094057998466     1.350700644725    12.000000000000
         C           -0.613234206790    -2.196057998466    -0.092299355275    12.000000000000
         C           -0.058234206790    -2.014057998466     1.179700644725    12.000000000000
         O            1.486765793210    -0.915057998466     2.589700644725    15.994914619570
         H            1.212765793210     0.042942001534    -1.830299355275     1.007825032230
         H            1.892765793210     0.554942001534     0.355700644725     1.007825032230
         H           -1.200234206790    -2.663057998466    -2.601299355275     1.007825032230
         H            0.169765793210    -1.785057998466    -3.220299355275     1.007825032230
         H           -1.417234206790    -2.910057998466    -0.229299355275     1.007825032230
         H            1.256765793210    -1.646057998466     3.190700644725     1.007825032230
         H           -0.436234206790    -2.575057998466     2.018700644725     1.007825032230
         H           -1.363734206790    -0.914707998466    -2.946629355275     1.007825032230
         C           -1.052234206790     2.486942001534    -0.266299355275    12.000000000000
         C           -1.390234206790     3.419942001534    -1.429299355275    12.000000000000
         O           -0.476234206790     3.144942001534     0.831700644725    15.994914619570
         H           -1.961234206790     1.978942001534     0.057700644725     1.007825032230
         H           -0.358234206790     1.728942001534    -0.622299355275     1.007825032230
         H           -1.837234206790     2.845942001534    -2.229299355275     1.007825032230
         H           -1.094234206790     3.802942001534     1.181700644725     1.007825032230
         H           -0.469954206790     3.863432001534    -1.837219355275     1.007825032230
         H           -2.119354206790     4.192382001534    -1.143429355275     1.007825032230

  Running in c1 symmetry.

  Rotational constants: A =      0.03731  B =      0.02149  C =      0.01535 [cm^-1]
  Rotational constants: A =   1118.67316  B =    644.25676  C =    460.19237 [MHz]
  Nuclear repulsion =  587.794090050075170

  Charge       = 0
  Multiplicity = 1
  Electrons    = 84
  Nalpha       = 42
  Nbeta        = 42

  ==> Algorithm <==

  SCF Algorithm Type is PK.
  DIIS enabled.
  MOM disabled.
  Fractional occupation disabled.
  Guess Type is SAD.
  Energy threshold   = 1.00e-06
  Density threshold  = 1.00e-10
  Integral threshold = 0.00e+00

  ==> Primary Basis <==

  Basis Set: CC-PVDZ
    Blend: CC-PVDZ
    Number of shells: 108
    Number of basis function: 224
    Number of Cartesian functions: 235
    Spherical Harmonics?: true
    Max angular momentum: 2

  ==> Pre-Iterations <==

   -------------------------------------------------------
    Irrep   Nso     Nmo     Nalpha   Nbeta   Ndocc  Nsocc
   -------------------------------------------------------
     A        224     224       0       0       0       0
   -------------------------------------------------------
    Total     224     224      42      42      42       0
   -------------------------------------------------------

  ==> Integral Setup <==

  Using integral reordering PK algorithm.
  Sizing the integral batches needed.
  Building batch lookup table.
   Calculation information:
      Number of atoms:                  25
      Number of AO shells:             108
      Number of primitives:            312
      Number of atomic orbitals:       235
      Number of basis functions:       224

      Integral cutoff                 1.00e-12
      Number of threads:                 1

	Batch   1 pq = [       0,    9405] index = [             0,44231715] size =     44231715
	Batch   2 pq = [    9405,   13301] index = [      44231715,88464951] size =     44233236
	Batch   3 pq = [   13301,   16290] index = [      88464951,132690195] size =     44225244
	Batch   4 pq = [   16290,   18810] index = [     132690195,176917455] size =     44227260
	Batch   5 pq = [   18810,   21030] index = [     176917455,221140965] size =     44223510
	Batch   6 pq = [   21030,   23037] index = [     221140965,265363203] size =     44222238
	Batch   7 pq = [   23037,   24883] index = [     265363203,309594286] size =     44231083
	Batch   8 pq = [   24883,   25200] index = [     309594286,317532600] size =      7938314
  Task number: 29
  Buffer size: 11059200
  Buffer per thread: 2
  We computed 15724184 shell quartets total.
  Whereas there are 17325441 unique shell quartets.

  ==> DiskJK: Disk-Based J/K Matrices <==

    J tasked:                  Yes
    K tasked:                  Yes
    wK tasked:                  No
    Memory [MiB]:              375
    Schwarz Cutoff:          1E-12

    OpenMP threads:              1

  Minimum eigenvalue in the overlap matrix is 3.3930029341E-04.
  Using Symmetric Orthogonalization.

  SCF Guess: Superposition of Atomic Densities via on-the-fly atomic UHF.

  ==> Iterations <==

                        Total Energy        Delta E     RMS |[F,P]|

   @RHF iter SAD:  -497.56065963007291   -4.97561e+02   0.00000e+00
   @RHF iter   1:  -498.41971010974231   -8.59050e-01   3.02389e-03 DIIS
   @RHF iter   2:  -498.65615891576851   -2.36449e-01   1.34377e-03 DIIS
   @RHF iter   3:  -498.69636912313365   -4.02102e-02   2.91749e-04 DIIS
   @RHF iter   4:  -498.69956854227530   -3.19942e-03   1.08809e-04 DIIS
   @RHF iter   5:  -498.69991465459981   -3.46112e-04   2.19130e-05 DIIS
   @RHF iter   6:  -498.69993542285221   -2.07683e-05   8.26380e-06 DIIS
   @RHF iter   7:  -498.69993829323982   -2.87039e-06   2.65339e-06 DIIS
   @RHF iter   8:  -498.69993872152918   -4.28289e-07   8.53338e-07 DIIS
   @RHF iter   9:  -498.69993878878824   -6.72591e-08   3.24866e-07 DIIS
   @RHF iter  10:  -498.69993880012640   -1.13382e-08   1.44689e-07 DIIS
   @RHF iter  11:  -498.69993880375318   -3.62678e-09   7.00187e-08 DIIS
   @RHF iter  12:  -498.69993880441359   -6.60407e-10   2.79893e-08 DIIS
   @RHF iter  13:  -498.69993880452171   -1.08116e-10   8.41364e-09 DIIS
   @RHF iter  14:  -498.69993880452847   -6.76437e-12   2.10448e-09 DIIS
   @RHF iter  15:  -498.69993880453274   -4.26326e-12   8.40881e-10 DIIS
   @RHF iter  16:  -498.69993880452796    4.77485e-12   3.15543e-10 DIIS
   @RHF iter  17:  -498.69993880452728    6.82121e-13   1.46291e-10 DIIS
   @RHF iter  18:  -498.69993880452432    2.95586e-12   7.51014e-11 DIIS
  Energy and wave function converged.

  ==> Post-Iterations <==

    Orbital Energies [Eh]
    ---------------------

    Doubly Occupied:

       1A    -20.578882     2A    -20.541802     3A    -11.295876
       4A    -11.265754     5A    -11.236551     6A    -11.231951
       7A    -11.229714     8A    -11.228550     9A    -11.226887
      10A    -11.220460    11A    -11.218865    12A     -1.394393
      13A     -1.348386    14A     -1.155509    15A     -1.037943
      16A     -1.020653    17A     -1.003256    18A     -0.925451
      19A     -0.843581    20A     -0.838673    21A     -0.804945
      22A     -0.729777    23A     -0.675543    24A     -0.669713
      25A     -0.637810    26A     -0.618376    27A     -0.611931
      28A     -0.597854    29A     -0.591457    30A     -0.579321
      31A     -0.573201    32A     -0.560518    33A     -0.535980
      34A     -0.522943    35A     -0.516962    36A     -0.495609
      37A     -0.482199    38A     -0.472797    39A     -0.460799
      40A     -0.425479    41A     -0.336771    42A     -0.302113

    Virtual:

      43A      0.129037    44A      0.154951    45A      0.170031
      46A      0.182274    47A      0.193182    48A      0.208485
      49A      0.217594    50A      0.233925    51A      0.242607
      52A      0.260588    53A      0.262919    54A      0.274433
      55A      0.283475    56A      0.294243    57A      0.298193
      58A      0.335335    59A      0.369834    60A      0.379860
      61A      0.403681    62A      0.411462    63A      0.432617
      64A      0.457967    65A      0.480874    66A      0.502798
      67A      0.528590    68A      0.598625    69A      0.609627
      70A      0.609887    71A      0.634591    72A      0.643426
      73A      0.662951    74A      0.672329    75A      0.684833
      76A      0.700380    77A      0.715789    78A      0.729884
      79A      0.734843    80A      0.744717    81A      0.755756
      82A      0.768955    83A      0.770985    84A      0.786057
      85A      0.804688    86A      0.812518    87A      0.832036
      88A      0.846276    89A      0.851961    90A      0.868104
      91A      0.869966    92A      0.875268    93A      0.883374
      94A      0.897227    95A      0.903348    96A      0.909538
      97A      0.911132    98A      0.919716    99A      0.922109
     100A      0.932516   101A      0.944232   102A      0.954266
     103A      0.957231   104A      1.001659   105A      1.016660
     106A      1.028280   107A      1.075699   108A      1.116080
     109A      1.133493   110A      1.144021   111A      1.148763
     112A      1.149042   113A      1.177781   114A      1.181784
     115A      1.216228   116A      1.248578   117A      1.262809
     118A      1.267952   119A      1.282501   120A      1.298900
     121A      1.304979   122A      1.320745   123A      1.335184
     124A      1.354657   125A      1.363420   126A      1.378213
     127A      1.401153   128A      1.418452   129A      1.469325
     130A      1.488926   131A      1.508868   132A      1.519674
     133A      1.544569   134A      1.559772   135A      1.609794
     136A      1.612912   137A      1.632133   138A      1.653198
     139A      1.687398   140A      1.696257   141A      1.702698
     142A      1.741312   143A      1.745271   144A      1.760961
     145A      1.781722   146A      1.788589   147A      1.813629
     148A      1.850484   149A      1.869169   150A      1.882031
     151A      1.894115   152A      1.894917   153A      1.901220
     154A      1.911247   155A      1.923646   156A      1.936912
     157A      1.939256   158A      1.956955   159A      1.964799
     160A      1.970279   161A      1.973891   162A      1.987400
     163A      2.001753   164A      2.018839   165A      2.029270
     166A      2.055580   167A      2.057812   168A      2.066513
     169A      2.094149   170A      2.112936   171A      2.117557
     172A      2.138870   173A      2.158194   174A      2.167786
     175A      2.178731   176A      2.205012   177A      2.247075
     178A      2.264502   179A      2.278566   180A      2.292240
     181A      2.294103   182A      2.326384   183A      2.334465
     184A      2.369145   185A      2.389300   186A      2.416239
     187A      2.435410   188A      2.450849   189A      2.476803
     190A      2.514533   191A      2.525510   192A      2.537402
     193A      2.547120   194A      2.555798   195A      2.562315
     196A      2.596326   197A      2.643422   198A      2.748395
     199A      2.762256   200A      2.771720   201A      2.795297
     202A      2.813868   203A      2.830260   204A      2.846669
     205A      2.853119   206A      2.900365   207A      2.907706
     208A      2.933334   209A      2.979975   210A      3.023062
     211A      3.119267   212A      3.124325   213A      3.264205
     214A      3.279608   215A      3.323537   216A      3.368078
     217A      3.425691   218A      3.472911   219A      3.581030
     220A      3.666552   221A      3.675270   222A      3.982075
     223A      4.109043   224A      4.165567

    Final Occupation by Irrep:
              A
    DOCC [    42 ]

  @RHF Final Energy:  -498.69993880452432

   => Energetics <=

    Nuclear Repulsion Energy =            587.7940900500751695
    One-Electron Energy =               -1844.8975864896788153
    Two-Electron Energy =                 758.4035576350792098
    Total Energy =                       -498.6999388045243222

Computation Completed

Properties will be evaluated at   0.000000,   0.000000,   0.000000 [a0]

Properties computed using the SCF density matrix

  Nuclear Dipole Moment: [e a0]
     X:    -7.2377      Y:     6.1197      Z:    -9.2229

  Electronic Dipole Moment: [e a0]
     X:     6.3324      Y:    -6.4592      Z:     9.0409

  Dipole Moment: [e a0]
     X:    -0.9053      Y:    -0.3395      Z:    -0.1820     Total:     0.9838

  Dipole Moment: [D]
     X:    -2.3010      Y:    -0.8629      Z:    -0.4626     Total:     2.5006

*** tstop() called on ds3 at Mon Apr 27 10:10:33 2020
Module time:
	user time   =     117.17 seconds =       1.95 minutes
	system time =      46.12 seconds =       0.77 minutes
	total time  =        392 seconds =       6.53 minutes
Total time:
	user time   =     117.17 seconds =       1.95 minutes
	system time =      46.12 seconds =       0.77 minutes
	total time  =        392 seconds =       6.53 minutes
                                     G D M A

                                 by Anthony Stone

                           version 2.2.06, 22 June 2011

               Distributed Multipoles from Gaussian wavefunctions

Starting at 10:10:33 on 27 Apr 2020

Using SCF density matrix from file ./SSI/SSI-106TYR-112SER-1-dimer.test.2304.fchk

                         Distributed Multipole Analysis

Standard DMA

Positions and radii in angstrom
Multipole moments in atomic units, ea_0^k for rank k

C          x = -0.696234  y = -1.699058  z = -2.560299 angstrom
           Maximum rank =  0   Radius =  0.650 angstrom
                   Q00  =  -0.201083

C          x =  0.883766  y = -0.569058  z = -0.996299 angstrom
           Maximum rank =  0   Radius =  0.650 angstrom
                   Q00  =  -0.082421

C          x = -0.131234  y = -1.488058  z = -1.176299 angstrom
           Maximum rank =  0   Radius =  0.650 angstrom
                   Q00  =  -0.126569

C          x =  1.404766  y = -0.366058  z =  0.257701 angstrom
           Maximum rank =  0   Radius =  0.650 angstrom
                   Q00  =  -0.000299

C          x =  0.954766  y = -1.094058  z =  1.350701 angstrom
           Maximum rank =  0   Radius =  0.650 angstrom
                   Q00  =   0.272703

C          x = -0.613234  y = -2.196058  z = -0.092299 angstrom
           Maximum rank =  0   Radius =  0.650 angstrom
                   Q00  =  -0.037606

C          x = -0.058234  y = -2.014058  z =  1.179701 angstrom
           Maximum rank =  0   Radius =  0.650 angstrom
                   Q00  =  -0.176839

O          x =  1.486766  y = -0.915058  z =  2.589701 angstrom
           Maximum rank =  0   Radius =  0.650 angstrom
                   Q00  =  -0.641247

H          x =  1.212766  y =  0.042942  z = -1.830299 angstrom
           Maximum rank =  0   Radius =  0.325 angstrom
                   Q00  =   0.062772

H          x =  1.892766  y =  0.554942  z =  0.355701 angstrom
           Maximum rank =  0   Radius =  0.325 angstrom
                   Q00  =   0.097582

H          x = -1.200234  y = -2.663058  z = -2.601299 angstrom
           Maximum rank =  0   Radius =  0.325 angstrom
                   Q00  =   0.096470

H          x =  0.169766  y = -1.785058  z = -3.220299 angstrom
           Maximum rank =  0   Radius =  0.325 angstrom
                   Q00  =   0.091619

H          x = -1.417234  y = -2.910058  z = -0.229299 angstrom
           Maximum rank =  0   Radius =  0.325 angstrom
                   Q00  =   0.067826

H          x =  1.256766  y = -1.646058  z =  3.190701 angstrom
           Maximum rank =  0   Radius =  0.325 angstrom
                   Q00  =   0.410392

H          x = -0.436234  y = -2.575058  z =  2.018701 angstrom
           Maximum rank =  0   Radius =  0.325 angstrom
                   Q00  =   0.069943

H          x = -1.363734  y = -0.914708  z = -2.946629 angstrom
           Maximum rank =  0   Radius =  0.325 angstrom
                   Q00  =   0.096935

C          x = -1.052234  y =  2.486942  z = -0.266299 angstrom
           Maximum rank =  0   Radius =  0.650 angstrom
                   Q00  =   0.156791

C          x = -1.390234  y =  3.419942  z = -1.429299 angstrom
           Maximum rank =  0   Radius =  0.650 angstrom
                   Q00  =  -0.280928

O          x = -0.476234  y =  3.144942  z =  0.831701 angstrom
           Maximum rank =  0   Radius =  0.650 angstrom
                   Q00  =  -0.621177

H          x = -1.961234  y =  1.978942  z =  0.057701 angstrom
           Maximum rank =  0   Radius =  0.325 angstrom
                   Q00  =   0.026342

H          x = -0.358234  y =  1.728942  z = -0.622299 angstrom
           Maximum rank =  0   Radius =  0.325 angstrom
                   Q00  =   0.094377

H          x = -1.837234  y =  2.845942  z = -2.229299 angstrom
           Maximum rank =  0   Radius =  0.325 angstrom
                   Q00  =   0.082708

H          x = -1.094234  y =  3.802942  z =  1.181701 angstrom
           Maximum rank =  0   Radius =  0.325 angstrom
                   Q00  =   0.379555

H          x = -0.469954  y =  3.863432  z = -1.837219 angstrom
           Maximum rank =  0   Radius =  0.325 angstrom
                   Q00  =   0.086073

H          x = -2.119354  y =  4.192382  z = -1.143429 angstrom
           Maximum rank =  0   Radius =  0.325 angstrom
                   Q00  =   0.076081

Total multipoles referred to origin at
           x =   0.000000,  y =    0.000000,  z =    0.000000 angstrom
                   Q00  =  -0.000000

Finished at 10:10:33 on 27 Apr 2020

  DMA results are available in the Python driver through the
	  variable('DMA DISTRIBUTED MULTIPOLES')
  and
	  variable('DMA TOTAL MULTIPOLES')
  commands.

    Psi4 stopped on: Monday, 27 April 2020 10:10AM
    Psi4 wall time for execution: 0:06:32.27

*** Psi4 exiting successfully. Buy a developer a beer!
