                               Psi4 1.3.2 release

  ==> Input File <==

--------------------------------------------------------------------------
import numpy as np
set {scf_type pk
basis cc-pvdz
d_convergence 10
gdma_switch   0
gdma_limit    0
gdma_origin   [ 0.0,  0.0,  0.0 ]
}
molecule test {
    units Angstrom
    0 1
    --
    0 1
    C                2.116428623606190    -0.340712650491045     0.408685986128068
    C                3.603428623606190    -0.382712650491045     0.873685986128068
    H                1.472428623606190    -0.766712650491045     1.180685986128068
    H                1.812428623606190     0.683287349508955     0.219685986128068
    H                1.994428623606190    -0.913712650491045    -0.513314013871932
    H                4.234428623606191     0.044287349508955     0.091685986128068
    H                3.918248623606190    -1.419512650491045     1.063275986128068
    H                3.777918623606190     0.229067349508955     1.771055986128068
    C               -1.498571376393810     0.050287349508955    -0.194314013871932
    C               -1.596571376393810     1.520287349508955    -0.643314013871932
    C               -2.736571376393809    -0.845712650491045    -0.462314013871932
    H               -0.626571376393810    -0.376712650491045    -0.692314013871932
    H               -1.310571376393810     0.082287349508955     0.880685986128068
    H               -2.306571376393810     2.037287349508955     0.002685986128068
    H               -2.783571376393810    -1.083712650491045    -1.529314013871932
    H               -1.936411376393810     1.565597349508955    -1.688524013871932
    H               -0.620751376393810     2.015047349508955    -0.529364013871932
    H               -2.630211376393810    -1.777562650491045     0.112435986128068
    H               -3.663361376393810    -0.336042650491045    -0.160164013871932

}
e, wfn = energy('scf', return_wfn=True)
gdma(wfn)
dmavals = variable('DMA DISTRIBUTED MULTIPOLES')
charges = np.array(dmavals)
print(charges)
np.save('SSI-159ILE-199LEU-1-dimer.npy', np.array(charges))--------------------------------------------------------------------------

*** tstart() called on ds3
*** at Tue Apr 28 19:55:03 2020

   => Loading Basis Set <=

    Name: CC-PVDZ
    Role: ORBITAL
    Keyword: BASIS
    atoms 1-2, 9-11  entry C          line   138 file /theoryfs2/ds/metcalf/miniconda2/envs/tf2gpu/share/psi4/basis/cc-pvdz.gbs
    atoms 3-8, 12-19 entry H          line    22 file /theoryfs2/ds/metcalf/miniconda2/envs/tf2gpu/share/psi4/basis/cc-pvdz.gbs

         ---------------------------------------------------------
                                   SCF
               by Justin Turney, Rob Parrish, Andy Simmonett
                          and Daniel G. A. Smith
                              RHF Reference
                        1 Threads,    500 MiB Core
         ---------------------------------------------------------

  ==> Geometry <==

    Molecular point group: c1
    Full point group: C1

    Geometry (in Angstrom), charge = 0, multiplicity = 1:

       Center              X                  Y                   Z               Mass
    ------------   -----------------  -----------------  -----------------  -----------------
         C            2.116428623606    -0.340712650491     0.408685986128    12.000000000000
         C            3.603428623606    -0.382712650491     0.873685986128    12.000000000000
         H            1.472428623606    -0.766712650491     1.180685986128     1.007825032230
         H            1.812428623606     0.683287349509     0.219685986128     1.007825032230
         H            1.994428623606    -0.913712650491    -0.513314013872     1.007825032230
         H            4.234428623606     0.044287349509     0.091685986128     1.007825032230
         H            3.918248623606    -1.419512650491     1.063275986128     1.007825032230
         H            3.777918623606     0.229067349509     1.771055986128     1.007825032230
         C           -1.498571376394     0.050287349509    -0.194314013872    12.000000000000
         C           -1.596571376394     1.520287349509    -0.643314013872    12.000000000000
         C           -2.736571376394    -0.845712650491    -0.462314013872    12.000000000000
         H           -0.626571376394    -0.376712650491    -0.692314013872     1.007825032230
         H           -1.310571376394     0.082287349509     0.880685986128     1.007825032230
         H           -2.306571376394     2.037287349509     0.002685986128     1.007825032230
         H           -2.783571376394    -1.083712650491    -1.529314013872     1.007825032230
         H           -1.936411376394     1.565597349509    -1.688524013872     1.007825032230
         H           -0.620751376394     2.015047349509    -0.529364013872     1.007825032230
         H           -2.630211376394    -1.777562650491     0.112435986128     1.007825032230
         H           -3.663361376394    -0.336042650491    -0.160164013872     1.007825032230

  Running in c1 symmetry.

  Rotational constants: A =      0.25689  B =      0.03454  C =      0.03140 [cm^-1]
  Rotational constants: A =   7701.26107  B =   1035.57403  C =    941.45317 [MHz]
  Nuclear repulsion =  174.106652771973899

  Charge       = 0
  Multiplicity = 1
  Electrons    = 44
  Nalpha       = 22
  Nbeta        = 22

  ==> Algorithm <==

  SCF Algorithm Type is PK.
  DIIS enabled.
  MOM disabled.
  Fractional occupation disabled.
  Guess Type is SAD.
  Energy threshold   = 1.00e-06
  Density threshold  = 1.00e-10
  Integral threshold = 0.00e+00

  ==> Primary Basis <==

  Basis Set: CC-PVDZ
    Blend: CC-PVDZ
    Number of shells: 72
    Number of basis function: 140
    Number of Cartesian functions: 145
    Spherical Harmonics?: true
    Max angular momentum: 2

  ==> Pre-Iterations <==

   -------------------------------------------------------
    Irrep   Nso     Nmo     Nalpha   Nbeta   Ndocc  Nsocc
   -------------------------------------------------------
     A        140     140       0       0       0       0
   -------------------------------------------------------
    Total     140     140      22      22      22       0
   -------------------------------------------------------

  ==> Integral Setup <==

  Using integral reordering PK algorithm.
  Sizing the integral batches needed.
  Building batch lookup table.
   Calculation information:
      Number of atoms:                  19
      Number of AO shells:              72
      Number of primitives:            180
      Number of atomic orbitals:       145
      Number of basis functions:       140

      Integral cutoff                 1.00e-12
      Number of threads:                 1

	Batch   1 pq = [       0,    9405] index = [             0,44231715] size =     44231715
	Batch   2 pq = [    9405,    9870] index = [      44231715,48713385] size =      4481670
  Task number: 5
  Buffer size: 11059200
  Buffer per thread: 2
  We computed 2736239 shell quartets total.
  Whereas there are 3454506 unique shell quartets.

  ==> DiskJK: Disk-Based J/K Matrices <==

    J tasked:                  Yes
    K tasked:                  Yes
    wK tasked:                  No
    Memory [MiB]:              375
    Schwarz Cutoff:          1E-12

    OpenMP threads:              1

  Minimum eigenvalue in the overlap matrix is 5.5663476911E-03.
  Using Symmetric Orthogonalization.

  SCF Guess: Superposition of Atomic Densities via on-the-fly atomic UHF.

  ==> Iterations <==

                        Total Energy        Delta E     RMS |[F,P]|

   @RHF iter SAD:  -196.23002821328342   -1.96230e+02   0.00000e+00
   @RHF iter   1:  -197.31719888568853   -1.08717e+00   3.72009e-03 DIIS
   @RHF iter   2:  -197.47277310593583   -1.55574e-01   1.58189e-03 DIIS
   @RHF iter   3:  -197.49942029066773   -2.66472e-02   3.21381e-04 DIIS
   @RHF iter   4:  -197.50159931946311   -2.17903e-03   4.86441e-05 DIIS
   @RHF iter   5:  -197.50163833502330   -3.90156e-05   1.48431e-05 DIIS
   @RHF iter   6:  -197.50164172709100   -3.39207e-06   2.50396e-06 DIIS
   @RHF iter   7:  -197.50164184302753   -1.15937e-07   4.90003e-07 DIIS
   @RHF iter   8:  -197.50164184866196   -5.63443e-09   1.32256e-07 DIIS
   @RHF iter   9:  -197.50164184904912   -3.87161e-10   4.33017e-08 DIIS
   @RHF iter  10:  -197.50164184909289   -4.37694e-11   8.91027e-09 DIIS
   @RHF iter  11:  -197.50164184909551   -2.61480e-12   1.56871e-09 DIIS
   @RHF iter  12:  -197.50164184909465    8.52651e-13   2.79553e-10 DIIS
   @RHF iter  13:  -197.50164184909559   -9.37916e-13   5.47599e-11 DIIS
  Energy and wave function converged.

  ==> Post-Iterations <==

    Orbital Energies [Eh]
    ---------------------

    Doubly Occupied:

       1A    -11.221774     2A    -11.220501     3A    -11.219962
       4A    -11.219879     5A    -11.217536     6A     -1.045139
       7A     -1.010533     8A     -0.923981     9A     -0.841111
      10A     -0.792455    11A     -0.623069    12A     -0.595964
      13A     -0.591315    14A     -0.588766    15A     -0.547523
      16A     -0.534883    17A     -0.497949    18A     -0.490841
      19A     -0.485708    20A     -0.471386    21A     -0.466586
      22A     -0.459394

    Virtual:

      23A      0.170731    24A      0.192878    25A      0.215453
      26A      0.221841    27A      0.226739    28A      0.249501
      29A      0.257817    30A      0.270288    31A      0.272473
      32A      0.284177    33A      0.287704    34A      0.307671
      35A      0.319375    36A      0.336172    37A      0.376369
      38A      0.397016    39A      0.426880    40A      0.576181
      41A      0.585476    42A      0.589361    43A      0.593957
      44A      0.606073    45A      0.620927    46A      0.628817
      47A      0.691436    48A      0.701163    49A      0.732828
      50A      0.787710    51A      0.796451    52A      0.827404
      53A      0.867029    54A      0.886373    55A      0.890675
      56A      0.892413    57A      0.893846    58A      0.894821
      59A      0.901578    60A      0.906802    61A      0.909565
      62A      0.914746    63A      0.919958    64A      0.941347
      65A      0.953709    66A      0.960034    67A      0.993996
      68A      1.013590    69A      1.112407    70A      1.119729
      71A      1.132110    72A      1.134753    73A      1.211929
      74A      1.242575    75A      1.377153    76A      1.459170
      77A      1.465615    78A      1.469445    79A      1.495427
      80A      1.518936    81A      1.585990    82A      1.637526
      83A      1.670938    84A      1.679784    85A      1.684952
      86A      1.694392    87A      1.702504    88A      1.844525
      89A      1.851727    90A      1.867961    91A      1.874121
      92A      1.883235    93A      1.899236    94A      1.903293
      95A      1.920329    96A      1.926326    97A      1.927678
      98A      1.941325    99A      1.944258   100A      1.949514
     101A      1.957933   102A      1.964542   103A      1.981268
     104A      1.994063   105A      2.003162   106A      2.038315
     107A      2.079146   108A      2.098120   109A      2.108836
     110A      2.131904   111A      2.179691   112A      2.279360
     113A      2.283611   114A      2.298952   115A      2.317172
     116A      2.331433   117A      2.360584   118A      2.445216
     119A      2.461100   120A      2.481525   121A      2.527838
     122A      2.544952   123A      2.561938   124A      2.573888
     125A      2.613006   126A      2.623941   127A      2.741069
     128A      2.754161   129A      2.755166   130A      2.783212
     131A      2.786802   132A      2.813827   133A      2.844973
     134A      2.863488   135A      2.895151   136A      2.940959
     137A      2.941895   138A      2.951367   139A      2.962892
     140A      3.048398

    Final Occupation by Irrep:
              A
    DOCC [    22 ]

  @RHF Final Energy:  -197.50164184909559

   => Energetics <=

    Nuclear Repulsion Energy =            174.1066527719738986
    One-Electron Energy =                -609.0840822088262030
    Two-Electron Energy =                 237.4757875877566846
    Total Energy =                       -197.5016418490955914

Computation Completed

Properties will be evaluated at   0.000000,   0.000000,   0.000000 [a0]

Properties computed using the SCF density matrix

  Nuclear Dipole Moment: [e a0]
     X:     1.2486      Y:    -0.0160      Z:     0.1961

  Electronic Dipole Moment: [e a0]
     X:    -1.2206      Y:     0.0041      Z:    -0.1822

  Dipole Moment: [e a0]
     X:     0.0280      Y:    -0.0119      Z:     0.0139     Total:     0.0334

  Dipole Moment: [D]
     X:     0.0711      Y:    -0.0302      Z:     0.0353     Total:     0.0849

*** tstop() called on ds3 at Tue Apr 28 19:55:22 2020
Module time:
	user time   =      13.97 seconds =       0.23 minutes
	system time =       6.07 seconds =       0.10 minutes
	total time  =         19 seconds =       0.32 minutes
Total time:
	user time   =      13.97 seconds =       0.23 minutes
	system time =       6.07 seconds =       0.10 minutes
	total time  =         19 seconds =       0.32 minutes
                                     G D M A

                                 by Anthony Stone

                           version 2.2.06, 22 June 2011

               Distributed Multipoles from Gaussian wavefunctions

Starting at 19:55:22 on 28 Apr 2020

Using SCF density matrix from file ./SSI/SSI-159ILE-199LEU-1-dimer.test.13474.fchk

                         Distributed Multipole Analysis

Standard DMA

Positions and radii in angstrom
Multipole moments in atomic units, ea_0^k for rank k

C          x =  2.116429  y = -0.340713  z =  0.408686 angstrom
           Maximum rank =  0   Radius =  0.650 angstrom
                   Q00  =  -0.245025

C          x =  3.603429  y = -0.382713  z =  0.873686 angstrom
           Maximum rank =  0   Radius =  0.650 angstrom
                   Q00  =  -0.246507

H          x =  1.472429  y = -0.766713  z =  1.180686 angstrom
           Maximum rank =  0   Radius =  0.325 angstrom
                   Q00  =   0.082865

H          x =  1.812429  y =  0.683287  z =  0.219686 angstrom
           Maximum rank =  0   Radius =  0.325 angstrom
                   Q00  =   0.083207

H          x =  1.994429  y = -0.913713  z = -0.513314 angstrom
           Maximum rank =  0   Radius =  0.325 angstrom
                   Q00  =   0.081345

H          x =  4.234429  y =  0.044287  z =  0.091686 angstrom
           Maximum rank =  0   Radius =  0.325 angstrom
                   Q00  =   0.080348

H          x =  3.918249  y = -1.419513  z =  1.063276 angstrom
           Maximum rank =  0   Radius =  0.325 angstrom
                   Q00  =   0.083149

H          x =  3.777919  y =  0.229067  z =  1.771056 angstrom
           Maximum rank =  0   Radius =  0.325 angstrom
                   Q00  =   0.082900

C          x = -1.498571  y =  0.050287  z = -0.194314 angstrom
           Maximum rank =  0   Radius =  0.650 angstrom
                   Q00  =  -0.063450

C          x = -1.596571  y =  1.520287  z = -0.643314 angstrom
           Maximum rank =  0   Radius =  0.650 angstrom
                   Q00  =  -0.250747

C          x = -2.736571  y = -0.845713  z = -0.462314 angstrom
           Maximum rank =  0   Radius =  0.650 angstrom
                   Q00  =  -0.265772

H          x = -0.626571  y = -0.376713  z = -0.692314 angstrom
           Maximum rank =  0   Radius =  0.325 angstrom
                   Q00  =   0.049824

H          x = -1.310571  y =  0.082287  z =  0.880686 angstrom
           Maximum rank =  0   Radius =  0.325 angstrom
                   Q00  =   0.042529

H          x = -2.306571  y =  2.037287  z =  0.002686 angstrom
           Maximum rank =  0   Radius =  0.325 angstrom
                   Q00  =   0.078273

H          x = -2.783571  y = -1.083713  z = -1.529314 angstrom
           Maximum rank =  0   Radius =  0.325 angstrom
                   Q00  =   0.081660

H          x = -1.936411  y =  1.565597  z = -1.688524 angstrom
           Maximum rank =  0   Radius =  0.325 angstrom
                   Q00  =   0.074944

H          x = -0.620751  y =  2.015047  z = -0.529364 angstrom
           Maximum rank =  0   Radius =  0.325 angstrom
                   Q00  =   0.085191

H          x = -2.630211  y = -1.777563  z =  0.112436 angstrom
           Maximum rank =  0   Radius =  0.325 angstrom
                   Q00  =   0.086338

H          x = -3.663361  y = -0.336043  z = -0.160164 angstrom
           Maximum rank =  0   Radius =  0.325 angstrom
                   Q00  =   0.078928

Total multipoles referred to origin at
           x =   0.000000,  y =    0.000000,  z =    0.000000 angstrom
                   Q00  =  -0.000000

Finished at 19:55:22 on 28 Apr 2020

  DMA results are available in the Python driver through the
	  variable('DMA DISTRIBUTED MULTIPOLES')
  and
	  variable('DMA TOTAL MULTIPOLES')
  commands.

    Psi4 stopped on: Tuesday, 28 April 2020 07:55PM
    Psi4 wall time for execution: 0:00:19.64

*** Psi4 exiting successfully. Buy a developer a beer!
