                               Psi4 1.3.2 release

  ==> Input File <==

--------------------------------------------------------------------------
import numpy as np
set {scf_type pk
basis cc-pvdz
d_convergence 10
gdma_switch   0
gdma_limit    0
gdma_origin   [ 0.0,  0.0,  0.0 ]
}
molecule test {
    units Angstrom
    0 1
    --
    0 1
    C                0.586085272567029    -1.736569763576413    -1.207324570629558
    C                0.753085272567029    -1.848569763576413    -2.736324570629558
    C               -0.055914727432971    -0.474569763576413    -0.722324570629558
    C                0.710085272567029     0.675430236423587    -0.550324570629558
    C               -1.417914727432971    -0.418569763576413    -0.461324570629558
    C                0.127085272567029     1.861430236423587    -0.115324570629558
    C               -2.004914727432971     0.771430236423587    -0.026324570629558
    C               -1.221914727432971     1.918430236423587     0.115675429370442
    O               -1.751914727432971     3.110430236423587     0.522675429370442
    H                0.001085272567029    -2.585569763576413    -0.853324570629558
    H                1.572085272567029    -1.814569763576413    -0.744324570629558
    H                1.387085272567029    -1.039569763576413    -3.098324570629559
    H                1.771085272567029     0.620430236423587    -0.729324570629558
    H               -2.028914727432971    -1.301569763576413    -0.588324570629558
    H                0.739085272567029     2.741430236423587     0.019675429370442
    H               -3.060914727432971     0.818430236423587     0.192675429370442
    H               -1.081914727432971     3.798430236423587     0.588675429370442
    H               -0.222354727432971    -1.847819763576413    -3.244760570629558
    H                1.241935272567029    -2.815289763576413    -2.927326570629559
    C                1.231085272567029    -2.133569763576413     2.337675429370442
    C                2.634085272567029    -1.550569763576413     2.429675429370442
    H                0.864085272567029    -2.450569763576413     3.310675429370442
    H                0.554085272567029    -1.369569763576413     1.956675429370442
    H                1.222085272567029    -2.981569763576413     1.652675429370442
    H                2.631085272567029    -0.704569763576413     3.117675429370442
    H                2.883085272567029    -1.176569763576413     1.437675429370442
    H                3.366165272567029    -2.301419763576412     2.761785429370442

}
e, wfn = energy('scf', return_wfn=True)
gdma(wfn)
dmavals = variable('DMA DISTRIBUTED MULTIPOLES')
charges = np.array(dmavals)
print(charges)
np.save('SSI-173TYR-213ILE-1-dimer.npy', np.array(charges))--------------------------------------------------------------------------

*** tstart() called on ds3
*** at Tue Apr 28 17:11:29 2020

   => Loading Basis Set <=

    Name: CC-PVDZ
    Role: ORBITAL
    Keyword: BASIS
    atoms 1-8, 20-21   entry C          line   138 file /theoryfs2/ds/metcalf/miniconda2/envs/tf2gpu/share/psi4/basis/cc-pvdz.gbs
    atoms 9            entry O          line   198 file /theoryfs2/ds/metcalf/miniconda2/envs/tf2gpu/share/psi4/basis/cc-pvdz.gbs
    atoms 10-19, 22-27 entry H          line    22 file /theoryfs2/ds/metcalf/miniconda2/envs/tf2gpu/share/psi4/basis/cc-pvdz.gbs

         ---------------------------------------------------------
                                   SCF
               by Justin Turney, Rob Parrish, Andy Simmonett
                          and Daniel G. A. Smith
                              RHF Reference
                        1 Threads,    500 MiB Core
         ---------------------------------------------------------

  ==> Geometry <==

    Molecular point group: c1
    Full point group: C1

    Geometry (in Angstrom), charge = 0, multiplicity = 1:

       Center              X                  Y                   Z               Mass
    ------------   -----------------  -----------------  -----------------  -----------------
         C            0.586085272567    -1.736569763576    -1.207324570630    12.000000000000
         C            0.753085272567    -1.848569763576    -2.736324570630    12.000000000000
         C           -0.055914727433    -0.474569763576    -0.722324570630    12.000000000000
         C            0.710085272567     0.675430236424    -0.550324570630    12.000000000000
         C           -1.417914727433    -0.418569763576    -0.461324570630    12.000000000000
         C            0.127085272567     1.861430236424    -0.115324570630    12.000000000000
         C           -2.004914727433     0.771430236424    -0.026324570630    12.000000000000
         C           -1.221914727433     1.918430236424     0.115675429370    12.000000000000
         O           -1.751914727433     3.110430236424     0.522675429370    15.994914619570
         H            0.001085272567    -2.585569763576    -0.853324570630     1.007825032230
         H            1.572085272567    -1.814569763576    -0.744324570630     1.007825032230
         H            1.387085272567    -1.039569763576    -3.098324570630     1.007825032230
         H            1.771085272567     0.620430236424    -0.729324570630     1.007825032230
         H           -2.028914727433    -1.301569763576    -0.588324570630     1.007825032230
         H            0.739085272567     2.741430236424     0.019675429370     1.007825032230
         H           -3.060914727433     0.818430236424     0.192675429370     1.007825032230
         H           -1.081914727433     3.798430236424     0.588675429370     1.007825032230
         H           -0.222354727433    -1.847819763576    -3.244760570630     1.007825032230
         H            1.241935272567    -2.815289763576    -2.927326570630     1.007825032230
         C            1.231085272567    -2.133569763576     2.337675429370    12.000000000000
         C            2.634085272567    -1.550569763576     2.429675429370    12.000000000000
         H            0.864085272567    -2.450569763576     3.310675429370     1.007825032230
         H            0.554085272567    -1.369569763576     1.956675429370     1.007825032230
         H            1.222085272567    -2.981569763576     1.652675429370     1.007825032230
         H            2.631085272567    -0.704569763576     3.117675429370     1.007825032230
         H            2.883085272567    -1.176569763576     1.437675429370     1.007825032230
         H            3.366165272567    -2.301419763576     2.761785429370     1.007825032230

  Running in c1 symmetry.

  Rotational constants: A =      0.03707  B =      0.02150  C =      0.01645 [cm^-1]
  Rotational constants: A =   1111.37511  B =    644.70100  C =    493.18403 [MHz]
  Nuclear repulsion =  592.231834918158256

  Charge       = 0
  Multiplicity = 1
  Electrons    = 84
  Nalpha       = 42
  Nbeta        = 42

  ==> Algorithm <==

  SCF Algorithm Type is PK.
  DIIS enabled.
  MOM disabled.
  Fractional occupation disabled.
  Guess Type is SAD.
  Energy threshold   = 1.00e-06
  Density threshold  = 1.00e-10
  Integral threshold = 0.00e+00

  ==> Primary Basis <==

  Basis Set: CC-PVDZ
    Blend: CC-PVDZ
    Number of shells: 114
    Number of basis function: 234
    Number of Cartesian functions: 245
    Spherical Harmonics?: true
    Max angular momentum: 2

  ==> Pre-Iterations <==

   -------------------------------------------------------
    Irrep   Nso     Nmo     Nalpha   Nbeta   Ndocc  Nsocc
   -------------------------------------------------------
     A        234     234       0       0       0       0
   -------------------------------------------------------
    Total     234     234      42      42      42       0
   -------------------------------------------------------

  ==> Integral Setup <==

  Using integral reordering PK algorithm.
  Sizing the integral batches needed.
  Building batch lookup table.
   Calculation information:
      Number of atoms:                  27
      Number of AO shells:             114
      Number of primitives:            322
      Number of atomic orbitals:       245
      Number of basis functions:       234

      Integral cutoff                 1.00e-12
      Number of threads:                 1

	Batch   1 pq = [       0,    9405] index = [             0,44231715] size =     44231715
	Batch   2 pq = [    9405,   13301] index = [      44231715,88464951] size =     44233236
	Batch   3 pq = [   13301,   16290] index = [      88464951,132690195] size =     44225244
	Batch   4 pq = [   16290,   18810] index = [     132690195,176917455] size =     44227260
	Batch   5 pq = [   18810,   21030] index = [     176917455,221140965] size =     44223510
	Batch   6 pq = [   21030,   23037] index = [     221140965,265363203] size =     44222238
	Batch   7 pq = [   23037,   24883] index = [     265363203,309594286] size =     44231083
	Batch   8 pq = [   24883,   26601] index = [     309594286,353819901] size =     44225615
	Batch   9 pq = [   26601,   27495] index = [     353819901,378001260] size =     24181359
  Task number: 35
  Buffer size: 11059200
  Buffer per thread: 2
  We computed 21364376 shell quartets total.
  Whereas there are 21487290 unique shell quartets.

  ==> DiskJK: Disk-Based J/K Matrices <==

    J tasked:                  Yes
    K tasked:                  Yes
    wK tasked:                  No
    Memory [MiB]:              375
    Schwarz Cutoff:          1E-12

    OpenMP threads:              1

  Minimum eigenvalue in the overlap matrix is 3.1842739125E-04.
  Using Symmetric Orthogonalization.

  SCF Guess: Superposition of Atomic Densities via on-the-fly atomic UHF.

  ==> Iterations <==

                        Total Energy        Delta E     RMS |[F,P]|

   @RHF iter SAD:  -461.76208844707440   -4.61762e+02   0.00000e+00
   @RHF iter   1:  -462.60688568174186   -8.44797e-01   2.81303e-03 DIIS
   @RHF iter   2:  -462.84727490113056   -2.40389e-01   1.19719e-03 DIIS
   @RHF iter   3:  -462.88697752646169   -3.97026e-02   2.74979e-04 DIIS
   @RHF iter   4:  -462.89025132412849   -3.27380e-03   1.18474e-04 DIIS
   @RHF iter   5:  -462.89069730380248   -4.45980e-04   1.91383e-05 DIIS
   @RHF iter   6:  -462.89071663287450   -1.93291e-05   5.37666e-06 DIIS
   @RHF iter   7:  -462.89071807118813   -1.43831e-06   1.90420e-06 DIIS
   @RHF iter   8:  -462.89071826408667   -1.92899e-07   6.39640e-07 DIIS
   @RHF iter   9:  -462.89071828968952   -2.56028e-08   1.83171e-07 DIIS
   @RHF iter  10:  -462.89071829199270   -2.30318e-09   6.09252e-08 DIIS
   @RHF iter  11:  -462.89071829239140   -3.98700e-10   2.52489e-08 DIIS
   @RHF iter  12:  -462.89071829247871   -8.73115e-11   1.27043e-08 DIIS
   @RHF iter  13:  -462.89071829250844   -2.97291e-11   6.18705e-09 DIIS
   @RHF iter  14:  -462.89071829251236   -3.92220e-12   1.63060e-09 DIIS
   @RHF iter  15:  -462.89071829251441   -2.04636e-12   5.53646e-10 DIIS
   @RHF iter  16:  -462.89071829251793   -3.52429e-12   1.54832e-10 DIIS
   @RHF iter  17:  -462.89071829251725    6.82121e-13   5.40220e-11 DIIS
  Energy and wave function converged.

  ==> Post-Iterations <==

    Orbital Energies [Eh]
    ---------------------

    Doubly Occupied:

       1A    -20.581241     2A    -11.298051     3A    -11.238955
       4A    -11.238121     5A    -11.232984     6A    -11.231176
       7A    -11.229151     8A    -11.227890     9A    -11.224253
      10A    -11.215143    11A    -11.209124    12A     -1.397959
      13A     -1.155776    14A     -1.059695    15A     -1.019131
      16A     -1.016449    17A     -0.977842    18A     -0.862513
      19A     -0.846918    20A     -0.832261    21A     -0.792047
      22A     -0.732217    23A     -0.674364    24A     -0.647452
      25A     -0.613572    26A     -0.598471    27A     -0.596520
      28A     -0.595191    29A     -0.587598    30A     -0.583814
      31A     -0.567393    32A     -0.545428    33A     -0.522092
      34A     -0.499221    35A     -0.495716    36A     -0.483565
      37A     -0.482644    38A     -0.478352    39A     -0.474178
      40A     -0.463013    41A     -0.339632    42A     -0.303405

    Virtual:

      43A      0.127448    44A      0.151404    45A      0.175876
      46A      0.180864    47A      0.197905    48A      0.207191
      49A      0.214802    50A      0.235415    51A      0.248402
      52A      0.251295    53A      0.257618    54A      0.264370
      55A      0.280633    56A      0.285379    57A      0.289010
      58A      0.299474    59A      0.315638    60A      0.349304
      61A      0.353351    62A      0.385923    63A      0.403444
      64A      0.414083    65A      0.426667    66A      0.473807
      67A      0.483910    68A      0.500012    69A      0.518646
      70A      0.573441    71A      0.593701    72A      0.597718
      73A      0.605470    74A      0.617936    75A      0.630715
      76A      0.649493    77A      0.673442    78A      0.677875
      79A      0.681644    80A      0.699011    81A      0.714951
      82A      0.720574    83A      0.734484    84A      0.739319
      85A      0.747698    86A      0.756271    87A      0.786322
      88A      0.795556    89A      0.810734    90A      0.825808
      91A      0.848953    92A      0.852874    93A      0.865030
      94A      0.872108    95A      0.878270    96A      0.881209
      97A      0.891135    98A      0.895648    99A      0.902101
     100A      0.910631   101A      0.913709   102A      0.920903
     103A      0.936746   104A      0.944109   105A      0.952477
     106A      0.964233   107A      0.973507   108A      0.978036
     109A      0.988796   110A      1.012695   111A      1.023330
     112A      1.034662   113A      1.046312   114A      1.092151
     115A      1.119956   116A      1.128944   117A      1.140897
     118A      1.150135   119A      1.151538   120A      1.176040
     121A      1.194443   122A      1.226015   123A      1.246472
     124A      1.266232   125A      1.270919   126A      1.285558
     127A      1.300562   128A      1.306198   129A      1.318682
     130A      1.348483   131A      1.356910   132A      1.383085
     133A      1.427230   134A      1.433258   135A      1.473509
     136A      1.484175   137A      1.496399   138A      1.510308
     139A      1.548157   140A      1.582517   141A      1.615217
     142A      1.625086   143A      1.629986   144A      1.671423
     145A      1.682285   146A      1.683701   147A      1.716506
     148A      1.732875   149A      1.753535   150A      1.768744
     151A      1.799230   152A      1.847432   153A      1.855117
     154A      1.867234   155A      1.873669   156A      1.880332
     157A      1.888184   158A      1.893834   159A      1.901294
     160A      1.907238   161A      1.910608   162A      1.920176
     163A      1.929010   164A      1.944094   165A      1.951522
     166A      1.954883   167A      1.960636   168A      1.964456
     169A      1.974081   170A      1.980183   171A      1.991731
     172A      2.004887   173A      2.010228   174A      2.017307
     175A      2.043737   176A      2.050591   177A      2.063554
     178A      2.081757   179A      2.090710   180A      2.103426
     181A      2.120815   182A      2.133656   183A      2.144333
     184A      2.160762   185A      2.166125   186A      2.199250
     187A      2.222996   188A      2.260624   189A      2.272689
     190A      2.293514   191A      2.315154   192A      2.319548
     193A      2.336130   194A      2.364950   195A      2.378170
     196A      2.455498   197A      2.458102   198A      2.463857
     199A      2.469689   200A      2.475999   201A      2.493202
     202A      2.509849   203A      2.534735   204A      2.537764
     205A      2.567565   206A      2.580021   207A      2.588436
     208A      2.633360   209A      2.663858   210A      2.760931
     211A      2.770805   212A      2.780353   213A      2.796723
     214A      2.812226   215A      2.813817   216A      2.854826
     217A      2.866570   218A      2.870109   219A      2.875164
     220A      2.914326   221A      2.959881   222A      2.974189
     223A      2.983844   224A      3.000331   225A      3.023656
     226A      3.097569   227A      3.173269   228A      3.252611
     229A      3.296878   230A      3.346290   231A      3.577672
     232A      3.664880   233A      4.007943   234A      4.185297

    Final Occupation by Irrep:
              A
    DOCC [    42 ]

  @RHF Final Energy:  -462.89071829251725

   => Energetics <=

    Nuclear Repulsion Energy =            592.2318349181582562
    One-Electron Energy =               -1801.9040675459727936
    Two-Electron Energy =                 746.7815143352972882
    Total Energy =                       -462.8907182925172492

Computation Completed

Properties will be evaluated at   0.000000,   0.000000,   0.000000 [a0]

Properties computed using the SCF density matrix

  Nuclear Dipole Moment: [e a0]
     X:    11.0901      Y:   -13.4939      Z:     2.6766

  Electronic Dipole Moment: [e a0]
     X:   -10.5813      Y:    13.5802      Z:    -2.7858

  Dipole Moment: [e a0]
     X:     0.5088      Y:     0.0863      Z:    -0.1092     Total:     0.5275

  Dipole Moment: [D]
     X:     1.2933      Y:     0.2194      Z:    -0.2774     Total:     1.3408

*** tstop() called on ds3 at Tue Apr 28 17:15:48 2020
Module time:
	user time   =     150.17 seconds =       2.50 minutes
	system time =      50.59 seconds =       0.84 minutes
	total time  =        259 seconds =       4.32 minutes
Total time:
	user time   =     150.17 seconds =       2.50 minutes
	system time =      50.59 seconds =       0.84 minutes
	total time  =        259 seconds =       4.32 minutes
                                     G D M A

                                 by Anthony Stone

                           version 2.2.06, 22 June 2011

               Distributed Multipoles from Gaussian wavefunctions

Starting at 17:15:48 on 28 Apr 2020

Using SCF density matrix from file ./SSI/SSI-173TYR-213ILE-1-dimer.test.27594.fchk

                         Distributed Multipole Analysis

Standard DMA

Positions and radii in angstrom
Multipole moments in atomic units, ea_0^k for rank k

C          x =  0.586085  y = -1.736570  z = -1.207325 angstrom
           Maximum rank =  0   Radius =  0.650 angstrom
                   Q00  =  -0.022430

C          x =  0.753085  y = -1.848570  z = -2.736325 angstrom
           Maximum rank =  0   Radius =  0.650 angstrom
                   Q00  =  -0.245460

C          x = -0.055915  y = -0.474570  z = -0.722325 angstrom
           Maximum rank =  0   Radius =  0.650 angstrom
                   Q00  =  -0.151367

C          x =  0.710085  y =  0.675430  z = -0.550325 angstrom
           Maximum rank =  0   Radius =  0.650 angstrom
                   Q00  =   0.058142

C          x = -1.417915  y = -0.418570  z = -0.461325 angstrom
           Maximum rank =  0   Radius =  0.650 angstrom
                   Q00  =  -0.047574

C          x =  0.127085  y =  1.861430  z = -0.115325 angstrom
           Maximum rank =  0   Radius =  0.650 angstrom
                   Q00  =  -0.186035

C          x = -2.004915  y =  0.771430  z = -0.026325 angstrom
           Maximum rank =  0   Radius =  0.650 angstrom
                   Q00  =  -0.103621

C          x = -1.221915  y =  1.918430  z =  0.115675 angstrom
           Maximum rank =  0   Radius =  0.650 angstrom
                   Q00  =   0.285760

O          x = -1.751915  y =  3.110430  z =  0.522675 angstrom
           Maximum rank =  0   Radius =  0.650 angstrom
                   Q00  =  -0.650080

H          x =  0.001085  y = -2.585570  z = -0.853325 angstrom
           Maximum rank =  0   Radius =  0.325 angstrom
                   Q00  =   0.065799

H          x =  1.572085  y = -1.814570  z = -0.744325 angstrom
           Maximum rank =  0   Radius =  0.325 angstrom
                   Q00  =   0.061631

H          x =  1.387085  y = -1.039570  z = -3.098325 angstrom
           Maximum rank =  0   Radius =  0.325 angstrom
                   Q00  =   0.085429

H          x =  1.771085  y =  0.620430  z = -0.729325 angstrom
           Maximum rank =  0   Radius =  0.325 angstrom
                   Q00  =   0.066474

H          x = -2.028915  y = -1.301570  z = -0.588325 angstrom
           Maximum rank =  0   Radius =  0.325 angstrom
                   Q00  =   0.063511

H          x =  0.739085  y =  2.741430  z =  0.019675 angstrom
           Maximum rank =  0   Radius =  0.325 angstrom
                   Q00  =   0.066879

H          x = -3.060915  y =  0.818430  z =  0.192675 angstrom
           Maximum rank =  0   Radius =  0.325 angstrom
                   Q00  =   0.082139

H          x = -1.081915  y =  3.798430  z =  0.588675 angstrom
           Maximum rank =  0   Radius =  0.325 angstrom
                   Q00  =   0.407417

H          x = -0.222355  y = -1.847820  z = -3.244761 angstrom
           Maximum rank =  0   Radius =  0.325 angstrom
                   Q00  =   0.085534

H          x =  1.241935  y = -2.815290  z = -2.927327 angstrom
           Maximum rank =  0   Radius =  0.325 angstrom
                   Q00  =   0.079451

C          x =  1.231085  y = -2.133570  z =  2.337675 angstrom
           Maximum rank =  0   Radius =  0.650 angstrom
                   Q00  =  -0.245358

C          x =  2.634085  y = -1.550570  z =  2.429675 angstrom
           Maximum rank =  0   Radius =  0.650 angstrom
                   Q00  =  -0.226294

H          x =  0.864085  y = -2.450570  z =  3.310675 angstrom
           Maximum rank =  0   Radius =  0.325 angstrom
                   Q00  =   0.077134

H          x =  0.554085  y = -1.369570  z =  1.956675 angstrom
           Maximum rank =  0   Radius =  0.325 angstrom
                   Q00  =   0.092228

H          x =  1.222085  y = -2.981570  z =  1.652675 angstrom
           Maximum rank =  0   Radius =  0.325 angstrom
                   Q00  =   0.073164

H          x =  2.631085  y = -0.704570  z =  3.117675 angstrom
           Maximum rank =  0   Radius =  0.325 angstrom
                   Q00  =   0.079468

H          x =  2.883085  y = -1.176570  z =  1.437675 angstrom
           Maximum rank =  0   Radius =  0.325 angstrom
                   Q00  =   0.070818

H          x =  3.366165  y = -2.301420  z =  2.761785 angstrom
           Maximum rank =  0   Radius =  0.325 angstrom
                   Q00  =   0.077240

Total multipoles referred to origin at
           x =   0.000000,  y =    0.000000,  z =    0.000000 angstrom
                   Q00  =  -0.000000

Finished at 17:15:48 on 28 Apr 2020

  DMA results are available in the Python driver through the
	  variable('DMA DISTRIBUTED MULTIPOLES')
  and
	  variable('DMA TOTAL MULTIPOLES')
  commands.

    Psi4 stopped on: Tuesday, 28 April 2020 05:15PM
    Psi4 wall time for execution: 0:04:19.91

*** Psi4 exiting successfully. Buy a developer a beer!
