                               Psi4 1.3.2 release

  ==> Input File <==

--------------------------------------------------------------------------
import numpy as np
set {scf_type pk
basis cc-pvdz
d_convergence 10
gdma_switch   0
gdma_limit    0
gdma_origin   [ 0.0,  0.0,  0.0 ]
}
molecule test {
    units Angstrom
    0 1
    --
    0 1
    C                0.671667716102907     2.996740773122951     0.515398064058417
    C                0.554667716102907    -0.655259226877050     1.533398064058418
    C                1.513667716102907    -1.216259226877050     0.709398064058418
    C                0.287667716102907     0.710740773122950     1.475398064058418
    C                0.965667716102907     1.522740773122950     0.574398064058417
    C                2.193667716102907    -0.419259226877050    -0.191601935941582
    C                1.922667716102907     0.942740773122950    -0.258601935941582
    H                0.009667716102907    -1.281259226877050     2.225398064058417
    H                1.721667716102907    -2.276259226877050     0.763398064058417
    H               -0.459332283897093     1.140740773122950     2.127398064058418
    H                2.940667716102907    -0.856259226877050    -0.837601935941582
    H                1.125667716102907     3.487740773122950     1.373398064058418
    H               -0.409332283897093     3.112740773122950     0.612398064058417
    H                2.485667716102907     1.512740773122950    -0.976601935941583
    H                0.987647716102907     3.487940773122950    -0.416741935941582
    C               -2.281332283897093    -1.336259226877049    -0.731601935941583
    C               -3.046332283897093    -0.137259226877050    -1.284601935941583
    C               -1.857332283897093    -2.267259226877050    -1.836601935941583
    H               -1.412332283897093    -1.005259226877050    -0.169601935941582
    H               -2.925332283897093    -1.911259226877050    -0.064601935941582
    H               -3.580332283897093    -0.463259226877050    -2.179601935941582
    H               -1.103332283897093    -1.785259226877050    -2.457601935941582
    H               -1.467332283897093    -3.181259226877050    -1.396601935941582
    H               -2.712332283897093    -2.536259226877050    -2.455601935941583
    H               -3.822708283897093     0.179890773122950    -0.572801935941582
    H               -2.388592283897093     0.690820773122950    -1.587348935941582

}
e, wfn = energy('scf', return_wfn=True)
gdma(wfn)
dmavals = variable('DMA DISTRIBUTED MULTIPOLES')
charges = np.array(dmavals)
print(charges)
np.save('SSI-010PHE-028ILE-2-dimer.npy', np.array(charges))--------------------------------------------------------------------------

*** tstart() called on ds3
*** at Mon Apr 27 13:23:25 2020

   => Loading Basis Set <=

    Name: CC-PVDZ
    Role: ORBITAL
    Keyword: BASIS
    atoms 1-7, 16-18  entry C          line   138 file /theoryfs2/ds/metcalf/miniconda2/envs/tf2gpu/share/psi4/basis/cc-pvdz.gbs
    atoms 8-15, 19-26 entry H          line    22 file /theoryfs2/ds/metcalf/miniconda2/envs/tf2gpu/share/psi4/basis/cc-pvdz.gbs

         ---------------------------------------------------------
                                   SCF
               by Justin Turney, Rob Parrish, Andy Simmonett
                          and Daniel G. A. Smith
                              RHF Reference
                        1 Threads,    500 MiB Core
         ---------------------------------------------------------

  ==> Geometry <==

    Molecular point group: c1
    Full point group: C1

    Geometry (in Angstrom), charge = 0, multiplicity = 1:

       Center              X                  Y                   Z               Mass
    ------------   -----------------  -----------------  -----------------  -----------------
         C            0.671667716103     2.996740773123     0.515398064058    12.000000000000
         C            0.554667716103    -0.655259226877     1.533398064058    12.000000000000
         C            1.513667716103    -1.216259226877     0.709398064058    12.000000000000
         C            0.287667716103     0.710740773123     1.475398064058    12.000000000000
         C            0.965667716103     1.522740773123     0.574398064058    12.000000000000
         C            2.193667716103    -0.419259226877    -0.191601935942    12.000000000000
         C            1.922667716103     0.942740773123    -0.258601935942    12.000000000000
         H            0.009667716103    -1.281259226877     2.225398064058     1.007825032230
         H            1.721667716103    -2.276259226877     0.763398064058     1.007825032230
         H           -0.459332283897     1.140740773123     2.127398064058     1.007825032230
         H            2.940667716103    -0.856259226877    -0.837601935942     1.007825032230
         H            1.125667716103     3.487740773123     1.373398064058     1.007825032230
         H           -0.409332283897     3.112740773123     0.612398064058     1.007825032230
         H            2.485667716103     1.512740773123    -0.976601935942     1.007825032230
         H            0.987647716103     3.487940773123    -0.416741935942     1.007825032230
         C           -2.281332283897    -1.336259226877    -0.731601935942    12.000000000000
         C           -3.046332283897    -0.137259226877    -1.284601935942    12.000000000000
         C           -1.857332283897    -2.267259226877    -1.836601935942    12.000000000000
         H           -1.412332283897    -1.005259226877    -0.169601935942     1.007825032230
         H           -2.925332283897    -1.911259226877    -0.064601935942     1.007825032230
         H           -3.580332283897    -0.463259226877    -2.179601935942     1.007825032230
         H           -1.103332283897    -1.785259226877    -2.457601935942     1.007825032230
         H           -1.467332283897    -3.181259226877    -1.396601935942     1.007825032230
         H           -2.712332283897    -2.536259226877    -2.455601935942     1.007825032230
         H           -3.822708283897     0.179890773123    -0.572801935942     1.007825032230
         H           -2.388592283897     0.690820773123    -1.587348935942     1.007825032230

  Running in c1 symmetry.

  Rotational constants: A =      0.05160  B =      0.02370  C =      0.01981 [cm^-1]
  Rotational constants: A =   1547.07696  B =    710.39629  C =    593.80574 [MHz]
  Nuclear repulsion =  495.986927597059605

  Charge       = 0
  Multiplicity = 1
  Electrons    = 76
  Nalpha       = 38
  Nbeta        = 38

  ==> Algorithm <==

  SCF Algorithm Type is PK.
  DIIS enabled.
  MOM disabled.
  Fractional occupation disabled.
  Guess Type is SAD.
  Energy threshold   = 1.00e-06
  Density threshold  = 1.00e-10
  Integral threshold = 0.00e+00

  ==> Primary Basis <==

  Basis Set: CC-PVDZ
    Blend: CC-PVDZ
    Number of shells: 108
    Number of basis function: 220
    Number of Cartesian functions: 230
    Spherical Harmonics?: true
    Max angular momentum: 2

  ==> Pre-Iterations <==

   -------------------------------------------------------
    Irrep   Nso     Nmo     Nalpha   Nbeta   Ndocc  Nsocc
   -------------------------------------------------------
     A        220     220       0       0       0       0
   -------------------------------------------------------
    Total     220     220      38      38      38       0
   -------------------------------------------------------

  ==> Integral Setup <==

  Using integral reordering PK algorithm.
  Sizing the integral batches needed.
  Building batch lookup table.
   Calculation information:
      Number of atoms:                  26
      Number of AO shells:             108
      Number of primitives:            300
      Number of atomic orbitals:       230
      Number of basis functions:       220

      Integral cutoff                 1.00e-12
      Number of threads:                 1

	Batch   1 pq = [       0,    9405] index = [             0,44231715] size =     44231715
	Batch   2 pq = [    9405,   13301] index = [      44231715,88464951] size =     44233236
	Batch   3 pq = [   13301,   16290] index = [      88464951,132690195] size =     44225244
	Batch   4 pq = [   16290,   18810] index = [     132690195,176917455] size =     44227260
	Batch   5 pq = [   18810,   21030] index = [     176917455,221140965] size =     44223510
	Batch   6 pq = [   21030,   23037] index = [     221140965,265363203] size =     44222238
	Batch   7 pq = [   23037,   24310] index = [     265363203,295500205] size =     30137002
  Task number: 27
  Buffer size: 11059200
  Buffer per thread: 2
  We computed 16416775 shell quartets total.
  Whereas there are 17325441 unique shell quartets.

  ==> DiskJK: Disk-Based J/K Matrices <==

    J tasked:                  Yes
    K tasked:                  Yes
    wK tasked:                  No
    Memory [MiB]:              375
    Schwarz Cutoff:          1E-12

    OpenMP threads:              1

  Minimum eigenvalue in the overlap matrix is 3.0104991943E-04.
  Using Symmetric Orthogonalization.

  SCF Guess: Superposition of Atomic Densities via on-the-fly atomic UHF.

  ==> Iterations <==

                        Total Energy        Delta E     RMS |[F,P]|

   @RHF iter SAD:  -386.98989609893408   -3.86990e+02   0.00000e+00
   @RHF iter   1:  -387.76281574090154   -7.72920e-01   2.78913e-03 DIIS
   @RHF iter   2:  -387.98466652514378   -2.21851e-01   1.19007e-03 DIIS
   @RHF iter   3:  -388.02158729172390   -3.69208e-02   2.51970e-04 DIIS
   @RHF iter   4:  -388.02450597662437   -2.91868e-03   5.06226e-05 DIIS
   @RHF iter   5:  -388.02459244321608   -8.64666e-05   1.52909e-05 DIIS
   @RHF iter   6:  -388.02459998734548   -7.54413e-06   4.65399e-06 DIIS
   @RHF iter   7:  -388.02460074322073   -7.55875e-07   1.25715e-06 DIIS
   @RHF iter   8:  -388.02460080488078   -6.16600e-08   2.95814e-07 DIIS
   @RHF iter   9:  -388.02460081169636   -6.81558e-09   1.18691e-07 DIIS
   @RHF iter  10:  -388.02460081312051   -1.42416e-09   6.35169e-08 DIIS
   @RHF iter  11:  -388.02460081357168   -4.51166e-10   2.66318e-08 DIIS
   @RHF iter  12:  -388.02460081367309   -1.01409e-10   1.12360e-08 DIIS
   @RHF iter  13:  -388.02460081368696   -1.38698e-11   4.49621e-09 DIIS
   @RHF iter  14:  -388.02460081368656    3.97904e-13   1.06304e-09 DIIS
   @RHF iter  15:  -388.02460081368554    1.02318e-12   3.22575e-10 DIIS
   @RHF iter  16:  -388.02460081368622   -6.82121e-13   1.26240e-10 DIIS
   @RHF iter  17:  -388.02460081368594    2.84217e-13   5.18872e-11 DIIS
  Energy and wave function converged.

  ==> Post-Iterations <==

    Orbital Energies [Eh]
    ---------------------

    Doubly Occupied:

       1A    -11.242676     2A    -11.235405     3A    -11.234110
       4A    -11.230967     5A    -11.230393     6A    -11.230124
       7A    -11.229213     8A    -11.209203     9A    -11.205727
      10A    -11.204696    11A     -1.156175    12A     -1.051144
      13A     -1.047458    14A     -1.013255    15A     -0.933648
      16A     -0.916463    17A     -0.826287    18A     -0.797508
      19A     -0.789076    20A     -0.692915    21A     -0.633806
      22A     -0.630391    23A     -0.621509    24A     -0.590917
      25A     -0.583119    26A     -0.578402    27A     -0.565100
      28A     -0.542575    29A     -0.537443    30A     -0.524223
      31A     -0.492666    32A     -0.486416    33A     -0.482008
      34A     -0.464038    35A     -0.460928    36A     -0.454834
      37A     -0.332464    38A     -0.324097

    Virtual:

      39A      0.134284    40A      0.141963    41A      0.172847
      42A      0.194526    43A      0.200260    44A      0.214057
      45A      0.233699    46A      0.236066    47A      0.248868
      48A      0.253114    49A      0.257645    50A      0.263779
      51A      0.276376    52A      0.283309    53A      0.290937
      54A      0.299932    55A      0.312576    56A      0.332897
      57A      0.367083    58A      0.375570    59A      0.389074
      60A      0.438479    61A      0.453965    62A      0.464633
      63A      0.476761    64A      0.494799    65A      0.559702
      66A      0.587916    67A      0.591551    68A      0.596377
      69A      0.613582    70A      0.635475    71A      0.638408
      72A      0.640966    73A      0.684256    74A      0.697077
      75A      0.700636    76A      0.730946    77A      0.737745
      78A      0.740359    79A      0.750891    80A      0.759399
      81A      0.767773    82A      0.787402    83A      0.792569
      84A      0.819280    85A      0.833281    86A      0.836611
      87A      0.856425    88A      0.861448    89A      0.871675
      90A      0.880975    91A      0.890812    92A      0.891971
      93A      0.895187    94A      0.900019    95A      0.901984
      96A      0.906240    97A      0.914566    98A      0.919417
      99A      0.928904   100A      0.935414   101A      0.942553
     102A      0.949825   103A      0.967132   104A      0.978195
     105A      0.989844   106A      1.009049   107A      1.041880
     108A      1.085668   109A      1.116582   110A      1.123481
     111A      1.137129   112A      1.140906   113A      1.154726
     114A      1.165145   115A      1.194425   116A      1.230457
     117A      1.243205   118A      1.254314   119A      1.256506
     120A      1.291170   121A      1.307954   122A      1.323762
     123A      1.325952   124A      1.355046   125A      1.410330
     126A      1.423326   127A      1.462975   128A      1.494006
     129A      1.514102   130A      1.521298   131A      1.543783
     132A      1.570798   133A      1.593033   134A      1.654948
     135A      1.673875   136A      1.679528   137A      1.694030
     138A      1.701807   139A      1.718584   140A      1.734208
     141A      1.747638   142A      1.762594   143A      1.791317
     144A      1.821310   145A      1.853282   146A      1.856770
     147A      1.868266   148A      1.887246   149A      1.892117
     150A      1.895222   151A      1.913172   152A      1.921701
     153A      1.927069   154A      1.927976   155A      1.942029
     156A      1.951494   157A      1.953957   158A      1.961868
     159A      1.964183   160A      1.975320   161A      1.983158
     162A      1.991222   163A      2.000405   164A      2.012736
     165A      2.021507   166A      2.032266   167A      2.046225
     168A      2.072225   169A      2.086149   170A      2.095743
     171A      2.113807   172A      2.145249   173A      2.150917
     174A      2.161399   175A      2.173119   176A      2.176731
     177A      2.189124   178A      2.193201   179A      2.256363
     180A      2.269269   181A      2.276222   182A      2.282286
     183A      2.297064   184A      2.325191   185A      2.331323
     186A      2.333042   187A      2.356407   188A      2.386177
     189A      2.460333   190A      2.468811   191A      2.481462
     192A      2.498821   193A      2.539325   194A      2.548093
     195A      2.576995   196A      2.629161   197A      2.635339
     198A      2.678868   199A      2.736219   200A      2.749321
     201A      2.762783   202A      2.772195   203A      2.790173
     204A      2.795864   205A      2.801966   206A      2.813397
     207A      2.838703   208A      2.851637   209A      2.865772
     210A      2.930327   211A      2.949086   212A      2.971171
     213A      2.993455   214A      3.031076   215A      3.052797
     216A      3.130464   217A      3.171969   218A      3.213541
     219A      3.306146   220A      3.981891

    Final Occupation by Irrep:
              A
    DOCC [    38 ]

  @RHF Final Energy:  -388.02460081368594

   => Energetics <=

    Nuclear Repulsion Energy =            495.9869275970596050
    One-Electron Energy =               -1506.4603022794240132
    Two-Electron Energy =                 622.4487738686784724
    Total Energy =                       -388.0246008136859928

Computation Completed

Properties will be evaluated at   0.000000,   0.000000,   0.000000 [a0]

Properties computed using the SCF density matrix

  Nuclear Dipole Moment: [e a0]
     X:   -10.3215      Y:    -1.5784      Z:    -5.6367

  Electronic Dipole Moment: [e a0]
     X:    10.3889      Y:     1.7278      Z:     5.7109

  Dipole Moment: [e a0]
     X:     0.0674      Y:     0.1494      Z:     0.0741     Total:     0.1799

  Dipole Moment: [D]
     X:     0.1713      Y:     0.3796      Z:     0.1884     Total:     0.4572

*** tstop() called on ds3 at Mon Apr 27 13:26:11 2020
Module time:
	user time   =     122.48 seconds =       2.04 minutes
	system time =      50.75 seconds =       0.85 minutes
	total time  =        166 seconds =       2.77 minutes
Total time:
	user time   =     122.48 seconds =       2.04 minutes
	system time =      50.75 seconds =       0.85 minutes
	total time  =        166 seconds =       2.77 minutes
                                     G D M A

                                 by Anthony Stone

                           version 2.2.06, 22 June 2011

               Distributed Multipoles from Gaussian wavefunctions

Starting at 13:26:11 on 27 Apr 2020

Using SCF density matrix from file ./SSI/SSI-010PHE-028ILE-2-dimer.test.6422.fchk

                         Distributed Multipole Analysis

Standard DMA

Positions and radii in angstrom
Multipole moments in atomic units, ea_0^k for rank k

C          x =  0.671668  y =  2.996741  z =  0.515398 angstrom
           Maximum rank =  0   Radius =  0.650 angstrom
                   Q00  =  -0.207596

C          x =  0.554668  y = -0.655259  z =  1.533398 angstrom
           Maximum rank =  0   Radius =  0.650 angstrom
                   Q00  =  -0.024487

C          x =  1.513668  y = -1.216259  z =  0.709398 angstrom
           Maximum rank =  0   Radius =  0.650 angstrom
                   Q00  =  -0.078582

C          x =  0.287668  y =  0.710741  z =  1.475398 angstrom
           Maximum rank =  0   Radius =  0.650 angstrom
                   Q00  =  -0.095895

C          x =  0.965668  y =  1.522741  z =  0.574398 angstrom
           Maximum rank =  0   Radius =  0.650 angstrom
                   Q00  =  -0.094170

C          x =  2.193668  y = -0.419259  z = -0.191602 angstrom
           Maximum rank =  0   Radius =  0.650 angstrom
                   Q00  =  -0.078303

C          x =  1.922668  y =  0.942741  z = -0.258602 angstrom
           Maximum rank =  0   Radius =  0.650 angstrom
                   Q00  =  -0.021533

H          x =  0.009668  y = -1.281259  z =  2.225398 angstrom
           Maximum rank =  0   Radius =  0.325 angstrom
                   Q00  =   0.064068

H          x =  1.721668  y = -2.276259  z =  0.763398 angstrom
           Maximum rank =  0   Radius =  0.325 angstrom
                   Q00  =   0.059792

H          x = -0.459332  y =  1.140741  z =  2.127398 angstrom
           Maximum rank =  0   Radius =  0.325 angstrom
                   Q00  =   0.056142

H          x =  2.940668  y = -0.856259  z = -0.837602 angstrom
           Maximum rank =  0   Radius =  0.325 angstrom
                   Q00  =   0.063833

H          x =  1.125668  y =  3.487741  z =  1.373398 angstrom
           Maximum rank =  0   Radius =  0.325 angstrom
                   Q00  =   0.105989

H          x = -0.409332  y =  3.112741  z =  0.612398 angstrom
           Maximum rank =  0   Radius =  0.325 angstrom
                   Q00  =   0.096913

H          x =  2.485668  y =  1.512741  z = -0.976602 angstrom
           Maximum rank =  0   Radius =  0.325 angstrom
                   Q00  =   0.055524

H          x =  0.987648  y =  3.487941  z = -0.416742 angstrom
           Maximum rank =  0   Radius =  0.325 angstrom
                   Q00  =   0.101967

C          x = -2.281332  y = -1.336259  z = -0.731602 angstrom
           Maximum rank =  0   Radius =  0.650 angstrom
                   Q00  =  -0.090700

C          x = -3.046332  y = -0.137259  z = -1.284602 angstrom
           Maximum rank =  0   Radius =  0.650 angstrom
                   Q00  =  -0.234299

C          x = -1.857332  y = -2.267259  z = -1.836602 angstrom
           Maximum rank =  0   Radius =  0.650 angstrom
                   Q00  =  -0.243258

H          x = -1.412332  y = -1.005259  z = -0.169602 angstrom
           Maximum rank =  0   Radius =  0.325 angstrom
                   Q00  =   0.077198

H          x = -2.925332  y = -1.911259  z = -0.064602 angstrom
           Maximum rank =  0   Radius =  0.325 angstrom
                   Q00  =   0.038673

H          x = -3.580332  y = -0.463259  z = -2.179602 angstrom
           Maximum rank =  0   Radius =  0.325 angstrom
                   Q00  =   0.064675

H          x = -1.103332  y = -1.785259  z = -2.457602 angstrom
           Maximum rank =  0   Radius =  0.325 angstrom
                   Q00  =   0.074377

H          x = -1.467332  y = -3.181259  z = -1.396602 angstrom
           Maximum rank =  0   Radius =  0.325 angstrom
                   Q00  =   0.075834

H          x = -2.712332  y = -2.536259  z = -2.455602 angstrom
           Maximum rank =  0   Radius =  0.325 angstrom
                   Q00  =   0.069597

H          x = -3.822708  y =  0.179891  z = -0.572802 angstrom
           Maximum rank =  0   Radius =  0.325 angstrom
                   Q00  =   0.082121

H          x = -2.388592  y =  0.690821  z = -1.587349 angstrom
           Maximum rank =  0   Radius =  0.325 angstrom
                   Q00  =   0.082118

Total multipoles referred to origin at
           x =   0.000000,  y =    0.000000,  z =    0.000000 angstrom
                   Q00  =  -0.000000

Finished at 13:26:11 on 27 Apr 2020

  DMA results are available in the Python driver through the
	  variable('DMA DISTRIBUTED MULTIPOLES')
  and
	  variable('DMA TOTAL MULTIPOLES')
  commands.

    Psi4 stopped on: Monday, 27 April 2020 01:26PM
    Psi4 wall time for execution: 0:02:46.52

*** Psi4 exiting successfully. Buy a developer a beer!
