                               Psi4 1.3.2 release

  ==> Input File <==

--------------------------------------------------------------------------
import numpy as np
set {scf_type pk
basis cc-pvdz
d_convergence 10
gdma_switch   0
gdma_limit    0
gdma_origin   [ 0.0,  0.0,  0.0 ]
}
molecule test {
    units Angstrom
    1 1
    --
    1 1
    C                0.303467541459921    -2.054263065732846     1.552944335752124
    C               -1.107532458540079    -1.831263065732846     2.022944335752124
    H                0.638467541459921    -3.060263065732846     1.803944335752124
    H                0.344467541459921    -1.950263065732846     0.468944335752124
    H                0.969467541459921    -1.324263065732846     2.009944335752124
    H               -1.735532458540079    -2.566263065732846     1.555944335752124
    H               -1.399532458540079    -0.854263065732846     1.639944335752124
    H               -1.240382458540079    -1.866263065732846     3.114331335752124
    C                0.292467541459921     0.717736934267154    -1.093055664247876
    C                1.583467541459921     1.570736934267154    -0.860055664247875
    N               -0.936532458540079     1.460736934267154    -1.482055664247876
    H                0.501467541459921     0.023736934267154    -1.913055664247876
    H                0.098467541459921     0.111736934267154    -0.202055664247876
    H                1.804467541459921     2.139736934267154    -1.765055664247876
    H                2.415467541459922     0.881736934267154    -0.704055664247876
    H               -0.832532458540079     1.873736934267154    -2.406055664247876
    H               -1.735532458540079     0.829736934267154    -1.490055664247876
    H               -1.144532458540079     2.217736934267154    -0.837055664247876
    H                1.565707541459921     2.263256934267154    -0.005594664247876

}
e, wfn = energy('scf', return_wfn=True)
gdma(wfn)
dmavals = variable('DMA DISTRIBUTED MULTIPOLES')
charges = np.array(dmavals)
print(charges)
np.save('SSI-212ILE-243LYS-1-dimer.npy', np.array(charges))--------------------------------------------------------------------------

*** tstart() called on ds3
*** at Mon Apr 27 10:30:27 2020

   => Loading Basis Set <=

    Name: CC-PVDZ
    Role: ORBITAL
    Keyword: BASIS
    atoms 1-2, 9-10  entry C          line   138 file /theoryfs2/ds/metcalf/miniconda2/envs/tf2gpu/share/psi4/basis/cc-pvdz.gbs
    atoms 3-8, 12-19 entry H          line    22 file /theoryfs2/ds/metcalf/miniconda2/envs/tf2gpu/share/psi4/basis/cc-pvdz.gbs
    atoms 11         entry N          line   168 file /theoryfs2/ds/metcalf/miniconda2/envs/tf2gpu/share/psi4/basis/cc-pvdz.gbs

         ---------------------------------------------------------
                                   SCF
               by Justin Turney, Rob Parrish, Andy Simmonett
                          and Daniel G. A. Smith
                              RHF Reference
                        1 Threads,    500 MiB Core
         ---------------------------------------------------------

  ==> Geometry <==

    Molecular point group: c1
    Full point group: C1

    Geometry (in Angstrom), charge = 1, multiplicity = 1:

       Center              X                  Y                   Z               Mass
    ------------   -----------------  -----------------  -----------------  -----------------
         C            0.303467541460    -2.054263065733     1.552944335752    12.000000000000
         C           -1.107532458540    -1.831263065733     2.022944335752    12.000000000000
         H            0.638467541460    -3.060263065733     1.803944335752     1.007825032230
         H            0.344467541460    -1.950263065733     0.468944335752     1.007825032230
         H            0.969467541460    -1.324263065733     2.009944335752     1.007825032230
         H           -1.735532458540    -2.566263065733     1.555944335752     1.007825032230
         H           -1.399532458540    -0.854263065733     1.639944335752     1.007825032230
         H           -1.240382458540    -1.866263065733     3.114331335752     1.007825032230
         C            0.292467541460     0.717736934267    -1.093055664248    12.000000000000
         C            1.583467541460     1.570736934267    -0.860055664248    12.000000000000
         N           -0.936532458540     1.460736934267    -1.482055664248    14.003074004430
         H            0.501467541460     0.023736934267    -1.913055664248     1.007825032230
         H            0.098467541460     0.111736934267    -0.202055664248     1.007825032230
         H            1.804467541460     2.139736934267    -1.765055664248     1.007825032230
         H            2.415467541460     0.881736934267    -0.704055664248     1.007825032230
         H           -0.832532458540     1.873736934267    -2.406055664248     1.007825032230
         H           -1.735532458540     0.829736934267    -1.490055664248     1.007825032230
         H           -1.144532458540     2.217736934267    -0.837055664248     1.007825032230
         H            1.565707541460     2.263256934267    -0.005594664248     1.007825032230

  Running in c1 symmetry.

  Rotational constants: A =      0.18572  B =      0.04432  C =      0.03804 [cm^-1]
  Rotational constants: A =   5567.70524  B =   1328.75357  C =   1140.54191 [MHz]
  Nuclear repulsion =  188.249693148598368

  Charge       = 1
  Multiplicity = 1
  Electrons    = 44
  Nalpha       = 22
  Nbeta        = 22

  ==> Algorithm <==

  SCF Algorithm Type is PK.
  DIIS enabled.
  MOM disabled.
  Fractional occupation disabled.
  Guess Type is SAD.
  Energy threshold   = 1.00e-06
  Density threshold  = 1.00e-10
  Integral threshold = 0.00e+00

  ==> Primary Basis <==

  Basis Set: CC-PVDZ
    Blend: CC-PVDZ
    Number of shells: 72
    Number of basis function: 140
    Number of Cartesian functions: 145
    Spherical Harmonics?: true
    Max angular momentum: 2

  ==> Pre-Iterations <==

   -------------------------------------------------------
    Irrep   Nso     Nmo     Nalpha   Nbeta   Ndocc  Nsocc
   -------------------------------------------------------
     A        140     140       0       0       0       0
   -------------------------------------------------------
    Total     140     140      22      22      22       0
   -------------------------------------------------------

  ==> Integral Setup <==

  Using integral reordering PK algorithm.
  Sizing the integral batches needed.
  Building batch lookup table.
   Calculation information:
      Number of atoms:                  19
      Number of AO shells:              72
      Number of primitives:            180
      Number of atomic orbitals:       145
      Number of basis functions:       140

      Integral cutoff                 1.00e-12
      Number of threads:                 1

	Batch   1 pq = [       0,    9405] index = [             0,44231715] size =     44231715
	Batch   2 pq = [    9405,    9870] index = [      44231715,48713385] size =      4481670
  Task number: 5
  Buffer size: 11059200
  Buffer per thread: 2
  We computed 2923613 shell quartets total.
  Whereas there are 3454506 unique shell quartets.

  ==> DiskJK: Disk-Based J/K Matrices <==

    J tasked:                  Yes
    K tasked:                  Yes
    wK tasked:                  No
    Memory [MiB]:              375
    Schwarz Cutoff:          1E-12

    OpenMP threads:              1

  Minimum eigenvalue in the overlap matrix is 5.6388242450E-03.
  Using Symmetric Orthogonalization.

  SCF Guess: Superposition of Atomic Densities via on-the-fly atomic UHF.

  ==> Iterations <==

                        Total Energy        Delta E     RMS |[F,P]|

   @RHF iter SAD:  -213.16480983090847   -2.13165e+02   0.00000e+00
   @RHF iter   1:  -213.68612422411906   -5.21314e-01   3.56592e-03 DIIS
   @RHF iter   2:  -213.83724411782259   -1.51120e-01   1.35362e-03 DIIS
   @RHF iter   3:  -213.85743602397301   -2.01919e-02   3.43921e-04 DIIS
   @RHF iter   4:  -213.85961273946805   -2.17672e-03   4.81327e-05 DIIS
   @RHF iter   5:  -213.85966036450776   -4.76250e-05   1.35828e-05 DIIS
   @RHF iter   6:  -213.85966344188611   -3.07738e-06   3.87345e-06 DIIS
   @RHF iter   7:  -213.85966367140597   -2.29520e-07   9.58163e-07 DIIS
   @RHF iter   8:  -213.85966369239543   -2.09895e-08   2.70178e-07 DIIS
   @RHF iter   9:  -213.85966369371474   -1.31931e-09   7.33819e-08 DIIS
   @RHF iter  10:  -213.85966369380617   -9.14326e-11   1.26228e-08 DIIS
   @RHF iter  11:  -213.85966369380830   -2.13163e-12   2.49635e-09 DIIS
   @RHF iter  12:  -213.85966369380856   -2.55795e-13   5.30307e-10 DIIS
   @RHF iter  13:  -213.85966369380884   -2.84217e-13   1.54093e-10 DIIS
   @RHF iter  14:  -213.85966369380893   -8.52651e-14   4.71942e-11 DIIS
  Energy and wave function converged.

  ==> Post-Iterations <==

    Orbital Energies [Eh]
    ---------------------

    Doubly Occupied:

       1A    -15.909016     2A    -11.484931     3A    -11.409565
       4A    -11.327497     5A    -11.325410     6A     -1.525542
       7A     -1.211154     8A     -1.139288     9A     -1.061449
      10A     -0.981971    11A     -0.971838    12A     -0.948007
      13A     -0.859872    14A     -0.792710    15A     -0.719946
      16A     -0.717088    17A     -0.715247    18A     -0.699472
      19A     -0.684621    20A     -0.618390    21A     -0.596738
      22A     -0.594289

    Virtual:

      23A     -0.055081    24A      0.011602    25A      0.016601
      26A      0.032302    27A      0.074346    28A      0.078210
      29A      0.104566    30A      0.118634    31A      0.127755
      32A      0.131180    33A      0.147870    34A      0.161650
      35A      0.175307    36A      0.191819    37A      0.198366
      38A      0.215619    39A      0.290065    40A      0.376919
      41A      0.392395    42A      0.432271    43A      0.444279
      44A      0.463975    45A      0.487638    46A      0.495293
      47A      0.525198    48A      0.568504    49A      0.576656
      50A      0.616483    51A      0.623856    52A      0.627293
      53A      0.667279    54A      0.682922    55A      0.714413
      56A      0.716628    57A      0.742817    58A      0.755597
      59A      0.763863    60A      0.777795    61A      0.781667
      62A      0.791474    63A      0.804218    64A      0.804956
      65A      0.826230    66A      0.841091    67A      0.863981
      68A      0.895945    69A      0.925282    70A      0.940258
      71A      1.011092    72A      1.023936    73A      1.115640
      74A      1.134918    75A      1.170043    76A      1.243351
      77A      1.297740    78A      1.349952    79A      1.375073
      80A      1.394759    81A      1.454210    82A      1.458744
      83A      1.490717    84A      1.519261    85A      1.571032
      86A      1.582241    87A      1.591376    88A      1.662697
      89A      1.685149    90A      1.701353    91A      1.718504
      92A      1.744501    93A      1.753595    94A      1.760473
      95A      1.776573    96A      1.791522    97A      1.797901
      98A      1.806442    99A      1.837283   100A      1.846522
     101A      1.848047   102A      1.863554   103A      1.878260
     104A      1.881066   105A      1.912174   106A      1.925466
     107A      1.950966   108A      1.982163   109A      1.990357
     110A      2.027437   111A      2.038758   112A      2.118753
     113A      2.158776   114A      2.170365   115A      2.194552
     116A      2.212255   117A      2.264787   118A      2.298180
     119A      2.343558   120A      2.353620   121A      2.371314
     122A      2.423485   123A      2.454183   124A      2.497802
     125A      2.523526   126A      2.542755   127A      2.586018
     128A      2.630107   129A      2.662760   130A      2.677319
     131A      2.694782   132A      2.730916   133A      2.743992
     134A      2.769605   135A      2.786405   136A      2.843467
     137A      2.875470   138A      2.886114   139A      3.080905
     140A      3.099210

    Final Occupation by Irrep:
              A
    DOCC [    22 ]

  @RHF Final Energy:  -213.85966369380893

   => Energetics <=

    Nuclear Repulsion Energy =            188.2496931485983680
    One-Electron Energy =                -651.6306288507519184
    Two-Electron Energy =                 249.5212720083446527
    Total Energy =                       -213.8596636938089262

Computation Completed

Properties will be evaluated at   0.000000,   0.000000,   0.000000 [a0]

Properties computed using the SCF density matrix

  Nuclear Dipole Moment: [e a0]
     X:     0.2370      Y:    -1.2044      Z:     1.1950

  Electronic Dipole Moment: [e a0]
     X:    -1.3126      Y:     3.5685      Z:    -3.6102

  Dipole Moment: [e a0]
     X:    -1.0756      Y:     2.3641      Z:    -2.4153     Total:     3.5468

  Dipole Moment: [D]
     X:    -2.7339      Y:     6.0090      Z:    -6.1391     Total:     9.0150

*** tstop() called on ds3 at Mon Apr 27 10:31:51 2020
Module time:
	user time   =      14.79 seconds =       0.25 minutes
	system time =       5.72 seconds =       0.10 minutes
	total time  =         84 seconds =       1.40 minutes
Total time:
	user time   =      14.79 seconds =       0.25 minutes
	system time =       5.72 seconds =       0.10 minutes
	total time  =         84 seconds =       1.40 minutes
                                     G D M A

                                 by Anthony Stone

                           version 2.2.06, 22 June 2011

               Distributed Multipoles from Gaussian wavefunctions

Starting at 10:31:51 on 27 Apr 2020

Using SCF density matrix from file ./SSI/SSI-212ILE-243LYS-1-dimer.test.2571.fchk

                         Distributed Multipole Analysis

Standard DMA

Positions and radii in angstrom
Multipole moments in atomic units, ea_0^k for rank k

C          x =  0.303468  y = -2.054263  z =  1.552944 angstrom
           Maximum rank =  0   Radius =  0.650 angstrom
                   Q00  =  -0.240720

C          x = -1.107532  y = -1.831263  z =  2.022944 angstrom
           Maximum rank =  0   Radius =  0.650 angstrom
                   Q00  =  -0.214612

H          x =  0.638468  y = -3.060263  z =  1.803944 angstrom
           Maximum rank =  0   Radius =  0.325 angstrom
                   Q00  =   0.112640

H          x =  0.344468  y = -1.950263  z =  0.468944 angstrom
           Maximum rank =  0   Radius =  0.325 angstrom
                   Q00  =   0.040910

H          x =  0.969468  y = -1.324263  z =  2.009944 angstrom
           Maximum rank =  0   Radius =  0.325 angstrom
                   Q00  =   0.075991

H          x = -1.735532  y = -2.566263  z =  1.555944 angstrom
           Maximum rank =  0   Radius =  0.325 angstrom
                   Q00  =   0.091510

H          x = -1.399532  y = -0.854263  z =  1.639944 angstrom
           Maximum rank =  0   Radius =  0.325 angstrom
                   Q00  =   0.020027

H          x = -1.240382  y = -1.866263  z =  3.114331 angstrom
           Maximum rank =  0   Radius =  0.325 angstrom
                   Q00  =   0.112019

C          x =  0.292468  y =  0.717737  z = -1.093056 angstrom
           Maximum rank =  0   Radius =  0.650 angstrom
                   Q00  =  -0.066266

C          x =  1.583468  y =  1.570737  z = -0.860056 angstrom
           Maximum rank =  0   Radius =  0.650 angstrom
                   Q00  =  -0.249033

N          x = -0.936532  y =  1.460737  z = -1.482056 angstrom
           Maximum rank =  0   Radius =  0.650 angstrom
                   Q00  =  -0.128053

H          x =  0.501468  y =  0.023737  z = -1.913056 angstrom
           Maximum rank =  0   Radius =  0.325 angstrom
                   Q00  =   0.125551

H          x =  0.098468  y =  0.111737  z = -0.202056 angstrom
           Maximum rank =  0   Radius =  0.325 angstrom
                   Q00  =   0.146122

H          x =  1.804468  y =  2.139737  z = -1.765056 angstrom
           Maximum rank =  0   Radius =  0.325 angstrom
                   Q00  =   0.109325

H          x =  2.415468  y =  0.881737  z = -0.704056 angstrom
           Maximum rank =  0   Radius =  0.325 angstrom
                   Q00  =   0.155549

H          x = -0.832532  y =  1.873737  z = -2.406056 angstrom
           Maximum rank =  0   Radius =  0.325 angstrom
                   Q00  =   0.260953

H          x = -1.735532  y =  0.829737  z = -1.490056 angstrom
           Maximum rank =  0   Radius =  0.325 angstrom
                   Q00  =   0.264990

H          x = -1.144532  y =  2.217737  z = -0.837056 angstrom
           Maximum rank =  0   Radius =  0.325 angstrom
                   Q00  =   0.258523

H          x =  1.565708  y =  2.263257  z = -0.005595 angstrom
           Maximum rank =  0   Radius =  0.325 angstrom
                   Q00  =   0.124576

Total multipoles referred to origin at
           x =   0.000000,  y =    0.000000,  z =    0.000000 angstrom
                   Q00  =   1.000000

Finished at 10:31:51 on 27 Apr 2020

  DMA results are available in the Python driver through the
	  variable('DMA DISTRIBUTED MULTIPOLES')
  and
	  variable('DMA TOTAL MULTIPOLES')
  commands.

    Psi4 stopped on: Monday, 27 April 2020 10:31AM
    Psi4 wall time for execution: 0:01:24.35

*** Psi4 exiting successfully. Buy a developer a beer!
