                               Psi4 1.3.2 release

  ==> Input File <==

--------------------------------------------------------------------------
import numpy as np
set {scf_type pk
basis cc-pvdz
d_convergence 10
gdma_switch   0
gdma_limit    0
gdma_origin   [ 0.0,  0.0,  0.0 ]
}
molecule test {
    units Angstrom
    0 1
    --
    0 1
    C               -1.944384141615010     1.314105652301991    -3.113243977117379
    C                0.036615858384990    -1.139894347698009    -1.300243977117379
    C               -0.857384141615010     0.435105652301991    -2.557243977117379
    C                0.479615858384990     0.395105652301991    -2.817243977117379
    N               -1.103384141615010    -0.521894347698009    -1.593243977117379
    N                1.018615858384990    -0.585894347698009    -2.002243977117379
    H                0.157615858384990    -1.926894347698009    -0.564243977117379
    H                1.996615858384990    -0.838894347698009    -1.931243977117379
    H                1.013615858384990     1.037105652301991    -3.504243977117379
    H               -1.621384141615010     2.344105652301991    -3.020243977117379
    H               -2.835384141615010     1.186105652301991    -2.495243977117378
    H               -2.213524141615010     1.110625652301991    -4.160220977117378
    C               -1.980384141615010     0.097105652301991     2.701756022882621
    C               -0.551384141615010     0.028105652301991     2.273756022882621
    C                0.189615858384990    -1.134894347698009     2.434756022882621
    C                0.049615858384990     1.152105652301991     1.695756022882621
    C                1.522615858384990    -1.174894347698009     2.019756022882621
    C                1.384615858384990     1.115105652301991     1.295756022882621
    C                2.126615858384990    -0.053894347698009     1.457756022882621
    H               -2.507384141615010    -0.772894347698009     2.305756022882621
    H               -2.436384141615010     0.970105652301991     2.247756022882621
    H               -0.264384141615010    -2.012894347698009     2.874756022882621
    H               -0.519384141615010     2.062105652301991     1.561756022882621
    H                2.091615858384990    -2.087894347698009     2.133756022882622
    H                1.840615858384990     1.990105652301991     0.854756022882621
    H                3.161615858384990    -0.089894347698009     1.145756022882621
    H               -2.112894141615010     0.119425652301991     3.793516022882621

}
e, wfn = energy('scf', return_wfn=True)
gdma(wfn)
dmavals = variable('DMA DISTRIBUTED MULTIPOLES')
charges = np.array(dmavals)
print(charges)
np.save('SSI-069HIE-078PHE-1-dimer.npy', np.array(charges))--------------------------------------------------------------------------

*** tstart() called on ds3
*** at Mon Apr 27 13:08:52 2020

   => Loading Basis Set <=

    Name: CC-PVDZ
    Role: ORBITAL
    Keyword: BASIS
    atoms 1-4, 13-19  entry C          line   138 file /theoryfs2/ds/metcalf/miniconda2/envs/tf2gpu/share/psi4/basis/cc-pvdz.gbs
    atoms 5-6         entry N          line   168 file /theoryfs2/ds/metcalf/miniconda2/envs/tf2gpu/share/psi4/basis/cc-pvdz.gbs
    atoms 7-12, 20-27 entry H          line    22 file /theoryfs2/ds/metcalf/miniconda2/envs/tf2gpu/share/psi4/basis/cc-pvdz.gbs

         ---------------------------------------------------------
                                   SCF
               by Justin Turney, Rob Parrish, Andy Simmonett
                          and Daniel G. A. Smith
                              RHF Reference
                        1 Threads,    500 MiB Core
         ---------------------------------------------------------

  ==> Geometry <==

    Molecular point group: c1
    Full point group: C1

    Geometry (in Angstrom), charge = 0, multiplicity = 1:

       Center              X                  Y                   Z               Mass
    ------------   -----------------  -----------------  -----------------  -----------------
         C           -1.944384141615     1.314105652302    -3.113243977117    12.000000000000
         C            0.036615858385    -1.139894347698    -1.300243977117    12.000000000000
         C           -0.857384141615     0.435105652302    -2.557243977117    12.000000000000
         C            0.479615858385     0.395105652302    -2.817243977117    12.000000000000
         N           -1.103384141615    -0.521894347698    -1.593243977117    14.003074004430
         N            1.018615858385    -0.585894347698    -2.002243977117    14.003074004430
         H            0.157615858385    -1.926894347698    -0.564243977117     1.007825032230
         H            1.996615858385    -0.838894347698    -1.931243977117     1.007825032230
         H            1.013615858385     1.037105652302    -3.504243977117     1.007825032230
         H           -1.621384141615     2.344105652302    -3.020243977117     1.007825032230
         H           -2.835384141615     1.186105652302    -2.495243977117     1.007825032230
         H           -2.213524141615     1.110625652302    -4.160220977117     1.007825032230
         C           -1.980384141615     0.097105652302     2.701756022883    12.000000000000
         C           -0.551384141615     0.028105652302     2.273756022883    12.000000000000
         C            0.189615858385    -1.134894347698     2.434756022883    12.000000000000
         C            0.049615858385     1.152105652302     1.695756022883    12.000000000000
         C            1.522615858385    -1.174894347698     2.019756022883    12.000000000000
         C            1.384615858385     1.115105652302     1.295756022883    12.000000000000
         C            2.126615858385    -0.053894347698     1.457756022883    12.000000000000
         H           -2.507384141615    -0.772894347698     2.305756022883     1.007825032230
         H           -2.436384141615     0.970105652302     2.247756022883     1.007825032230
         H           -0.264384141615    -2.012894347698     2.874756022883     1.007825032230
         H           -0.519384141615     2.062105652302     1.561756022883     1.007825032230
         H            2.091615858385    -2.087894347698     2.133756022883     1.007825032230
         H            1.840615858385     1.990105652302     0.854756022883     1.007825032230
         H            3.161615858385    -0.089894347698     1.145756022883     1.007825032230
         H           -2.112894141615     0.119425652302     3.793516022883     1.007825032230

  Running in c1 symmetry.

  Rotational constants: A =      0.04038  B =      0.01693  C =      0.01449 [cm^-1]
  Rotational constants: A =   1210.52319  B =    507.48855  C =    434.34664 [MHz]
  Nuclear repulsion =  740.733767725435314

  Charge       = 0
  Multiplicity = 1
  Electrons    = 94
  Nalpha       = 47
  Nbeta        = 47

  ==> Algorithm <==

  SCF Algorithm Type is PK.
  DIIS enabled.
  MOM disabled.
  Fractional occupation disabled.
  Guess Type is SAD.
  Energy threshold   = 1.00e-06
  Density threshold  = 1.00e-10
  Integral threshold = 0.00e+00

  ==> Primary Basis <==

  Basis Set: CC-PVDZ
    Blend: CC-PVDZ
    Number of shells: 120
    Number of basis function: 252
    Number of Cartesian functions: 265
    Spherical Harmonics?: true
    Max angular momentum: 2

  ==> Pre-Iterations <==

   -------------------------------------------------------
    Irrep   Nso     Nmo     Nalpha   Nbeta   Ndocc  Nsocc
   -------------------------------------------------------
     A        252     252       0       0       0       0
   -------------------------------------------------------
    Total     252     252      47      47      47       0
   -------------------------------------------------------

  ==> Integral Setup <==

  Using integral reordering PK algorithm.
  Sizing the integral batches needed.
  Building batch lookup table.
   Calculation information:
      Number of atoms:                  27
      Number of AO shells:             120
      Number of primitives:            356
      Number of atomic orbitals:       265
      Number of basis functions:       252

      Integral cutoff                 1.00e-12
      Number of threads:                 1

	Batch   1 pq = [       0,    9405] index = [             0,44231715] size =     44231715
	Batch   2 pq = [    9405,   13301] index = [      44231715,88464951] size =     44233236
	Batch   3 pq = [   13301,   16290] index = [      88464951,132690195] size =     44225244
	Batch   4 pq = [   16290,   18810] index = [     132690195,176917455] size =     44227260
	Batch   5 pq = [   18810,   21030] index = [     176917455,221140965] size =     44223510
	Batch   6 pq = [   21030,   23037] index = [     221140965,265363203] size =     44222238
	Batch   7 pq = [   23037,   24883] index = [     265363203,309594286] size =     44231083
	Batch   8 pq = [   24883,   26601] index = [     309594286,353819901] size =     44225615
	Batch   9 pq = [   26601,   28214] index = [     353819901,398029005] size =     44209104
	Batch  10 pq = [   28214,   29740] index = [     398029005,442248670] size =     44219665
	Batch  11 pq = [   29740,   31191] index = [     442248670,486454836] size =     44206166
	Batch  12 pq = [   31191,   31878] index = [     486454836,508119381] size =     21664545
  Task number: 46
  Buffer size: 11059200
  Buffer per thread: 2
  We computed 27471542 shell quartets total.
  Whereas there are 26357430 unique shell quartets.
     4.23 percent of shell quartets recomputed by reordering.

  ==> DiskJK: Disk-Based J/K Matrices <==

    J tasked:                  Yes
    K tasked:                  Yes
    wK tasked:                  No
    Memory [MiB]:              375
    Schwarz Cutoff:          1E-12

    OpenMP threads:              1

  Minimum eigenvalue in the overlap matrix is 3.1561112226E-04.
  Using Symmetric Orthogonalization.

  SCF Guess: Superposition of Atomic Densities via on-the-fly atomic UHF.

  ==> Iterations <==

                        Total Energy        Delta E     RMS |[F,P]|

   @RHF iter SAD:  -532.69731294917437   -5.32697e+02   0.00000e+00
   @RHF iter   1:  -533.34689088840423   -6.49578e-01   2.56464e-03 DIIS
   @RHF iter   2:  -533.57660936925197   -2.29718e-01   1.25089e-03 DIIS
   @RHF iter   3:  -533.62455264438404   -4.79433e-02   3.42356e-04 DIIS
   @RHF iter   4:  -533.62902935387353   -4.47671e-03   1.43369e-04 DIIS
   @RHF iter   5:  -533.62975358849508   -7.24235e-04   2.04574e-05 DIIS
   @RHF iter   6:  -533.62977793118284   -2.43427e-05   8.18678e-06 DIIS
   @RHF iter   7:  -533.62978179070865   -3.85953e-06   2.70077e-06 DIIS
   @RHF iter   8:  -533.62978246984721   -6.79139e-07   1.15276e-06 DIIS
   @RHF iter   9:  -533.62978261099829   -1.41151e-07   4.93393e-07 DIIS
   @RHF iter  10:  -533.62978263697391   -2.59756e-08   1.51291e-07 DIIS
   @RHF iter  11:  -533.62978263952277   -2.54886e-09   6.05873e-08 DIIS
   @RHF iter  12:  -533.62978263991909   -3.96312e-10   2.64343e-08 DIIS
   @RHF iter  13:  -533.62978263999116   -7.20775e-11   7.75979e-09 DIIS
   @RHF iter  14:  -533.62978263999662   -5.45697e-12   3.13153e-09 DIIS
   @RHF iter  15:  -533.62978264000344   -6.82121e-12   1.35069e-09 DIIS
   @RHF iter  16:  -533.62978264000196    1.47793e-12   5.36863e-10 DIIS
   @RHF iter  17:  -533.62978263999946    2.50111e-12   2.48149e-10 DIIS
   @RHF iter  18:  -533.62978264000060   -1.13687e-12   9.27158e-11 DIIS
  Energy and wave function converged.

  ==> Post-Iterations <==

    Orbital Energies [Eh]
    ---------------------

    Doubly Occupied:

       1A    -15.611928     2A    -15.518742     3A    -11.281949
       4A    -11.242747     5A    -11.238203     6A    -11.237692
       7A    -11.235891     8A    -11.235705     9A    -11.232899
      10A    -11.230071    11A    -11.229073    12A    -11.221783
      13A    -11.218992    14A     -1.329764    15A     -1.151814
      16A     -1.143509    17A     -1.044529    18A     -1.021055
      19A     -1.010480    20A     -0.934496    21A     -0.928725
      22A     -0.824719    23A     -0.808334    24A     -0.793899
      25A     -0.751963    26A     -0.732073    27A     -0.690593
      28A     -0.631115    29A     -0.629589    30A     -0.601102
      31A     -0.594191    32A     -0.588391    33A     -0.581842
      34A     -0.572035    35A     -0.563028    36A     -0.549008
      37A     -0.532422    38A     -0.530350    39A     -0.513601
      40A     -0.484547    41A     -0.483740    42A     -0.481001
      43A     -0.401556    44A     -0.370597    45A     -0.331300
      46A     -0.320395    47A     -0.299444

    Virtual:

      48A      0.134700    49A      0.140009    50A      0.167853
      51A      0.191162    52A      0.195051    53A      0.202248
      54A      0.210912    55A      0.217531    56A      0.237490
      57A      0.243659    58A      0.247280    59A      0.257017
      60A      0.259603    61A      0.268972    62A      0.278585
      63A      0.281127    64A      0.299648    65A      0.305754
      66A      0.365574    67A      0.379988    68A      0.380896
      69A      0.400259    70A      0.415510    71A      0.448787
      72A      0.460334    73A      0.470408    74A      0.478224
      75A      0.487937    76A      0.502254    77A      0.568421
      78A      0.593329    79A      0.604396    80A      0.621951
      81A      0.639710    82A      0.646505    83A      0.660003
      84A      0.663234    85A      0.680728    86A      0.691416
      87A      0.703157    88A      0.711121    89A      0.723889
      90A      0.736780    91A      0.744453    92A      0.745128
      93A      0.751873    94A      0.757927    95A      0.759887
      96A      0.780790    97A      0.787576    98A      0.814930
      99A      0.822286   100A      0.830709   101A      0.845421
     102A      0.861218   103A      0.864564   104A      0.869721
     105A      0.876899   106A      0.883230   107A      0.890407
     108A      0.897096   109A      0.900317   110A      0.912135
     111A      0.921306   112A      0.929372   113A      0.934782
     114A      0.939498   115A      0.948559   116A      0.974761
     117A      0.977555   118A      0.985511   119A      1.001239
     120A      1.020996   121A      1.035009   122A      1.051824
     123A      1.080262   124A      1.102027   125A      1.110843
     126A      1.127379   127A      1.132138   128A      1.143666
     129A      1.148167   130A      1.155356   131A      1.175653
     132A      1.177208   133A      1.214799   134A      1.233185
     135A      1.242046   136A      1.251526   137A      1.260180
     138A      1.261776   139A      1.280591   140A      1.296284
     141A      1.302843   142A      1.315309   143A      1.323976
     144A      1.327456   145A      1.346219   146A      1.354222
     147A      1.414443   148A      1.436175   149A      1.470381
     150A      1.486691   151A      1.507527   152A      1.525039
     153A      1.532377   154A      1.562277   155A      1.581122
     156A      1.606505   157A      1.622605   158A      1.662581
     159A      1.687985   160A      1.695233   161A      1.699489
     162A      1.727040   163A      1.737985   164A      1.751222
     165A      1.771994   166A      1.790705   167A      1.803674
     168A      1.814191   169A      1.836799   170A      1.846899
     171A      1.858245   172A      1.876775   173A      1.885332
     174A      1.902266   175A      1.909029   176A      1.911578
     177A      1.920866   178A      1.925426   179A      1.933115
     180A      1.939731   181A      1.946137   182A      1.955447
     183A      1.961343   184A      1.962482   185A      1.970627
     186A      1.979551   187A      1.997473   188A      2.008604
     189A      2.020655   190A      2.045043   191A      2.055806
     192A      2.079813   193A      2.089058   194A      2.106639
     195A      2.117816   196A      2.134860   197A      2.155369
     198A      2.159275   199A      2.172085   200A      2.182820
     201A      2.198231   202A      2.216002   203A      2.242337
     204A      2.257899   205A      2.272126   206A      2.275255
     207A      2.287389   208A      2.301285   209A      2.312466
     210A      2.324198   211A      2.352437   212A      2.357014
     213A      2.377234   214A      2.419888   215A      2.455544
     216A      2.463010   217A      2.476962   218A      2.496232
     219A      2.522980   220A      2.540151   221A      2.584258
     222A      2.617496   223A      2.632453   224A      2.677690
     225A      2.735308   226A      2.743904   227A      2.756329
     228A      2.770326   229A      2.781075   230A      2.785618
     231A      2.797452   232A      2.806005   233A      2.807312
     234A      2.835668   235A      2.856579   236A      2.877481
     237A      2.884670   238A      2.893454   239A      2.940122
     240A      2.971023   241A      2.981558   242A      3.011696
     243A      3.031864   244A      3.069180   245A      3.157745
     246A      3.160969   247A      3.199234   248A      3.237595
     249A      3.297016   250A      3.469763   251A      3.805075
     252A      3.966766

    Final Occupation by Irrep:
              A
    DOCC [    47 ]

  @RHF Final Energy:  -533.62978264000060

   => Energetics <=

    Nuclear Repulsion Energy =            740.7337677254353139
    One-Electron Energy =               -2192.8053367060865639
    Two-Electron Energy =                 918.4417863406505376
    Total Energy =                       -533.6297826400005988

Computation Completed

Properties will be evaluated at   0.000000,   0.000000,   0.000000 [a0]

Properties computed using the SCF density matrix

  Nuclear Dipole Moment: [e a0]
     X:    -3.9831      Y:     2.9003      Z:     1.1751

  Electronic Dipole Moment: [e a0]
     X:     5.0626      Y:    -2.8941      Z:    -1.2525

  Dipole Moment: [e a0]
     X:     1.0795      Y:     0.0062      Z:    -0.0774     Total:     1.0823

  Dipole Moment: [D]
     X:     2.7438      Y:     0.0158      Z:    -0.1967     Total:     2.7509

*** tstop() called on ds3 at Mon Apr 27 13:14:13 2020
Module time:
	user time   =     247.05 seconds =       4.12 minutes
	system time =      86.42 seconds =       1.44 minutes
	total time  =        321 seconds =       5.35 minutes
Total time:
	user time   =     247.05 seconds =       4.12 minutes
	system time =      86.42 seconds =       1.44 minutes
	total time  =        321 seconds =       5.35 minutes
                                     G D M A

                                 by Anthony Stone

                           version 2.2.06, 22 June 2011

               Distributed Multipoles from Gaussian wavefunctions

Starting at 13:14:13 on 27 Apr 2020

Using SCF density matrix from file ./SSI/SSI-069HIE-078PHE-1-dimer.test.5539.fchk

                         Distributed Multipole Analysis

Standard DMA

Positions and radii in angstrom
Multipole moments in atomic units, ea_0^k for rank k

C          x = -1.944384  y =  1.314106  z = -3.113244 angstrom
           Maximum rank =  0   Radius =  0.650 angstrom
                   Q00  =  -0.202389

C          x =  0.036616  y = -1.139894  z = -1.300244 angstrom
           Maximum rank =  0   Radius =  0.650 angstrom
                   Q00  =   0.480284

C          x = -0.857384  y =  0.435106  z = -2.557244 angstrom
           Maximum rank =  0   Radius =  0.650 angstrom
                   Q00  =   0.235073

C          x =  0.479616  y =  0.395106  z = -2.817244 angstrom
           Maximum rank =  0   Radius =  0.650 angstrom
                   Q00  =  -0.008537

N          x = -1.103384  y = -0.521894  z = -1.593244 angstrom
           Maximum rank =  0   Radius =  0.650 angstrom
                   Q00  =  -0.781973

N          x =  1.018616  y = -0.585894  z = -2.002244 angstrom
           Maximum rank =  0   Radius =  0.650 angstrom
                   Q00  =  -0.473609

H          x =  0.157616  y = -1.926894  z = -0.564244 angstrom
           Maximum rank =  0   Radius =  0.325 angstrom
                   Q00  =   0.127043

H          x =  1.996616  y = -0.838894  z = -1.931244 angstrom
           Maximum rank =  0   Radius =  0.325 angstrom
                   Q00  =   0.218077

H          x =  1.013616  y =  1.037106  z = -3.504244 angstrom
           Maximum rank =  0   Radius =  0.325 angstrom
                   Q00  =   0.095328

H          x = -1.621384  y =  2.344106  z = -3.020244 angstrom
           Maximum rank =  0   Radius =  0.325 angstrom
                   Q00  =   0.094998

H          x = -2.835384  y =  1.186106  z = -2.495244 angstrom
           Maximum rank =  0   Radius =  0.325 angstrom
                   Q00  =   0.119377

H          x = -2.213524  y =  1.110626  z = -4.160221 angstrom
           Maximum rank =  0   Radius =  0.325 angstrom
                   Q00  =   0.100455

C          x = -1.980384  y =  0.097106  z =  2.701756 angstrom
           Maximum rank =  0   Radius =  0.650 angstrom
                   Q00  =  -0.201298

C          x = -0.551384  y =  0.028106  z =  2.273756 angstrom
           Maximum rank =  0   Radius =  0.650 angstrom
                   Q00  =  -0.079826

C          x =  0.189616  y = -1.134894  z =  2.434756 angstrom
           Maximum rank =  0   Radius =  0.650 angstrom
                   Q00  =  -0.092038

C          x =  0.049616  y =  1.152106  z =  1.695756 angstrom
           Maximum rank =  0   Radius =  0.650 angstrom
                   Q00  =  -0.064522

C          x =  1.522616  y = -1.174894  z =  2.019756 angstrom
           Maximum rank =  0   Radius =  0.650 angstrom
                   Q00  =  -0.007384

C          x =  1.384616  y =  1.115106  z =  1.295756 angstrom
           Maximum rank =  0   Radius =  0.650 angstrom
                   Q00  =  -0.070594

C          x =  2.126616  y = -0.053894  z =  1.457756 angstrom
           Maximum rank =  0   Radius =  0.650 angstrom
                   Q00  =  -0.092804

H          x = -2.507384  y = -0.772894  z =  2.305756 angstrom
           Maximum rank =  0   Radius =  0.325 angstrom
                   Q00  =   0.104566

H          x = -2.436384  y =  0.970106  z =  2.247756 angstrom
           Maximum rank =  0   Radius =  0.325 angstrom
                   Q00  =   0.102292

H          x = -0.264384  y = -2.012894  z =  2.874756 angstrom
           Maximum rank =  0   Radius =  0.325 angstrom
                   Q00  =   0.056984

H          x = -0.519384  y =  2.062106  z =  1.561756 angstrom
           Maximum rank =  0   Radius =  0.325 angstrom
                   Q00  =   0.062623

H          x =  2.091616  y = -2.087894  z =  2.133756 angstrom
           Maximum rank =  0   Radius =  0.325 angstrom
                   Q00  =   0.059365

H          x =  1.840616  y =  1.990106  z =  0.854756 angstrom
           Maximum rank =  0   Radius =  0.325 angstrom
                   Q00  =   0.065503

H          x =  3.161616  y = -0.089894  z =  1.145756 angstrom
           Maximum rank =  0   Radius =  0.325 angstrom
                   Q00  =   0.053774

H          x = -2.112894  y =  0.119426  z =  3.793516 angstrom
           Maximum rank =  0   Radius =  0.325 angstrom
                   Q00  =   0.099233

Total multipoles referred to origin at
           x =   0.000000,  y =    0.000000,  z =    0.000000 angstrom
                   Q00  =  -0.000000

Finished at 13:14:13 on 27 Apr 2020

  DMA results are available in the Python driver through the
	  variable('DMA DISTRIBUTED MULTIPOLES')
  and
	  variable('DMA TOTAL MULTIPOLES')
  commands.

    Psi4 stopped on: Monday, 27 April 2020 01:14PM
    Psi4 wall time for execution: 0:05:21.18

*** Psi4 exiting successfully. Buy a developer a beer!
