                               Psi4 1.3.2 release

  ==> Input File <==

--------------------------------------------------------------------------
import numpy as np
set {scf_type pk
basis cc-pvdz
d_convergence 10
gdma_switch   0
gdma_limit    0
gdma_origin   [ 0.0,  0.0,  0.0 ]
}
molecule test {
    units Angstrom
    0 1
    --
    0 1
    C               -1.540035035061085    -2.265890108616341    -0.194595424833170
    C               -1.606035035061085    -3.624890108616341     0.610404575166829
    H               -2.456035035061085    -2.115890108616341    -0.765595424833171
    H               -1.423035035061085    -1.426890108616341     0.492404575166830
    H               -0.699035035061085    -2.266890108616340    -0.880595424833171
    H               -2.451035035061085    -3.596890108616341     1.299404575166829
    H               -0.689035035061085    -3.752890108616341     1.188404575166830
    H               -1.724915035061085    -4.526590108616340    -0.008365424833171
    C                0.908964964938915     1.448109891383659    -2.479595424833171
    C               -0.732035035061085     1.307109891383659     1.036404575166829
    C               -0.536035035061085     1.560109891383660    -0.347595424833171
    C                0.255964964938915     0.613109891383659     1.763404575166830
    C                0.625964964938915     1.127109891383659    -1.004595424833171
    C                1.414964964938915     0.178109891383659     1.113404575166830
    C                1.587964964938915     0.432109891383659    -0.260595424833170
    H               -1.631035035061085     1.645109891383659     1.541404575166829
    H               -1.284035035061085     2.097109891383659    -0.915595424833171
    H                0.125964964938915     0.415109891383659     2.819404575166830
    H                2.176964964938915    -0.347890108616341     1.668404575166829
    H                1.725964964938915     0.799109891383660    -2.801595424833170
    H                1.255964964938915     2.483109891383659    -2.519595424833171
    H                2.481964964938915     0.088109891383659    -0.764595424833171
    H                0.070494964938915     1.278609891383659    -3.171135424833170

}
e, wfn = energy('scf', return_wfn=True)
gdma(wfn)
dmavals = variable('DMA DISTRIBUTED MULTIPOLES')
charges = np.array(dmavals)
print(charges)
np.save('SSI-101ILE-110PHE-1-dimer.npy', np.array(charges))--------------------------------------------------------------------------

*** tstart() called on ds3
*** at Tue Apr 28 04:26:57 2020

   => Loading Basis Set <=

    Name: CC-PVDZ
    Role: ORBITAL
    Keyword: BASIS
    atoms 1-2, 9-15  entry C          line   138 file /theoryfs2/ds/metcalf/miniconda2/envs/tf2gpu/share/psi4/basis/cc-pvdz.gbs
    atoms 3-8, 16-23 entry H          line    22 file /theoryfs2/ds/metcalf/miniconda2/envs/tf2gpu/share/psi4/basis/cc-pvdz.gbs

         ---------------------------------------------------------
                                   SCF
               by Justin Turney, Rob Parrish, Andy Simmonett
                          and Daniel G. A. Smith
                              RHF Reference
                        1 Threads,    500 MiB Core
         ---------------------------------------------------------

  ==> Geometry <==

    Molecular point group: c1
    Full point group: C1

    Geometry (in Angstrom), charge = 0, multiplicity = 1:

       Center              X                  Y                   Z               Mass
    ------------   -----------------  -----------------  -----------------  -----------------
         C           -1.540035035061    -2.265890108616    -0.194595424833    12.000000000000
         C           -1.606035035061    -3.624890108616     0.610404575167    12.000000000000
         H           -2.456035035061    -2.115890108616    -0.765595424833     1.007825032230
         H           -1.423035035061    -1.426890108616     0.492404575167     1.007825032230
         H           -0.699035035061    -2.266890108616    -0.880595424833     1.007825032230
         H           -2.451035035061    -3.596890108616     1.299404575167     1.007825032230
         H           -0.689035035061    -3.752890108616     1.188404575167     1.007825032230
         H           -1.724915035061    -4.526590108616    -0.008365424833     1.007825032230
         C            0.908964964939     1.448109891384    -2.479595424833    12.000000000000
         C           -0.732035035061     1.307109891384     1.036404575167    12.000000000000
         C           -0.536035035061     1.560109891384    -0.347595424833    12.000000000000
         C            0.255964964939     0.613109891384     1.763404575167    12.000000000000
         C            0.625964964939     1.127109891384    -1.004595424833    12.000000000000
         C            1.414964964939     0.178109891384     1.113404575167    12.000000000000
         C            1.587964964939     0.432109891384    -0.260595424833    12.000000000000
         H           -1.631035035061     1.645109891384     1.541404575167     1.007825032230
         H           -1.284035035061     2.097109891384    -0.915595424833     1.007825032230
         H            0.125964964939     0.415109891384     2.819404575167     1.007825032230
         H            2.176964964939    -0.347890108616     1.668404575167     1.007825032230
         H            1.725964964939     0.799109891384    -2.801595424833     1.007825032230
         H            1.255964964939     2.483109891384    -2.519595424833     1.007825032230
         H            2.481964964939     0.088109891384    -0.764595424833     1.007825032230
         H            0.070494964939     1.278609891384    -3.171135424833     1.007825032230

  Running in c1 symmetry.

  Rotational constants: A =      0.06124  B =      0.02847  C =      0.02498 [cm^-1]
  Rotational constants: A =   1836.00432  B =    853.43019  C =    748.76699 [MHz]
  Nuclear repulsion =  409.977678487519086

  Charge       = 0
  Multiplicity = 1
  Electrons    = 68
  Nalpha       = 34
  Nbeta        = 34

  ==> Algorithm <==

  SCF Algorithm Type is PK.
  DIIS enabled.
  MOM disabled.
  Fractional occupation disabled.
  Guess Type is SAD.
  Energy threshold   = 1.00e-06
  Density threshold  = 1.00e-10
  Integral threshold = 0.00e+00

  ==> Primary Basis <==

  Basis Set: CC-PVDZ
    Blend: CC-PVDZ
    Number of shells: 96
    Number of basis function: 196
    Number of Cartesian functions: 205
    Spherical Harmonics?: true
    Max angular momentum: 2

  ==> Pre-Iterations <==

   -------------------------------------------------------
    Irrep   Nso     Nmo     Nalpha   Nbeta   Ndocc  Nsocc
   -------------------------------------------------------
     A        196     196       0       0       0       0
   -------------------------------------------------------
    Total     196     196      34      34      34       0
   -------------------------------------------------------

  ==> Integral Setup <==

  Using integral reordering PK algorithm.
  Sizing the integral batches needed.
  Building batch lookup table.
   Calculation information:
      Number of atoms:                  23
      Number of AO shells:              96
      Number of primitives:            268
      Number of atomic orbitals:       205
      Number of basis functions:       196

      Integral cutoff                 1.00e-12
      Number of threads:                 1

	Batch   1 pq = [       0,    9405] index = [             0,44231715] size =     44231715
	Batch   2 pq = [    9405,   13301] index = [      44231715,88464951] size =     44233236
	Batch   3 pq = [   13301,   16290] index = [      88464951,132690195] size =     44225244
	Batch   4 pq = [   16290,   18810] index = [     132690195,176917455] size =     44227260
	Batch   5 pq = [   18810,   19306] index = [     176917455,186370471] size =      9453016
  Task number: 17
  Buffer size: 11059200
  Buffer per thread: 2
  We computed 9971588 shell quartets total.
  Whereas there are 10841496 unique shell quartets.

  ==> DiskJK: Disk-Based J/K Matrices <==

    J tasked:                  Yes
    K tasked:                  Yes
    wK tasked:                  No
    Memory [MiB]:              375
    Schwarz Cutoff:          1E-12

    OpenMP threads:              1

  Minimum eigenvalue in the overlap matrix is 3.3672749425E-04.
  Using Symmetric Orthogonalization.

  SCF Guess: Superposition of Atomic Densities via on-the-fly atomic UHF.

  ==> Iterations <==

                        Total Energy        Delta E     RMS |[F,P]|

   @RHF iter SAD:  -347.57789209691254   -3.47578e+02   0.00000e+00
   @RHF iter   1:  -348.77558467727124   -1.19769e+00   2.79702e-03 DIIS
   @RHF iter   2:  -348.95891465096042   -1.83330e-01   1.13539e-03 DIIS
   @RHF iter   3:  -348.98619222422792   -2.72776e-02   2.51563e-04 DIIS
   @RHF iter   4:  -348.98855274169523   -2.36052e-03   5.14852e-05 DIIS
   @RHF iter   5:  -348.98862200205053   -6.92604e-05   1.80252e-05 DIIS
   @RHF iter   6:  -348.98863002001184   -8.01796e-06   4.69648e-06 DIIS
   @RHF iter   7:  -348.98863064251861   -6.22507e-07   1.20654e-06 DIIS
   @RHF iter   8:  -348.98863069213081   -4.96122e-08   2.98921e-07 DIIS
   @RHF iter   9:  -348.98863069786569   -5.73488e-09   1.35184e-07 DIIS
   @RHF iter  10:  -348.98863069906560   -1.19991e-09   6.27386e-08 DIIS
   @RHF iter  11:  -348.98863069951244   -4.46846e-10   2.80876e-08 DIIS
   @RHF iter  12:  -348.98863069960748   -9.50422e-11   1.32876e-08 DIIS
   @RHF iter  13:  -348.98863069962653   -1.90425e-11   3.85242e-09 DIIS
   @RHF iter  14:  -348.98863069962812   -1.59162e-12   1.12904e-09 DIIS
   @RHF iter  15:  -348.98863069962982   -1.70530e-12   4.35820e-10 DIIS
   @RHF iter  16:  -348.98863069962584    3.97904e-12   1.81389e-10 DIIS
   @RHF iter  17:  -348.98863069962698   -1.13687e-12   7.49570e-11 DIIS
  Energy and wave function converged.

  ==> Post-Iterations <==

    Orbital Energies [Eh]
    ---------------------

    Doubly Occupied:

       1A    -11.246662     2A    -11.243438     3A    -11.239619
       4A    -11.237282     5A    -11.236556     6A    -11.234836
       7A    -11.234787     8A    -11.214087     9A    -11.208008
      10A     -1.144748    11A     -1.039803    12A     -1.004988
      13A     -0.994756    14A     -0.930594    15A     -0.834428
      16A     -0.825002    17A     -0.792747    18A     -0.688267
      19A     -0.632705    20A     -0.625050    21A     -0.582563
      22A     -0.579991    23A     -0.578720    24A     -0.577136
      25A     -0.561862    26A     -0.534143    27A     -0.495171
      28A     -0.485313    29A     -0.482202    30A     -0.480583
      31A     -0.477120    32A     -0.471660    33A     -0.328330
      34A     -0.323314

    Virtual:

      35A      0.130388    36A      0.139014    37A      0.178051
      38A      0.197131    39A      0.204065    40A      0.216142
      41A      0.242087    42A      0.248500    43A      0.251365
      44A      0.260576    45A      0.267599    46A      0.273088
      47A      0.274266    48A      0.292456    49A      0.298575
      50A      0.317177    51A      0.356793    52A      0.368709
      53A      0.391525    54A      0.444240    55A      0.455807
      56A      0.469932    57A      0.489327    58A      0.563044
      59A      0.580560    60A      0.592640    61A      0.602329
      62A      0.604020    63A      0.642652    64A      0.657955
      65A      0.668363    66A      0.688600    67A      0.697695
      68A      0.702609    69A      0.731265    70A      0.737227
      71A      0.739088    72A      0.746538    73A      0.763215
      74A      0.775500    75A      0.794900    76A      0.825145
      77A      0.845894    78A      0.848174    79A      0.861641
      80A      0.863072    81A      0.879410    82A      0.887164
      83A      0.890093    84A      0.892028    85A      0.900295
      86A      0.904322    87A      0.913176    88A      0.918547
      89A      0.928217    90A      0.932700    91A      0.940730
      92A      0.966268    93A      0.981171    94A      0.989626
      95A      1.043403    96A      1.063359    97A      1.108329
      98A      1.128452    99A      1.139177   100A      1.146589
     101A      1.149077   102A      1.161600   103A      1.188640
     104A      1.219793   105A      1.231671   106A      1.244486
     107A      1.251142   108A      1.280756   109A      1.286879
     110A      1.307905   111A      1.313469   112A      1.321307
     113A      1.411377   114A      1.452246   115A      1.474082
     116A      1.493647   117A      1.517609   118A      1.544922
     119A      1.585950   120A      1.611059   121A      1.661863
     122A      1.695103   123A      1.700727   124A      1.707445
     125A      1.730422   126A      1.735936   127A      1.753570
     128A      1.782654   129A      1.799282   130A      1.848296
     131A      1.853028   132A      1.869509   133A      1.873094
     134A      1.894148   135A      1.903524   136A      1.905429
     137A      1.914526   138A      1.920673   139A      1.926925
     140A      1.937113   141A      1.939704   142A      1.945386
     143A      1.954397   144A      1.961959   145A      1.964827
     146A      1.972435   147A      1.981187   148A      2.005210
     149A      2.021376   150A      2.068191   151A      2.074395
     152A      2.085669   153A      2.104202   154A      2.114079
     155A      2.120329   156A      2.137681   157A      2.152726
     158A      2.161990   159A      2.171809   160A      2.251404
     161A      2.256993   162A      2.279552   163A      2.285535
     164A      2.301153   165A      2.323366   166A      2.325751
     167A      2.339057   168A      2.430025   169A      2.453973
     170A      2.460975   171A      2.471207   172A      2.482549
     173A      2.516453   174A      2.547318   175A      2.574884
     176A      2.615242   177A      2.719232   178A      2.735365
     179A      2.761200   180A      2.769255   181A      2.769787
     182A      2.795947   183A      2.803487   184A      2.828351
     185A      2.850372   186A      2.871335   187A      2.881792
     188A      2.948209   189A      2.954159   190A      2.975057
     191A      2.981579   192A      3.018803   193A      3.127217
     194A      3.158125   195A      3.267491   196A      3.903789

    Final Occupation by Irrep:
              A
    DOCC [    34 ]

  @RHF Final Energy:  -348.98863069962698

   => Energetics <=

    Nuclear Repulsion Energy =            409.9776784875190856
    One-Electron Energy =               -1282.7996812031806257
    Two-Electron Energy =                 523.8333720160345592
    Total Energy =                       -348.9886306996269241

Computation Completed

Properties will be evaluated at   0.000000,   0.000000,   0.000000 [a0]

Properties computed using the SCF density matrix

  Nuclear Dipole Moment: [e a0]
     X:    -4.2381      Y:    -8.6507      Z:    -2.6415

  Electronic Dipole Moment: [e a0]
     X:     4.3315      Y:     8.8110      Z:     2.5186

  Dipole Moment: [e a0]
     X:     0.0934      Y:     0.1603      Z:    -0.1229     Total:     0.2225

  Dipole Moment: [D]
     X:     0.2374      Y:     0.4075      Z:    -0.3123     Total:     0.5656

*** tstop() called on ds3 at Tue Apr 28 04:28:32 2020
Module time:
	user time   =      68.07 seconds =       1.13 minutes
	system time =      27.41 seconds =       0.46 minutes
	total time  =         95 seconds =       1.58 minutes
Total time:
	user time   =      68.07 seconds =       1.13 minutes
	system time =      27.41 seconds =       0.46 minutes
	total time  =         95 seconds =       1.58 minutes
                                     G D M A

                                 by Anthony Stone

                           version 2.2.06, 22 June 2011

               Distributed Multipoles from Gaussian wavefunctions

Starting at 4:28:32 on 28 Apr 2020

Using SCF density matrix from file ./SSI/SSI-101ILE-110PHE-1-dimer.test.27584.fchk

                         Distributed Multipole Analysis

Standard DMA

Positions and radii in angstrom
Multipole moments in atomic units, ea_0^k for rank k

C          x = -1.540035  y = -2.265890  z = -0.194595 angstrom
           Maximum rank =  0   Radius =  0.650 angstrom
                   Q00  =  -0.240060

C          x = -1.606035  y = -3.624890  z =  0.610405 angstrom
           Maximum rank =  0   Radius =  0.650 angstrom
                   Q00  =  -0.260855

H          x = -2.456035  y = -2.115890  z = -0.765595 angstrom
           Maximum rank =  0   Radius =  0.325 angstrom
                   Q00  =   0.074858

H          x = -1.423035  y = -1.426890  z =  0.492405 angstrom
           Maximum rank =  0   Radius =  0.325 angstrom
                   Q00  =   0.098307

H          x = -0.699035  y = -2.266890  z = -0.880595 angstrom
           Maximum rank =  0   Radius =  0.325 angstrom
                   Q00  =   0.084390

H          x = -2.451035  y = -3.596890  z =  1.299405 angstrom
           Maximum rank =  0   Radius =  0.325 angstrom
                   Q00  =   0.078622

H          x = -0.689035  y = -3.752890  z =  1.188405 angstrom
           Maximum rank =  0   Radius =  0.325 angstrom
                   Q00  =   0.079543

H          x = -1.724915  y = -4.526590  z = -0.008365 angstrom
           Maximum rank =  0   Radius =  0.325 angstrom
                   Q00  =   0.080708

C          x =  0.908965  y =  1.448110  z = -2.479595 angstrom
           Maximum rank =  0   Radius =  0.650 angstrom
                   Q00  =  -0.208134

C          x = -0.732035  y =  1.307110  z =  1.036405 angstrom
           Maximum rank =  0   Radius =  0.650 angstrom
                   Q00  =  -0.084713

C          x = -0.536035  y =  1.560110  z = -0.347595 angstrom
           Maximum rank =  0   Radius =  0.650 angstrom
                   Q00  =  -0.052952

C          x =  0.255965  y =  0.613110  z =  1.763405 angstrom
           Maximum rank =  0   Radius =  0.650 angstrom
                   Q00  =  -0.090538

C          x =  0.625965  y =  1.127110  z = -1.004595 angstrom
           Maximum rank =  0   Radius =  0.650 angstrom
                   Q00  =  -0.109573

C          x =  1.414965  y =  0.178110  z =  1.113405 angstrom
           Maximum rank =  0   Radius =  0.650 angstrom
                   Q00  =  -0.068184

C          x =  1.587965  y =  0.432110  z = -0.260595 angstrom
           Maximum rank =  0   Radius =  0.650 angstrom
                   Q00  =  -0.016989

H          x = -1.631035  y =  1.645110  z =  1.541405 angstrom
           Maximum rank =  0   Radius =  0.325 angstrom
                   Q00  =   0.070588

H          x = -1.284035  y =  2.097110  z = -0.915595 angstrom
           Maximum rank =  0   Radius =  0.325 angstrom
                   Q00  =   0.061013

H          x =  0.125965  y =  0.415110  z =  2.819405 angstrom
           Maximum rank =  0   Radius =  0.325 angstrom
                   Q00  =   0.065788

H          x =  2.176965  y = -0.347890  z =  1.668405 angstrom
           Maximum rank =  0   Radius =  0.325 angstrom
                   Q00  =   0.068127

H          x =  1.725965  y =  0.799110  z = -2.801595 angstrom
           Maximum rank =  0   Radius =  0.325 angstrom
                   Q00  =   0.096899

H          x =  1.255965  y =  2.483110  z = -2.519595 angstrom
           Maximum rank =  0   Radius =  0.325 angstrom
                   Q00  =   0.107237

H          x =  2.481965  y =  0.088110  z = -0.764595 angstrom
           Maximum rank =  0   Radius =  0.325 angstrom
                   Q00  =   0.059843

H          x =  0.070495  y =  1.278610  z = -3.171135 angstrom
           Maximum rank =  0   Radius =  0.325 angstrom
                   Q00  =   0.106077

Total multipoles referred to origin at
           x =   0.000000,  y =    0.000000,  z =    0.000000 angstrom
                   Q00  =  -0.000000

Finished at 4:28:32 on 28 Apr 2020

  DMA results are available in the Python driver through the
	  variable('DMA DISTRIBUTED MULTIPOLES')
  and
	  variable('DMA TOTAL MULTIPOLES')
  commands.

    Psi4 stopped on: Tuesday, 28 April 2020 04:28AM
    Psi4 wall time for execution: 0:01:35.80

*** Psi4 exiting successfully. Buy a developer a beer!
