                               Psi4 1.3.2 release

  ==> Input File <==

--------------------------------------------------------------------------
import numpy as np
set {scf_type pk
basis cc-pvdz
d_convergence 10
gdma_switch   0
gdma_limit    0
gdma_origin   [ 0.0,  0.0,  0.0 ]
}
molecule test {
    units Angstrom
    0 1
    --
    0 1
    C                0.737013954297153    -2.833828563769568    -3.538046874308283
    C                1.965013954297153    -2.148828563769569    -4.108046874308283
    H                0.976013954297153    -3.347828563769568    -2.606046874308283
    H               -0.044986045702847    -2.094828563769569    -3.362046874308283
    H                0.358013954297153    -3.562828563769569    -4.256046874308283
    H                1.663013954297153    -1.600828563769569    -5.003046874308283
    H                2.720855954297153    -2.895636563769569    -4.392616874308283
    H                2.359937954297153    -1.419627563769569    -3.385342874308283
    C               -0.557986045702847     2.769171436230432     3.137953125691717
    C               -0.297986045702847    -0.269828563769569     0.085953125691717
    C                0.512013954297153    -0.348828563769569     1.213953125691717
    C               -1.188986045702847     0.788171436230431    -0.057046874308283
    C                0.423013954297153     0.630171436230431     2.200953125691717
    C               -1.276986045702847     1.762171436230431     0.936953125691717
    C               -0.476986045702847     1.691171436230432     2.078953125691717
    O               -0.207986045702847    -1.227828563769569    -0.880046874308283
    H                0.390013954297153    -1.937828563769569    -0.625046874308283
    H                1.248013954297153    -1.132828563769569     1.284953125691717
    H               -1.821986045702847     0.837171436230431    -0.932046874308283
    H                1.078013954297153     0.577171436230431     3.059953125691717
    H               -1.985986045702847     2.573171436230431     0.825953125691717
    H               -1.167986045702847     3.578171436230432     2.735953125691717
    H                0.443013954297153     3.168171436230431     3.282953125691717
    H               -0.987647045702847     2.460420436230431     4.102351425691717

}
e, wfn = energy('scf', return_wfn=True)
gdma(wfn)
dmavals = variable('DMA DISTRIBUTED MULTIPOLES')
charges = np.array(dmavals)
print(charges)
np.save('SSI-021ALA-039TYR-1-dimer.npy', np.array(charges))--------------------------------------------------------------------------

*** tstart() called on ds3
*** at Tue Apr 28 12:16:27 2020

   => Loading Basis Set <=

    Name: CC-PVDZ
    Role: ORBITAL
    Keyword: BASIS
    atoms 1-2, 9-15  entry C          line   138 file /theoryfs2/ds/metcalf/miniconda2/envs/tf2gpu/share/psi4/basis/cc-pvdz.gbs
    atoms 3-8, 17-24 entry H          line    22 file /theoryfs2/ds/metcalf/miniconda2/envs/tf2gpu/share/psi4/basis/cc-pvdz.gbs
    atoms 16         entry O          line   198 file /theoryfs2/ds/metcalf/miniconda2/envs/tf2gpu/share/psi4/basis/cc-pvdz.gbs

         ---------------------------------------------------------
                                   SCF
               by Justin Turney, Rob Parrish, Andy Simmonett
                          and Daniel G. A. Smith
                              RHF Reference
                        1 Threads,    500 MiB Core
         ---------------------------------------------------------

  ==> Geometry <==

    Molecular point group: c1
    Full point group: C1

    Geometry (in Angstrom), charge = 0, multiplicity = 1:

       Center              X                  Y                   Z               Mass
    ------------   -----------------  -----------------  -----------------  -----------------
         C            0.737013954297    -2.833828563770    -3.538046874308    12.000000000000
         C            1.965013954297    -2.148828563770    -4.108046874308    12.000000000000
         H            0.976013954297    -3.347828563770    -2.606046874308     1.007825032230
         H           -0.044986045703    -2.094828563770    -3.362046874308     1.007825032230
         H            0.358013954297    -3.562828563770    -4.256046874308     1.007825032230
         H            1.663013954297    -1.600828563770    -5.003046874308     1.007825032230
         H            2.720855954297    -2.895636563770    -4.392616874308     1.007825032230
         H            2.359937954297    -1.419627563770    -3.385342874308     1.007825032230
         C           -0.557986045703     2.769171436230     3.137953125692    12.000000000000
         C           -0.297986045703    -0.269828563770     0.085953125692    12.000000000000
         C            0.512013954297    -0.348828563770     1.213953125692    12.000000000000
         C           -1.188986045703     0.788171436230    -0.057046874308    12.000000000000
         C            0.423013954297     0.630171436230     2.200953125692    12.000000000000
         C           -1.276986045703     1.762171436230     0.936953125692    12.000000000000
         C           -0.476986045703     1.691171436230     2.078953125692    12.000000000000
         O           -0.207986045703    -1.227828563770    -0.880046874308    15.994914619570
         H            0.390013954297    -1.937828563770    -0.625046874308     1.007825032230
         H            1.248013954297    -1.132828563770     1.284953125692     1.007825032230
         H           -1.821986045703     0.837171436230    -0.932046874308     1.007825032230
         H            1.078013954297     0.577171436230     3.059953125692     1.007825032230
         H           -1.985986045703     2.573171436230     0.825953125692     1.007825032230
         H           -1.167986045703     3.578171436230     2.735953125692     1.007825032230
         H            0.443013954297     3.168171436230     3.282953125692     1.007825032230
         H           -0.987647045703     2.460420436230     4.102351425692     1.007825032230

  Running in c1 symmetry.

  Rotational constants: A =      0.12236  B =      0.01361  C =      0.01308 [cm^-1]
  Rotational constants: A =   3668.29339  B =    407.94332  C =    392.00384 [MHz]
  Nuclear repulsion =  481.087786611584988

  Charge       = 0
  Multiplicity = 1
  Electrons    = 76
  Nalpha       = 38
  Nbeta        = 38

  ==> Algorithm <==

  SCF Algorithm Type is PK.
  DIIS enabled.
  MOM disabled.
  Fractional occupation disabled.
  Guess Type is SAD.
  Energy threshold   = 1.00e-06
  Density threshold  = 1.00e-10
  Integral threshold = 0.00e+00

  ==> Primary Basis <==

  Basis Set: CC-PVDZ
    Blend: CC-PVDZ
    Number of shells: 102
    Number of basis function: 210
    Number of Cartesian functions: 220
    Spherical Harmonics?: true
    Max angular momentum: 2

  ==> Pre-Iterations <==

   -------------------------------------------------------
    Irrep   Nso     Nmo     Nalpha   Nbeta   Ndocc  Nsocc
   -------------------------------------------------------
     A        210     210       0       0       0       0
   -------------------------------------------------------
    Total     210     210      38      38      38       0
   -------------------------------------------------------

  ==> Integral Setup <==

  Using integral reordering PK algorithm.
  Sizing the integral batches needed.
  Building batch lookup table.
   Calculation information:
      Number of atoms:                  24
      Number of AO shells:             102
      Number of primitives:            290
      Number of atomic orbitals:       220
      Number of basis functions:       210

      Integral cutoff                 1.00e-12
      Number of threads:                 1

	Batch   1 pq = [       0,    9405] index = [             0,44231715] size =     44231715
	Batch   2 pq = [    9405,   13301] index = [      44231715,88464951] size =     44233236
	Batch   3 pq = [   13301,   16290] index = [      88464951,132690195] size =     44225244
	Batch   4 pq = [   16290,   18810] index = [     132690195,176917455] size =     44227260
	Batch   5 pq = [   18810,   21030] index = [     176917455,221140965] size =     44223510
	Batch   6 pq = [   21030,   22155] index = [     221140965,245433090] size =     24292125
  Task number: 23
  Buffer size: 11059200
  Buffer per thread: 2
  We computed 9640555 shell quartets total.
  Whereas there are 13799631 unique shell quartets.

  ==> DiskJK: Disk-Based J/K Matrices <==

    J tasked:                  Yes
    K tasked:                  Yes
    wK tasked:                  No
    Memory [MiB]:              375
    Schwarz Cutoff:          1E-12

    OpenMP threads:              1

  Minimum eigenvalue in the overlap matrix is 3.2473035705E-04.
  Using Symmetric Orthogonalization.

  SCF Guess: Superposition of Atomic Densities via on-the-fly atomic UHF.

  ==> Iterations <==

                        Total Energy        Delta E     RMS |[F,P]|

   @RHF iter SAD:  -422.68230784881939   -4.22682e+02   0.00000e+00
   @RHF iter   1:  -423.60125975619451   -9.18952e-01   2.98189e-03 DIIS
   @RHF iter   2:  -423.81837560404847   -2.17116e-01   1.25808e-03 DIIS
   @RHF iter   3:  -423.85338549958283   -3.50099e-02   2.82285e-04 DIIS
   @RHF iter   4:  -423.85624628603415   -2.86079e-03   1.15292e-04 DIIS
   @RHF iter   5:  -423.85658749772404   -3.41212e-04   2.08132e-05 DIIS
   @RHF iter   6:  -423.85660495171214   -1.74540e-05   6.37590e-06 DIIS
   @RHF iter   7:  -423.85660656350188   -1.61179e-06   2.05669e-06 DIIS
   @RHF iter   8:  -423.85660678018178   -2.16680e-07   7.79894e-07 DIIS
   @RHF iter   9:  -423.85660681472496   -3.45432e-08   3.02252e-07 DIIS
   @RHF iter  10:  -423.85660682113081   -6.40586e-09   1.26070e-07 DIIS
   @RHF iter  11:  -423.85660682302364   -1.89283e-09   5.60035e-08 DIIS
   @RHF iter  12:  -423.85660682341069   -3.87047e-10   2.81934e-08 DIIS
   @RHF iter  13:  -423.85660682348481   -7.41238e-11   8.02620e-09 DIIS
   @RHF iter  14:  -423.85660682348981   -5.00222e-12   2.09634e-09 DIIS
   @RHF iter  15:  -423.85660682348703    2.78533e-12   6.88991e-10 DIIS
   @RHF iter  16:  -423.85660682349021   -3.18323e-12   2.11714e-10 DIIS
   @RHF iter  17:  -423.85660682348782    2.38742e-12   8.41066e-11 DIIS
  Energy and wave function converged.

  ==> Post-Iterations <==

    Orbital Energies [Eh]
    ---------------------

    Doubly Occupied:

       1A    -20.584400     2A    -11.299284     3A    -11.239782
       4A    -11.239201     5A    -11.234583     6A    -11.233689
       7A    -11.230502     8A    -11.228386     9A    -11.215768
      10A    -11.211728    11A     -1.400816    12A     -1.150462
      13A     -1.037108    14A     -1.017908    15A     -1.017691
      16A     -0.926634    17A     -0.845187    18A     -0.831585
      19A     -0.802159    20A     -0.732632    21A     -0.668430
      22A     -0.641512    23A     -0.608824    24A     -0.598214
      25A     -0.595854    26A     -0.588017    27A     -0.585187
      28A     -0.571462    29A     -0.565233    30A     -0.526220
      31A     -0.499177    32A     -0.497093    33A     -0.485776
      34A     -0.480797    35A     -0.479229    36A     -0.467575
      37A     -0.339015    38A     -0.302422

    Virtual:

      39A      0.129840    40A      0.156042    41A      0.164826
      42A      0.187170    43A      0.203010    44A      0.214000
      45A      0.222849    46A      0.245545    47A      0.248881
      48A      0.263147    49A      0.264839    50A      0.273863
      51A      0.284797    52A      0.289539    53A      0.300897
      54A      0.309049    55A      0.368631    56A      0.373061
      57A      0.400420    58A      0.436940    59A      0.458121
      60A      0.487484    61A      0.495152    62A      0.509739
      63A      0.602126    64A      0.603645    65A      0.610295
      66A      0.614120    67A      0.630005    68A      0.646958
      69A      0.655182    70A      0.682743    71A      0.685957
      72A      0.691671    73A      0.705525    74A      0.712691
      75A      0.730617    76A      0.734635    77A      0.741600
      78A      0.766514    79A      0.782404    80A      0.794260
      81A      0.801416    82A      0.822113    83A      0.850519
      84A      0.853805    85A      0.872124    86A      0.877609
      87A      0.884800    88A      0.887586    89A      0.893885
      90A      0.897062    91A      0.899312    92A      0.912686
      93A      0.917309    94A      0.922742    95A      0.928179
      96A      0.943394    97A      0.948968    98A      0.955040
      99A      0.975663   100A      1.009917   101A      1.032933
     102A      1.057637   103A      1.123657   104A      1.127174
     105A      1.139701   106A      1.143376   107A      1.151858
     108A      1.165457   109A      1.200137   110A      1.234180
     111A      1.240500   112A      1.244689   113A      1.276074
     114A      1.288916   115A      1.302852   116A      1.306478
     117A      1.324878   118A      1.357637   119A      1.367242
     120A      1.385780   121A      1.483182   122A      1.484871
     123A      1.503663   124A      1.513623   125A      1.520931
     126A      1.552859   127A      1.584886   128A      1.620114
     129A      1.624595   130A      1.682221   131A      1.686525
     132A      1.690043   133A      1.718318   134A      1.732944
     135A      1.746803   136A      1.779242   137A      1.800767
     138A      1.807013   139A      1.857211   140A      1.865839
     141A      1.886087   142A      1.889846   143A      1.897106
     144A      1.899658   145A      1.912539   146A      1.919667
     147A      1.921621   148A      1.946566   149A      1.950080
     150A      1.956336   151A      1.957548   152A      1.960452
     153A      1.968245   154A      1.969055   155A      1.995119
     156A      2.010132   157A      2.018831   158A      2.045542
     159A      2.056355   160A      2.067082   161A      2.073766
     162A      2.107286   163A      2.116418   164A      2.123005
     165A      2.151519   166A      2.182277   167A      2.203021
     168A      2.216863   169A      2.251328   170A      2.270104
     171A      2.296719   172A      2.301198   173A      2.317107
     174A      2.345594   175A      2.372564   176A      2.401705
     177A      2.454656   178A      2.458568   179A      2.470159
     180A      2.488038   181A      2.507340   182A      2.524729
     183A      2.545486   184A      2.571876   185A      2.579844
     186A      2.607045   187A      2.645808   188A      2.739881
     189A      2.762340   190A      2.774016   191A      2.790987
     192A      2.799285   193A      2.804189   194A      2.849986
     195A      2.852552   196A      2.859621   197A      2.890906
     198A      2.955379   199A      2.958866   200A      2.969073
     201A      3.003703   202A      3.082052   203A      3.109758
     204A      3.250840   205A      3.279589   206A      3.346150
     207A      3.588781   208A      3.671415   209A      3.972664
     210A      4.200593

    Final Occupation by Irrep:
              A
    DOCC [    38 ]

  @RHF Final Energy:  -423.85660682348782

   => Energetics <=

    Nuclear Repulsion Energy =            481.0877866115849883
    One-Electron Energy =               -1527.9297003388796838
    Two-Electron Energy =                 622.9853069038068725
    Total Energy =                       -423.8566068234878230

Computation Completed

Properties will be evaluated at   0.000000,   0.000000,   0.000000 [a0]

Properties computed using the SCF density matrix

  Nuclear Dipole Moment: [e a0]
     X:     4.9004      Y:    -4.5038      Z:    -8.6947

  Electronic Dipole Moment: [e a0]
     X:    -4.6095      Y:     4.4432      Z:     9.1348

  Dipole Moment: [e a0]
     X:     0.2909      Y:    -0.0606      Z:     0.4401     Total:     0.5310

  Dipole Moment: [D]
     X:     0.7394      Y:    -0.1540      Z:     1.1185     Total:     1.3496

*** tstop() called on ds3 at Tue Apr 28 12:20:55 2020
Module time:
	user time   =      73.98 seconds =       1.23 minutes
	system time =      33.39 seconds =       0.56 minutes
	total time  =        268 seconds =       4.47 minutes
Total time:
	user time   =      73.98 seconds =       1.23 minutes
	system time =      33.39 seconds =       0.56 minutes
	total time  =        268 seconds =       4.47 minutes
                                     G D M A

                                 by Anthony Stone

                           version 2.2.06, 22 June 2011

               Distributed Multipoles from Gaussian wavefunctions

Starting at 12:20:55 on 28 Apr 2020

Using SCF density matrix from file ./SSI/SSI-021ALA-039TYR-1-dimer.test.14671.fchk

                         Distributed Multipole Analysis

Standard DMA

Positions and radii in angstrom
Multipole moments in atomic units, ea_0^k for rank k

C          x =  0.737014  y = -2.833829  z = -3.538047 angstrom
           Maximum rank =  0   Radius =  0.650 angstrom
                   Q00  =  -0.221844

C          x =  1.965014  y = -2.148829  z = -4.108047 angstrom
           Maximum rank =  0   Radius =  0.650 angstrom
                   Q00  =  -0.240750

H          x =  0.976014  y = -3.347829  z = -2.606047 angstrom
           Maximum rank =  0   Radius =  0.325 angstrom
                   Q00  =   0.058379

H          x = -0.044986  y = -2.094829  z = -3.362047 angstrom
           Maximum rank =  0   Radius =  0.325 angstrom
                   Q00  =   0.097448

H          x =  0.358014  y = -3.562829  z = -4.256047 angstrom
           Maximum rank =  0   Radius =  0.325 angstrom
                   Q00  =   0.073473

H          x =  1.663014  y = -1.600829  z = -5.003047 angstrom
           Maximum rank =  0   Radius =  0.325 angstrom
                   Q00  =   0.078646

H          x =  2.720856  y = -2.895637  z = -4.392617 angstrom
           Maximum rank =  0   Radius =  0.325 angstrom
                   Q00  =   0.073553

H          x =  2.359938  y = -1.419628  z = -3.385343 angstrom
           Maximum rank =  0   Radius =  0.325 angstrom
                   Q00  =   0.076099

C          x = -0.557986  y =  2.769171  z =  3.137953 angstrom
           Maximum rank =  0   Radius =  0.650 angstrom
                   Q00  =  -0.198832

C          x = -0.297986  y = -0.269829  z =  0.085953 angstrom
           Maximum rank =  0   Radius =  0.650 angstrom
                   Q00  =   0.316665

C          x =  0.512014  y = -0.348829  z =  1.213953 angstrom
           Maximum rank =  0   Radius =  0.650 angstrom
                   Q00  =  -0.180321

C          x = -1.188986  y =  0.788171  z = -0.057047 angstrom
           Maximum rank =  0   Radius =  0.650 angstrom
                   Q00  =  -0.122080

C          x =  0.423014  y =  0.630171  z =  2.200953 angstrom
           Maximum rank =  0   Radius =  0.650 angstrom
                   Q00  =   0.026563

C          x = -1.276986  y =  1.762171  z =  0.936953 angstrom
           Maximum rank =  0   Radius =  0.650 angstrom
                   Q00  =  -0.013570

C          x = -0.476986  y =  1.691171  z =  2.078953 angstrom
           Maximum rank =  0   Radius =  0.650 angstrom
                   Q00  =  -0.134299

O          x = -0.207986  y = -1.227829  z = -0.880047 angstrom
           Maximum rank =  0   Radius =  0.650 angstrom
                   Q00  =  -0.674177

H          x =  0.390014  y = -1.937829  z = -0.625047 angstrom
           Maximum rank =  0   Radius =  0.325 angstrom
                   Q00  =   0.406955

H          x =  1.248014  y = -1.132829  z =  1.284953 angstrom
           Maximum rank =  0   Radius =  0.325 angstrom
                   Q00  =   0.071496

H          x = -1.821986  y =  0.837171  z = -0.932047 angstrom
           Maximum rank =  0   Radius =  0.325 angstrom
                   Q00  =   0.080252

H          x =  1.078014  y =  0.577171  z =  3.059953 angstrom
           Maximum rank =  0   Radius =  0.325 angstrom
                   Q00  =   0.067637

H          x = -1.985986  y =  2.573171  z =  0.825953 angstrom
           Maximum rank =  0   Radius =  0.325 angstrom
                   Q00  =   0.066068

H          x = -1.167986  y =  3.578171  z =  2.735953 angstrom
           Maximum rank =  0   Radius =  0.325 angstrom
                   Q00  =   0.094044

H          x =  0.443014  y =  3.168171  z =  3.282953 angstrom
           Maximum rank =  0   Radius =  0.325 angstrom
                   Q00  =   0.097540

H          x = -0.987647  y =  2.460420  z =  4.102351 angstrom
           Maximum rank =  0   Radius =  0.325 angstrom
                   Q00  =   0.101056

Total multipoles referred to origin at
           x =   0.000000,  y =    0.000000,  z =    0.000000 angstrom
                   Q00  =  -0.000000

Finished at 12:20:55 on 28 Apr 2020

  DMA results are available in the Python driver through the
	  variable('DMA DISTRIBUTED MULTIPOLES')
  and
	  variable('DMA TOTAL MULTIPOLES')
  commands.

    Psi4 stopped on: Tuesday, 28 April 2020 12:20PM
    Psi4 wall time for execution: 0:04:27.83

*** Psi4 exiting successfully. Buy a developer a beer!
