                               Psi4 1.3.2 release

  ==> Input File <==

--------------------------------------------------------------------------
import numpy as np
set {scf_type pk
basis cc-pvdz
d_convergence 10
gdma_switch   0
gdma_limit    0
gdma_origin   [ 0.0,  0.0,  0.0 ]
}
molecule test {
    units Angstrom
    0 1
    --
    0 1
    C                1.462324693075957     1.182555582977138     1.670763826040425
    C                2.053324693075957     2.300555582977137     2.516763826040424
    C                0.069324693075956     0.768555582977138     2.079763826040425
    C               -1.026675306924044     1.380555582977138     1.494763826040425
    C               -0.141675306924044    -0.262444417022862     2.987763826040424
    C               -2.309675306924043     0.981555582977138     1.822763826040425
    C               -1.428675306924043    -0.646444417022862     3.329763826040425
    C               -2.512675306924043    -0.034444417022862     2.736763826040424
    H                1.421324693075956     1.515555582977137     0.630763826040425
    H                2.119324693075956     0.311555582977138     1.698763826040425
    H                1.314324693075956     3.100555582977138     2.599763826040424
    H               -0.886675306924044     2.174555582977137     0.774763826040425
    H                0.699324693075957    -0.751444417022862     3.451763826040424
    H               -3.158675306924044     1.453555582977138     1.360763826040424
    H               -1.587675306924043    -1.437444417022862     4.048763826040425
    H               -3.515675306924043    -0.352444417022862     2.980763826040425
    H                2.950674693075957     2.687835582977137     2.012003826040424
    H                2.279774693075957     1.938235582977138     3.530393826040425
    C                2.223324693075957    -1.994444417022862    -3.959236173959575
    C                0.148324693075956    -0.723444417022862    -1.048236173959575
    C               -0.829675306924043     0.013555582977138    -1.715236173959575
    C                1.136324693075957    -1.368444417022862    -1.788236173959575
    C                1.143324693075957    -1.293444417022863    -3.175236173959576
    C               -0.831675306924043     0.077555582977138    -3.101236173959575
    C                0.157324693075956    -0.560444417022862    -3.828236173959576
    H                0.126324693075957    -0.818444417022862     0.025763826040425
    H               -1.604675306924044     0.515555582977138    -1.152236173959575
    H                1.895324693075956    -1.940444417022862    -1.272236173959575
    H               -1.592675306924044     0.658555582977138    -3.599236173959576
    H                3.121324693075956    -2.047444417022863    -3.341236173959576
    H                2.477324693075956    -1.391444417022862    -4.832236173959575
    H                0.168324693075956    -0.481444417022862    -4.905236173959575
    H                1.954214693075957    -3.008056417022863    -4.291158173959575

}
e, wfn = energy('scf', return_wfn=True)
gdma(wfn)
dmavals = variable('DMA DISTRIBUTED MULTIPOLES')
charges = np.array(dmavals)
print(charges)
np.save('SSI-035PHE-128PHE-1-dimer.npy', np.array(charges))--------------------------------------------------------------------------

*** tstart() called on ds3
*** at Sun Apr 26 21:38:22 2020

   => Loading Basis Set <=

    Name: CC-PVDZ
    Role: ORBITAL
    Keyword: BASIS
    atoms 1-8, 19-25  entry C          line   138 file /theoryfs2/ds/metcalf/miniconda2/envs/tf2gpu/share/psi4/basis/cc-pvdz.gbs
    atoms 9-18, 26-33 entry H          line    22 file /theoryfs2/ds/metcalf/miniconda2/envs/tf2gpu/share/psi4/basis/cc-pvdz.gbs

         ---------------------------------------------------------
                                   SCF
               by Justin Turney, Rob Parrish, Andy Simmonett
                          and Daniel G. A. Smith
                              RHF Reference
                        1 Threads,    500 MiB Core
         ---------------------------------------------------------

  ==> Geometry <==

    Molecular point group: c1
    Full point group: C1

    Geometry (in Angstrom), charge = 0, multiplicity = 1:

       Center              X                  Y                   Z               Mass
    ------------   -----------------  -----------------  -----------------  -----------------
         C            1.462324693076     1.182555582977     1.670763826040    12.000000000000
         C            2.053324693076     2.300555582977     2.516763826040    12.000000000000
         C            0.069324693076     0.768555582977     2.079763826040    12.000000000000
         C           -1.026675306924     1.380555582977     1.494763826040    12.000000000000
         C           -0.141675306924    -0.262444417023     2.987763826040    12.000000000000
         C           -2.309675306924     0.981555582977     1.822763826040    12.000000000000
         C           -1.428675306924    -0.646444417023     3.329763826040    12.000000000000
         C           -2.512675306924    -0.034444417023     2.736763826040    12.000000000000
         H            1.421324693076     1.515555582977     0.630763826040     1.007825032230
         H            2.119324693076     0.311555582977     1.698763826040     1.007825032230
         H            1.314324693076     3.100555582977     2.599763826040     1.007825032230
         H           -0.886675306924     2.174555582977     0.774763826040     1.007825032230
         H            0.699324693076    -0.751444417023     3.451763826040     1.007825032230
         H           -3.158675306924     1.453555582977     1.360763826040     1.007825032230
         H           -1.587675306924    -1.437444417023     4.048763826040     1.007825032230
         H           -3.515675306924    -0.352444417023     2.980763826040     1.007825032230
         H            2.950674693076     2.687835582977     2.012003826040     1.007825032230
         H            2.279774693076     1.938235582977     3.530393826040     1.007825032230
         C            2.223324693076    -1.994444417023    -3.959236173960    12.000000000000
         C            0.148324693076    -0.723444417023    -1.048236173960    12.000000000000
         C           -0.829675306924     0.013555582977    -1.715236173960    12.000000000000
         C            1.136324693076    -1.368444417023    -1.788236173960    12.000000000000
         C            1.143324693076    -1.293444417023    -3.175236173960    12.000000000000
         C           -0.831675306924     0.077555582977    -3.101236173960    12.000000000000
         C            0.157324693076    -0.560444417023    -3.828236173960    12.000000000000
         H            0.126324693076    -0.818444417023     0.025763826040     1.007825032230
         H           -1.604675306924     0.515555582977    -1.152236173960     1.007825032230
         H            1.895324693076    -1.940444417023    -1.272236173960     1.007825032230
         H           -1.592675306924     0.658555582977    -3.599236173960     1.007825032230
         H            3.121324693076    -2.047444417023    -3.341236173960     1.007825032230
         H            2.477324693076    -1.391444417023    -4.832236173960     1.007825032230
         H            0.168324693076    -0.481444417023    -4.905236173960     1.007825032230
         H            1.954214693076    -3.008056417023    -4.291158173960     1.007825032230

  Running in c1 symmetry.

  Rotational constants: A =      0.03130  B =      0.00962  C =      0.00860 [cm^-1]
  Rotational constants: A =    938.44690  B =    288.36990  C =    257.79141 [MHz]
  Nuclear repulsion =  890.484186168751876

  Charge       = 0
  Multiplicity = 1
  Electrons    = 108
  Nalpha       = 54
  Nbeta        = 54

  ==> Algorithm <==

  SCF Algorithm Type is PK.
  DIIS enabled.
  MOM disabled.
  Fractional occupation disabled.
  Guess Type is SAD.
  Energy threshold   = 1.00e-06
  Density threshold  = 1.00e-10
  Integral threshold = 0.00e+00

  ==> Primary Basis <==

  Basis Set: CC-PVDZ
    Blend: CC-PVDZ
    Number of shells: 144
    Number of basis function: 300
    Number of Cartesian functions: 315
    Spherical Harmonics?: true
    Max angular momentum: 2

  ==> Pre-Iterations <==

   -------------------------------------------------------
    Irrep   Nso     Nmo     Nalpha   Nbeta   Ndocc  Nsocc
   -------------------------------------------------------
     A        300     300       0       0       0       0
   -------------------------------------------------------
    Total     300     300      54      54      54       0
   -------------------------------------------------------

  ==> Integral Setup <==

  Using integral reordering PK algorithm.
  Sizing the integral batches needed.
  Building batch lookup table.
   Calculation information:
      Number of atoms:                  33
      Number of AO shells:             144
      Number of primitives:            420
      Number of atomic orbitals:       315
      Number of basis functions:       300

      Integral cutoff                 1.00e-12
      Number of threads:                 1

	Batch   1 pq = [       0,    9405] index = [             0,44231715] size =     44231715
	Batch   2 pq = [    9405,   13301] index = [      44231715,88464951] size =     44233236
	Batch   3 pq = [   13301,   16290] index = [      88464951,132690195] size =     44225244
	Batch   4 pq = [   16290,   18810] index = [     132690195,176917455] size =     44227260
	Batch   5 pq = [   18810,   21030] index = [     176917455,221140965] size =     44223510
	Batch   6 pq = [   21030,   23037] index = [     221140965,265363203] size =     44222238
	Batch   7 pq = [   23037,   24883] index = [     265363203,309594286] size =     44231083
	Batch   8 pq = [   24883,   26601] index = [     309594286,353819901] size =     44225615
	Batch   9 pq = [   26601,   28214] index = [     353819901,398029005] size =     44209104
	Batch  10 pq = [   28214,   29740] index = [     398029005,442248670] size =     44219665
	Batch  11 pq = [   29740,   31191] index = [     442248670,486454836] size =     44206166
	Batch  12 pq = [   31191,   32578] index = [     486454836,530679331] size =     44224495
	Batch  13 pq = [   32578,   33908] index = [     530679331,574893186] size =     44213855
	Batch  14 pq = [   33908,   35188] index = [     574893186,619115266] size =     44222080
	Batch  15 pq = [   35188,   36423] index = [     619115266,663335676] size =     44220410
	Batch  16 pq = [   36423,   37617] index = [     663335676,707538153] size =     44202477
	Batch  17 pq = [   37617,   38775] index = [     707538153,751769700] size =     44231547
	Batch  18 pq = [   38775,   39899] index = [     751769700,795985050] size =     44215350
	Batch  19 pq = [   39899,   40992] index = [     795985050,840192528] size =     44207478
	Batch  20 pq = [   40992,   42057] index = [     840192528,884416653] size =     44224125
	Batch  21 pq = [   42057,   43095] index = [     884416653,928611060] size =     44194407
	Batch  22 pq = [   43095,   44109] index = [     928611060,972823995] size =     44212935
	Batch  23 pq = [   44109,   45150] index = [     972823995,1019283825] size =     46459830
  Task number: 93
  Buffer size: 11059200
  Buffer per thread: 2
  We computed 54997102 shell quartets total.
  Whereas there are 54502020 unique shell quartets.
     0.91 percent of shell quartets recomputed by reordering.

  ==> DiskJK: Disk-Based J/K Matrices <==

    J tasked:                  Yes
    K tasked:                  Yes
    wK tasked:                  No
    Memory [MiB]:              375
    Schwarz Cutoff:          1E-12

    OpenMP threads:              1

  Minimum eigenvalue in the overlap matrix is 2.8686442441E-04.
  Using Symmetric Orthogonalization.

  SCF Guess: Superposition of Atomic Densities via on-the-fly atomic UHF.

  ==> Iterations <==

                        Total Energy        Delta E     RMS |[F,P]|

   @RHF iter SAD:  -577.56858087535306   -5.77569e+02   0.00000e+00
   @RHF iter   1:  -578.23294422540368   -6.64363e-01   2.22774e-03 DIIS
   @RHF iter   2:  -578.50931300764114   -2.76369e-01   9.06270e-04 DIIS
   @RHF iter   3:  -578.54991753790898   -4.06045e-02   2.07166e-04 DIIS
   @RHF iter   4:  -578.55338421462739   -3.46668e-03   4.56682e-05 DIIS
   @RHF iter   5:  -578.55350460985187   -1.20395e-04   1.54239e-05 DIIS
   @RHF iter   6:  -578.55351800464518   -1.33948e-05   4.02706e-06 DIIS
   @RHF iter   7:  -578.55351912688070   -1.12224e-06   1.07283e-06 DIIS
   @RHF iter   8:  -578.55351922158980   -9.47091e-08   3.19252e-07 DIIS
   @RHF iter   9:  -578.55351923549620   -1.39064e-08   1.41779e-07 DIIS
   @RHF iter  10:  -578.55351923897365   -3.47745e-09   7.44694e-08 DIIS
   @RHF iter  11:  -578.55351924025103   -1.27739e-09   3.20567e-08 DIIS
   @RHF iter  12:  -578.55351924046204   -2.11003e-10   1.26901e-08 DIIS
   @RHF iter  13:  -578.55351924049330   -3.12639e-11   4.46469e-09 DIIS
   @RHF iter  14:  -578.55351924049000    3.29692e-12   1.49660e-09 DIIS
   @RHF iter  15:  -578.55351924049660   -6.59384e-12   4.59841e-10 DIIS
   @RHF iter  16:  -578.55351924049307    3.52429e-12   1.63909e-10 DIIS
   @RHF iter  17:  -578.55351924049455   -1.47793e-12   7.83634e-11 DIIS
  Energy and wave function converged.

  ==> Post-Iterations <==

    Orbital Energies [Eh]
    ---------------------

    Doubly Occupied:

       1A    -11.236916     2A    -11.235180     3A    -11.234631
       4A    -11.233854     5A    -11.230832     6A    -11.229897
       7A    -11.229307     8A    -11.229148     9A    -11.227303
      10A    -11.227124    11A    -11.226176    12A    -11.224892
      13A    -11.224478    14A    -11.223815    15A    -11.222773
      16A     -1.161074    17A     -1.149367    18A     -1.065891
      19A     -1.039403    20A     -1.016505    21A     -1.008313
      22A     -0.985652    23A     -0.926517    24A     -0.861433
      25A     -0.828913    26A     -0.820378    27A     -0.791174
      28A     -0.787528    29A     -0.695265    30A     -0.686637
      31A     -0.643243    32A     -0.634500    33A     -0.627047
      34A     -0.625599    35A     -0.593754    36A     -0.588893
      37A     -0.580378    38A     -0.578910    39A     -0.573656
      40A     -0.557120    41A     -0.542025    42A     -0.529968
      43A     -0.520680    44A     -0.498110    45A     -0.487357
      46A     -0.482928    47A     -0.478859    48A     -0.476772
      49A     -0.474740    50A     -0.467818    51A     -0.335957
      52A     -0.328596    53A     -0.325746    54A     -0.316254

    Virtual:

      55A      0.131411    56A      0.136789    57A      0.142874
      58A      0.147603    59A      0.178100    60A      0.192448
      61A      0.195612    62A      0.207808    63A      0.215165
      64A      0.222611    65A      0.239313    66A      0.245522
      67A      0.251909    68A      0.255879    69A      0.261709
      70A      0.271924    71A      0.281959    72A      0.290449
      73A      0.296004    74A      0.302227    75A      0.305441
      76A      0.315624    77A      0.348454    78A      0.376190
      79A      0.381317    80A      0.389990    81A      0.419835
      82A      0.454346    83A      0.458036    84A      0.466082
      85A      0.471512    86A      0.481177    87A      0.487966
      88A      0.500753    89A      0.503620    90A      0.563794
      91A      0.569640    92A      0.594003    93A      0.605149
      94A      0.615969    95A      0.624102    96A      0.635578
      97A      0.643192    98A      0.677940    99A      0.682749
     100A      0.685851   101A      0.701513   102A      0.708249
     103A      0.710480   104A      0.723917   105A      0.735994
     106A      0.737607   107A      0.741130   108A      0.743394
     109A      0.749754   110A      0.752006   111A      0.754317
     112A      0.765022   113A      0.769750   114A      0.773124
     115A      0.787612   116A      0.791841   117A      0.808748
     118A      0.819217   119A      0.828569   120A      0.843363
     121A      0.848361   122A      0.860187   123A      0.866504
     124A      0.878058   125A      0.882720   126A      0.887914
     127A      0.890475   128A      0.894697   129A      0.898513
     130A      0.901322   131A      0.908976   132A      0.914628
     133A      0.924161   134A      0.932604   135A      0.941736
     136A      0.947158   137A      0.950028   138A      0.961780
     139A      0.966971   140A      0.973618   141A      0.983804
     142A      1.003231   143A      1.012803   144A      1.019203
     145A      1.035609   146A      1.053582   147A      1.076232
     148A      1.100868   149A      1.110660   150A      1.132900
     151A      1.138418   152A      1.155272   153A      1.155992
     154A      1.161517   155A      1.176085   156A      1.193813
     157A      1.200687   158A      1.203285   159A      1.220971
     160A      1.237603   161A      1.251210   162A      1.257876
     163A      1.265643   164A      1.268398   165A      1.277726
     166A      1.298052   167A      1.300291   168A      1.306383
     169A      1.311614   170A      1.316955   171A      1.325375
     172A      1.328042   173A      1.347995   174A      1.379300
     175A      1.411112   176A      1.424525   177A      1.442646
     178A      1.450713   179A      1.504603   180A      1.521625
     181A      1.531237   182A      1.553379   183A      1.575928
     184A      1.615569   185A      1.625613   186A      1.629831
     187A      1.672712   188A      1.683015   189A      1.694872
     190A      1.706815   191A      1.723215   192A      1.745145
     193A      1.759560   194A      1.760778   195A      1.765917
     196A      1.776279   197A      1.780191   198A      1.792974
     199A      1.819035   200A      1.848228   201A      1.864128
     202A      1.870810   203A      1.875214   204A      1.884928
     205A      1.892194   206A      1.900610   207A      1.905613
     208A      1.908956   209A      1.917361   210A      1.919941
     211A      1.921355   212A      1.926230   213A      1.932871
     214A      1.940643   215A      1.946398   216A      1.952797
     217A      1.958570   218A      1.969775   219A      1.973147
     220A      1.981048   221A      1.984728   222A      1.991682
     223A      2.004446   224A      2.008003   225A      2.017732
     226A      2.024842   227A      2.041118   228A      2.052510
     229A      2.067803   230A      2.071820   231A      2.079092
     232A      2.091137   233A      2.106787   234A      2.115610
     235A      2.136959   236A      2.149532   237A      2.159780
     238A      2.165467   239A      2.172979   240A      2.180638
     241A      2.184401   242A      2.185387   243A      2.195860
     244A      2.211393   245A      2.223318   246A      2.245533
     247A      2.265486   248A      2.274664   249A      2.282143
     250A      2.297098   251A      2.301293   252A      2.317808
     253A      2.319596   254A      2.328295   255A      2.330005
     256A      2.351317   257A      2.376942   258A      2.396653
     259A      2.447154   260A      2.473187   261A      2.480266
     262A      2.488046   263A      2.505810   264A      2.516254
     265A      2.523396   266A      2.548976   267A      2.556472
     268A      2.585533   269A      2.631294   270A      2.641339
     271A      2.753235   272A      2.756340   273A      2.766290
     274A      2.769587   275A      2.774696   276A      2.783096
     277A      2.799753   278A      2.809493   279A      2.812317
     280A      2.841442   281A      2.849950   282A      2.855884
     283A      2.874058   284A      2.887856   285A      2.909269
     286A      2.963906   287A      2.995472   288A      3.012194
     289A      3.023471   290A      3.037193   291A      3.059463
     292A      3.071792   293A      3.166597   294A      3.199801
     295A      3.215768   296A      3.219847   297A      3.320034
     298A      3.327779   299A      3.985439   300A      4.001909

    Final Occupation by Irrep:
              A
    DOCC [    54 ]

  @RHF Final Energy:  -578.55351924049455

   => Energetics <=

    Nuclear Repulsion Energy =            890.4841861687518758
    One-Electron Energy =               -2549.0168382719411966
    Two-Electron Energy =                1079.9791328626947688
    Total Energy =                       -578.5535192404945519

Computation Completed

Properties will be evaluated at   0.000000,   0.000000,   0.000000 [a0]

Properties computed using the SCF density matrix

  Nuclear Dipole Moment: [e a0]
     X:     7.6699      Y:     1.9943      Z:    -0.2618

  Electronic Dipole Moment: [e a0]
     X:    -7.5286      Y:    -1.9943      Z:     0.2681

  Dipole Moment: [e a0]
     X:     0.1413      Y:     0.0000      Z:     0.0063     Total:     0.1415

  Dipole Moment: [D]
     X:     0.3592      Y:     0.0001      Z:     0.0160     Total:     0.3596

*** tstop() called on ds3 at Sun Apr 26 21:57:17 2020
Module time:
	user time   =     466.00 seconds =       7.77 minutes
	system time =     150.36 seconds =       2.51 minutes
	total time  =       1135 seconds =      18.92 minutes
Total time:
	user time   =     466.00 seconds =       7.77 minutes
	system time =     150.36 seconds =       2.51 minutes
	total time  =       1135 seconds =      18.92 minutes
                                     G D M A

                                 by Anthony Stone

                           version 2.2.06, 22 June 2011

               Distributed Multipoles from Gaussian wavefunctions

Starting at 21:57:17 on 26 Apr 2020

Using SCF density matrix from file ./SSI/SSI-035PHE-128PHE-1-dimer.test.4679.fchk

                         Distributed Multipole Analysis

Standard DMA

Positions and radii in angstrom
Multipole moments in atomic units, ea_0^k for rank k

C          x =  1.462325  y =  1.182556  z =  1.670764 angstrom
           Maximum rank =  0   Radius =  0.650 angstrom
                   Q00  =  -0.042112

C          x =  2.053325  y =  2.300556  z =  2.516764 angstrom
           Maximum rank =  0   Radius =  0.650 angstrom
                   Q00  =  -0.219382

C          x =  0.069325  y =  0.768556  z =  2.079764 angstrom
           Maximum rank =  0   Radius =  0.650 angstrom
                   Q00  =  -0.125237

C          x = -1.026675  y =  1.380556  z =  1.494764 angstrom
           Maximum rank =  0   Radius =  0.650 angstrom
                   Q00  =  -0.081164

C          x = -0.141675  y = -0.262444  z =  2.987764 angstrom
           Maximum rank =  0   Radius =  0.650 angstrom
                   Q00  =  -0.027130

C          x = -2.309675  y =  0.981556  z =  1.822764 angstrom
           Maximum rank =  0   Radius =  0.650 angstrom
                   Q00  =  -0.025739

C          x = -1.428675  y = -0.646444  z =  3.329764 angstrom
           Maximum rank =  0   Radius =  0.650 angstrom
                   Q00  =  -0.076131

C          x = -2.512675  y = -0.034444  z =  2.736764 angstrom
           Maximum rank =  0   Radius =  0.650 angstrom
                   Q00  =  -0.077357

H          x =  1.421325  y =  1.515556  z =  0.630764 angstrom
           Maximum rank =  0   Radius =  0.325 angstrom
                   Q00  =   0.072824

H          x =  2.119325  y =  0.311556  z =  1.698764 angstrom
           Maximum rank =  0   Radius =  0.325 angstrom
                   Q00  =   0.063738

H          x =  1.314325  y =  3.100556  z =  2.599764 angstrom
           Maximum rank =  0   Radius =  0.325 angstrom
                   Q00  =   0.083152

H          x = -0.886675  y =  2.174556  z =  0.774764 angstrom
           Maximum rank =  0   Radius =  0.325 angstrom
                   Q00  =   0.057943

H          x =  0.699325  y = -0.751444  z =  3.451764 angstrom
           Maximum rank =  0   Radius =  0.325 angstrom
                   Q00  =   0.054535

H          x = -3.158675  y =  1.453556  z =  1.360764 angstrom
           Maximum rank =  0   Radius =  0.325 angstrom
                   Q00  =   0.061239

H          x = -1.587675  y = -1.437444  z =  4.048764 angstrom
           Maximum rank =  0   Radius =  0.325 angstrom
                   Q00  =   0.062995

H          x = -3.515675  y = -0.352444  z =  2.980764 angstrom
           Maximum rank =  0   Radius =  0.325 angstrom
                   Q00  =   0.060752

H          x =  2.950675  y =  2.687836  z =  2.012004 angstrom
           Maximum rank =  0   Radius =  0.325 angstrom
                   Q00  =   0.083179

H          x =  2.279775  y =  1.938236  z =  3.530394 angstrom
           Maximum rank =  0   Radius =  0.325 angstrom
                   Q00  =   0.080777

C          x =  2.223325  y = -1.994444  z = -3.959236 angstrom
           Maximum rank =  0   Radius =  0.650 angstrom
                   Q00  =  -0.199317

C          x =  0.148325  y = -0.723444  z = -1.048236 angstrom
           Maximum rank =  0   Radius =  0.650 angstrom
                   Q00  =  -0.070505

C          x = -0.829675  y =  0.013556  z = -1.715236 angstrom
           Maximum rank =  0   Radius =  0.650 angstrom
                   Q00  =  -0.093334

C          x =  1.136325  y = -1.368444  z = -1.788236 angstrom
           Maximum rank =  0   Radius =  0.650 angstrom
                   Q00  =  -0.052545

C          x =  1.143325  y = -1.293444  z = -3.175236 angstrom
           Maximum rank =  0   Radius =  0.650 angstrom
                   Q00  =  -0.102576

C          x = -0.831675  y =  0.077556  z = -3.101236 angstrom
           Maximum rank =  0   Radius =  0.650 angstrom
                   Q00  =  -0.074188

C          x =  0.157325  y = -0.560444  z = -3.828236 angstrom
           Maximum rank =  0   Radius =  0.650 angstrom
                   Q00  =  -0.011560

H          x =  0.126325  y = -0.818444  z =  0.025764 angstrom
           Maximum rank =  0   Radius =  0.325 angstrom
                   Q00  =   0.077149

H          x = -1.604675  y =  0.515556  z = -1.152236 angstrom
           Maximum rank =  0   Radius =  0.325 angstrom
                   Q00  =   0.059766

H          x =  1.895325  y = -1.940444  z = -1.272236 angstrom
           Maximum rank =  0   Radius =  0.325 angstrom
                   Q00  =   0.051585

H          x = -1.592675  y =  0.658556  z = -3.599236 angstrom
           Maximum rank =  0   Radius =  0.325 angstrom
                   Q00  =   0.059216

H          x =  3.121325  y = -2.047444  z = -3.341236 angstrom
           Maximum rank =  0   Radius =  0.325 angstrom
                   Q00  =   0.095016

H          x =  2.477325  y = -1.391444  z = -4.832236 angstrom
           Maximum rank =  0   Radius =  0.325 angstrom
                   Q00  =   0.095890

H          x =  0.168325  y = -0.481444  z = -4.905236 angstrom
           Maximum rank =  0   Radius =  0.325 angstrom
                   Q00  =   0.053638

H          x =  1.954215  y = -3.008056  z = -4.291158 angstrom
           Maximum rank =  0   Radius =  0.325 angstrom
                   Q00  =   0.104881

Total multipoles referred to origin at
           x =   0.000000,  y =    0.000000,  z =    0.000000 angstrom
                   Q00  =  -0.000000

Finished at 21:57:17 on 26 Apr 2020

  DMA results are available in the Python driver through the
	  variable('DMA DISTRIBUTED MULTIPOLES')
  and
	  variable('DMA TOTAL MULTIPOLES')
  commands.

    Psi4 stopped on: Sunday, 26 April 2020 09:57PM
    Psi4 wall time for execution: 0:18:54.81

*** Psi4 exiting successfully. Buy a developer a beer!
