                               Psi4 1.3.2 release

  ==> Input File <==

--------------------------------------------------------------------------
import numpy as np
set {scf_type pk
basis cc-pvdz
d_convergence 10
gdma_switch   0
gdma_limit    0
gdma_origin   [ 0.0,  0.0,  0.0 ]
}
molecule test {
    units Angstrom
    0 1
    --
    0 1
    C                2.634710139247514    -0.448066799556154     0.792975288510343
    C                0.111710139247515    -0.492066799556154     0.810975288510343
    C                1.308710139247515    -0.719066799556154     0.124975288510343
    C               -1.120289860752485    -0.719066799556154     0.196975288510343
    C                1.255710139247515    -1.179066799556154    -1.196024711489657
    C               -1.161289860752485    -1.179066799556154    -1.118024711489657
    C                0.025710139247515    -1.410066799556154    -1.821024711489657
    O               -2.366289860752485    -1.411066799556154    -1.711024711489657
    H                0.139710139247515    -0.130066799556154     1.830975288510343
    H               -2.043289860752485    -0.543066799556154     0.732975288510343
    H                3.372710139247515    -1.156066799556154     0.410975288510343
    H                2.535710139247514    -0.623066799556154     1.865975288510343
    H                2.173710139247515    -1.365066799556154    -1.741024711489657
    H               -0.004289860752485    -1.770066799556154    -2.841024711489657
    H               -2.271289860752486    -1.790066799556154    -2.593024711489657
    H                2.992760139247514     0.579153200443846     0.629835288510343
    C               -0.667289860752485     3.150933200443846     1.325975288510343
    C                0.287710139247515     3.720933200443846     2.371975288510343
    H               -0.118289860752485     2.671933200443846     0.519975288510343
    H               -1.301289860752485     2.399933200443846     1.797975288510343
    H               -1.321289860752485     3.923933200443846     0.922975288510343
    H               -0.297289860752485     4.218933200443846     3.145975288510343
    H                0.983170139247515     4.443643200443846     1.920285288510343
    H                0.858570139247515     2.897393200443846     2.825735288510343

}
e, wfn = energy('scf', return_wfn=True)
gdma(wfn)
dmavals = variable('DMA DISTRIBUTED MULTIPOLES')
charges = np.array(dmavals)
print(charges)
np.save('SSI-113TYR-124THR-1-dimer.npy', np.array(charges))--------------------------------------------------------------------------

*** tstart() called on ds3
*** at Tue Apr 28 14:24:09 2020

   => Loading Basis Set <=

    Name: CC-PVDZ
    Role: ORBITAL
    Keyword: BASIS
    atoms 1-7, 17-18  entry C          line   138 file /theoryfs2/ds/metcalf/miniconda2/envs/tf2gpu/share/psi4/basis/cc-pvdz.gbs
    atoms 8           entry O          line   198 file /theoryfs2/ds/metcalf/miniconda2/envs/tf2gpu/share/psi4/basis/cc-pvdz.gbs
    atoms 9-16, 19-24 entry H          line    22 file /theoryfs2/ds/metcalf/miniconda2/envs/tf2gpu/share/psi4/basis/cc-pvdz.gbs

         ---------------------------------------------------------
                                   SCF
               by Justin Turney, Rob Parrish, Andy Simmonett
                          and Daniel G. A. Smith
                              RHF Reference
                        1 Threads,    500 MiB Core
         ---------------------------------------------------------

  ==> Geometry <==

    Molecular point group: c1
    Full point group: C1

    Geometry (in Angstrom), charge = 0, multiplicity = 1:

       Center              X                  Y                   Z               Mass
    ------------   -----------------  -----------------  -----------------  -----------------
         C            2.634710139248    -0.448066799556     0.792975288510    12.000000000000
         C            0.111710139248    -0.492066799556     0.810975288510    12.000000000000
         C            1.308710139248    -0.719066799556     0.124975288510    12.000000000000
         C           -1.120289860752    -0.719066799556     0.196975288510    12.000000000000
         C            1.255710139248    -1.179066799556    -1.196024711490    12.000000000000
         C           -1.161289860752    -1.179066799556    -1.118024711490    12.000000000000
         C            0.025710139248    -1.410066799556    -1.821024711490    12.000000000000
         O           -2.366289860752    -1.411066799556    -1.711024711490    15.994914619570
         H            0.139710139248    -0.130066799556     1.830975288510     1.007825032230
         H           -2.043289860752    -0.543066799556     0.732975288510     1.007825032230
         H            3.372710139248    -1.156066799556     0.410975288510     1.007825032230
         H            2.535710139248    -0.623066799556     1.865975288510     1.007825032230
         H            2.173710139248    -1.365066799556    -1.741024711490     1.007825032230
         H           -0.004289860752    -1.770066799556    -2.841024711490     1.007825032230
         H           -2.271289860752    -1.790066799556    -2.593024711490     1.007825032230
         H            2.992760139248     0.579153200444     0.629835288510     1.007825032230
         C           -0.667289860752     3.150933200444     1.325975288510    12.000000000000
         C            0.287710139248     3.720933200444     2.371975288510    12.000000000000
         H           -0.118289860752     2.671933200444     0.519975288510     1.007825032230
         H           -1.301289860752     2.399933200444     1.797975288510     1.007825032230
         H           -1.321289860752     3.923933200444     0.922975288510     1.007825032230
         H           -0.297289860752     4.218933200444     3.145975288510     1.007825032230
         H            0.983170139248     4.443643200444     1.920285288510     1.007825032230
         H            0.858570139248     2.897393200444     2.825735288510     1.007825032230

  Running in c1 symmetry.

  Rotational constants: A =      0.04843  B =      0.02255  C =      0.01680 [cm^-1]
  Rotational constants: A =   1451.86909  B =    676.05597  C =    503.52459 [MHz]
  Nuclear repulsion =  490.953701025191378

  Charge       = 0
  Multiplicity = 1
  Electrons    = 76
  Nalpha       = 38
  Nbeta        = 38

  ==> Algorithm <==

  SCF Algorithm Type is PK.
  DIIS enabled.
  MOM disabled.
  Fractional occupation disabled.
  Guess Type is SAD.
  Energy threshold   = 1.00e-06
  Density threshold  = 1.00e-10
  Integral threshold = 0.00e+00

  ==> Primary Basis <==

  Basis Set: CC-PVDZ
    Blend: CC-PVDZ
    Number of shells: 102
    Number of basis function: 210
    Number of Cartesian functions: 220
    Spherical Harmonics?: true
    Max angular momentum: 2

  ==> Pre-Iterations <==

   -------------------------------------------------------
    Irrep   Nso     Nmo     Nalpha   Nbeta   Ndocc  Nsocc
   -------------------------------------------------------
     A        210     210       0       0       0       0
   -------------------------------------------------------
    Total     210     210      38      38      38       0
   -------------------------------------------------------

  ==> Integral Setup <==

  Using integral reordering PK algorithm.
  Sizing the integral batches needed.
  Building batch lookup table.
   Calculation information:
      Number of atoms:                  24
      Number of AO shells:             102
      Number of primitives:            290
      Number of atomic orbitals:       220
      Number of basis functions:       210

      Integral cutoff                 1.00e-12
      Number of threads:                 1

	Batch   1 pq = [       0,    9405] index = [             0,44231715] size =     44231715
	Batch   2 pq = [    9405,   13301] index = [      44231715,88464951] size =     44233236
	Batch   3 pq = [   13301,   16290] index = [      88464951,132690195] size =     44225244
	Batch   4 pq = [   16290,   18810] index = [     132690195,176917455] size =     44227260
	Batch   5 pq = [   18810,   21030] index = [     176917455,221140965] size =     44223510
	Batch   6 pq = [   21030,   22155] index = [     221140965,245433090] size =     24292125
  Task number: 23
  Buffer size: 11059200
  Buffer per thread: 2
  We computed 11644644 shell quartets total.
  Whereas there are 13799631 unique shell quartets.

  ==> DiskJK: Disk-Based J/K Matrices <==

    J tasked:                  Yes
    K tasked:                  Yes
    wK tasked:                  No
    Memory [MiB]:              375
    Schwarz Cutoff:          1E-12

    OpenMP threads:              1

  Minimum eigenvalue in the overlap matrix is 3.3110930626E-04.
  Using Symmetric Orthogonalization.

  SCF Guess: Superposition of Atomic Densities via on-the-fly atomic UHF.

  ==> Iterations <==

                        Total Energy        Delta E     RMS |[F,P]|

   @RHF iter SAD:  -422.61418247834814   -4.22614e+02   0.00000e+00
   @RHF iter   1:  -423.60306207858093   -9.88880e-01   2.97689e-03 DIIS
   @RHF iter   2:  -423.81910482556600   -2.16043e-01   1.26067e-03 DIIS
   @RHF iter   3:  -423.85416095662117   -3.50561e-02   2.85743e-04 DIIS
   @RHF iter   4:  -423.85703826670249   -2.87731e-03   1.20215e-04 DIIS
   @RHF iter   5:  -423.85741106379390   -3.72797e-04   2.05696e-05 DIIS
   @RHF iter   6:  -423.85742853215550   -1.74684e-05   6.37944e-06 DIIS
   @RHF iter   7:  -423.85743018995146   -1.65780e-06   2.14568e-06 DIIS
   @RHF iter   8:  -423.85743043290609   -2.42955e-07   8.16679e-07 DIIS
   @RHF iter   9:  -423.85743047668063   -4.37745e-08   3.42992e-07 DIIS
   @RHF iter  10:  -423.85743048585783   -9.17720e-09   1.50116e-07 DIIS
   @RHF iter  11:  -423.85743048877890   -2.92107e-09   6.56086e-08 DIIS
   @RHF iter  12:  -423.85743048927623   -4.97323e-10   3.04787e-08 DIIS
   @RHF iter  13:  -423.85743048935802   -8.17977e-11   8.28469e-09 DIIS
   @RHF iter  14:  -423.85743048936069   -2.67164e-12   2.18256e-09 DIIS
   @RHF iter  15:  -423.85743048936121   -5.11591e-13   7.08024e-10 DIIS
   @RHF iter  16:  -423.85743048935961    1.59162e-12   2.40575e-10 DIIS
   @RHF iter  17:  -423.85743048936121   -1.59162e-12   1.04135e-10 DIIS
   @RHF iter  18:  -423.85743048936092    2.84217e-13   5.31805e-11 DIIS
  Energy and wave function converged.

  ==> Post-Iterations <==

    Orbital Energies [Eh]
    ---------------------

    Doubly Occupied:

       1A    -20.582908     2A    -11.300556     3A    -11.240792
       4A    -11.238833     5A    -11.235065     6A    -11.234174
       7A    -11.230716     8A    -11.228547     9A    -11.217327
      10A    -11.211166    11A     -1.398874    12A     -1.147845
      13A     -1.035619    14A     -1.016778    15A     -1.014780
      16A     -0.924954    17A     -0.843250    18A     -0.833272
      19A     -0.801142    20A     -0.730833    21A     -0.666091
      22A     -0.640881    23A     -0.606131    24A     -0.596692
      25A     -0.593622    26A     -0.585772    27A     -0.585035
      28A     -0.571527    29A     -0.565691    30A     -0.525480
      31A     -0.497748    32A     -0.496881    33A     -0.484824
      34A     -0.484174    35A     -0.480603    36A     -0.464862
      37A     -0.337566    38A     -0.300540

    Virtual:

      39A      0.128369    40A      0.153674    41A      0.165780
      42A      0.179999    43A      0.201366    44A      0.206156
      45A      0.223006    46A      0.235869    47A      0.251068
      48A      0.261931    49A      0.267912    50A      0.272973
      51A      0.286496    52A      0.294514    53A      0.308004
      54A      0.319259    55A      0.372903    56A      0.376132
      57A      0.398803    58A      0.426871    59A      0.454407
      60A      0.483006    61A      0.495471    62A      0.504819
      63A      0.592462    64A      0.600597    65A      0.603337
      66A      0.618565    67A      0.641448    68A      0.651207
      69A      0.652296    70A      0.672798    71A      0.677670
      72A      0.688232    73A      0.696815    74A      0.710041
      75A      0.733686    76A      0.737678    77A      0.764694
      78A      0.768347    79A      0.777730    80A      0.787392
      81A      0.809115    82A      0.830413    83A      0.848949
      84A      0.859330    85A      0.873336    86A      0.879952
      87A      0.883057    88A      0.889429    89A      0.893366
      90A      0.896073    91A      0.899443    92A      0.908204
      93A      0.919836    94A      0.930345    95A      0.931657
      96A      0.946513    97A      0.961678    98A      0.975770
      99A      0.994750   100A      1.008538   101A      1.023339
     102A      1.053783   103A      1.117663   104A      1.128367
     105A      1.134473   106A      1.144438   107A      1.151486
     108A      1.167560   109A      1.206464   110A      1.236434
     111A      1.244839   112A      1.247330   113A      1.269596
     114A      1.285227   115A      1.292119   116A      1.306303
     117A      1.311056   118A      1.352209   119A      1.361606
     120A      1.383597   121A      1.473160   122A      1.479026
     123A      1.490581   124A      1.496321   125A      1.528150
     126A      1.545096   127A      1.606367   128A      1.614288
     129A      1.620304   130A      1.682062   131A      1.684031
     132A      1.695636   133A      1.708796   134A      1.732336
     135A      1.747327   136A      1.780152   137A      1.801285
     138A      1.805951   139A      1.866461   140A      1.870466
     141A      1.876374   142A      1.882733   143A      1.890557
     144A      1.899946   145A      1.908095   146A      1.914164
     147A      1.922716   148A      1.941155   149A      1.951417
     150A      1.955202   151A      1.959074   152A      1.961398
     153A      1.966212   154A      1.972911   155A      1.978078
     156A      1.991173   157A      2.036497   158A      2.049379
     159A      2.052969   160A      2.063631   161A      2.065834
     162A      2.106899   163A      2.117969   164A      2.136507
     165A      2.144936   166A      2.155290   167A      2.197943
     168A      2.227971   169A      2.258394   170A      2.274001
     171A      2.291973   172A      2.298918   173A      2.315925
     174A      2.328446   175A      2.363019   176A      2.422182
     177A      2.447991   178A      2.456567   179A      2.465394
     180A      2.474056   181A      2.485700   182A      2.530386
     183A      2.533181   184A      2.566777   185A      2.575877
     186A      2.601649   187A      2.634874   188A      2.747740
     189A      2.761948   190A      2.770718   191A      2.781982
     192A      2.797275   193A      2.805630   194A      2.836298
     195A      2.854840   196A      2.865845   197A      2.896821
     198A      2.947864   199A      2.959400   200A      2.969521
     201A      2.996150   202A      3.079627   203A      3.100519
     204A      3.248214   205A      3.266977   206A      3.346578
     207A      3.568864   208A      3.668500   209A      3.958033
     210A      4.187967

    Final Occupation by Irrep:
              A
    DOCC [    38 ]

  @RHF Final Energy:  -423.85743048936092

   => Energetics <=

    Nuclear Repulsion Energy =            490.9537010251913784
    One-Electron Energy =               -1547.7191565319424171
    Two-Electron Energy =                 632.9080250173901732
    Total Energy =                       -423.8574304893609224

Computation Completed

Properties will be evaluated at   0.000000,   0.000000,   0.000000 [a0]

Properties computed using the SCF density matrix

  Nuclear Dipole Moment: [e a0]
     X:     5.3316      Y:    12.8904      Z:     8.8308

  Electronic Dipole Moment: [e a0]
     X:    -4.9424      Y:   -13.0774      Z:    -9.2219

  Dipole Moment: [e a0]
     X:     0.3892      Y:    -0.1870      Z:    -0.3911     Total:     0.5825

  Dipole Moment: [D]
     X:     0.9891      Y:    -0.4753      Z:    -0.9940     Total:     1.4807

*** tstop() called on ds3 at Tue Apr 28 14:26:35 2020
Module time:
	user time   =      90.54 seconds =       1.51 minutes
	system time =      40.50 seconds =       0.68 minutes
	total time  =        146 seconds =       2.43 minutes
Total time:
	user time   =      90.54 seconds =       1.51 minutes
	system time =      40.50 seconds =       0.68 minutes
	total time  =        146 seconds =       2.43 minutes
                                     G D M A

                                 by Anthony Stone

                           version 2.2.06, 22 June 2011

               Distributed Multipoles from Gaussian wavefunctions

Starting at 14:26:35 on 28 Apr 2020

Using SCF density matrix from file ./SSI/SSI-113TYR-124THR-1-dimer.test.21761.fchk

                         Distributed Multipole Analysis

Standard DMA

Positions and radii in angstrom
Multipole moments in atomic units, ea_0^k for rank k

C          x =  2.634710  y = -0.448067  z =  0.792975 angstrom
           Maximum rank =  0   Radius =  0.650 angstrom
                   Q00  =  -0.190210

C          x =  0.111710  y = -0.492067  z =  0.810975 angstrom
           Maximum rank =  0   Radius =  0.650 angstrom
                   Q00  =   0.027310

C          x =  1.308710  y = -0.719067  z =  0.124975 angstrom
           Maximum rank =  0   Radius =  0.650 angstrom
                   Q00  =  -0.141518

C          x = -1.120290  y = -0.719067  z =  0.196975 angstrom
           Maximum rank =  0   Radius =  0.650 angstrom
                   Q00  =  -0.112475

C          x =  1.255710  y = -1.179067  z = -1.196025 angstrom
           Maximum rank =  0   Radius =  0.650 angstrom
                   Q00  =  -0.023568

C          x = -1.161290  y = -1.179067  z = -1.118025 angstrom
           Maximum rank =  0   Radius =  0.650 angstrom
                   Q00  =   0.308214

C          x =  0.025710  y = -1.410067  z = -1.821025 angstrom
           Maximum rank =  0   Radius =  0.650 angstrom
                   Q00  =  -0.180847

O          x = -2.366290  y = -1.411067  z = -1.711025 angstrom
           Maximum rank =  0   Radius =  0.650 angstrom
                   Q00  =  -0.673528

H          x =  0.139710  y = -0.130067  z =  1.830975 angstrom
           Maximum rank =  0   Radius =  0.325 angstrom
                   Q00  =   0.064346

H          x = -2.043290  y = -0.543067  z =  0.732975 angstrom
           Maximum rank =  0   Radius =  0.325 angstrom
                   Q00  =   0.081386

H          x =  3.372710  y = -1.156067  z =  0.410975 angstrom
           Maximum rank =  0   Radius =  0.325 angstrom
                   Q00  =   0.095610

H          x =  2.535710  y = -0.623067  z =  1.865975 angstrom
           Maximum rank =  0   Radius =  0.325 angstrom
                   Q00  =   0.095520

H          x =  2.173710  y = -1.365067  z = -1.741025 angstrom
           Maximum rank =  0   Radius =  0.325 angstrom
                   Q00  =   0.069796

H          x = -0.004290  y = -1.770067  z = -2.841025 angstrom
           Maximum rank =  0   Radius =  0.325 angstrom
                   Q00  =   0.073022

H          x = -2.271290  y = -1.790067  z = -2.593025 angstrom
           Maximum rank =  0   Radius =  0.325 angstrom
                   Q00  =   0.406983

H          x =  2.992760  y =  0.579153  z =  0.629835 angstrom
           Maximum rank =  0   Radius =  0.325 angstrom
                   Q00  =   0.099810

C          x = -0.667290  y =  3.150933  z =  1.325975 angstrom
           Maximum rank =  0   Radius =  0.650 angstrom
                   Q00  =  -0.234592

C          x =  0.287710  y =  3.720933  z =  2.371975 angstrom
           Maximum rank =  0   Radius =  0.650 angstrom
                   Q00  =  -0.234850

H          x = -0.118290  y =  2.671933  z =  0.519975 angstrom
           Maximum rank =  0   Radius =  0.325 angstrom
                   Q00  =   0.088414

H          x = -1.301290  y =  2.399933  z =  1.797975 angstrom
           Maximum rank =  0   Radius =  0.325 angstrom
                   Q00  =   0.072496

H          x = -1.321290  y =  3.923933  z =  0.922975 angstrom
           Maximum rank =  0   Radius =  0.325 angstrom
                   Q00  =   0.078504

H          x = -0.297290  y =  4.218933  z =  3.145975 angstrom
           Maximum rank =  0   Radius =  0.325 angstrom
                   Q00  =   0.078034

H          x =  0.983170  y =  4.443643  z =  1.920285 angstrom
           Maximum rank =  0   Radius =  0.325 angstrom
                   Q00  =   0.078966

H          x =  0.858570  y =  2.897393  z =  2.825735 angstrom
           Maximum rank =  0   Radius =  0.325 angstrom
                   Q00  =   0.073175

Total multipoles referred to origin at
           x =   0.000000,  y =    0.000000,  z =    0.000000 angstrom
                   Q00  =  -0.000000

Finished at 14:26:35 on 28 Apr 2020

  DMA results are available in the Python driver through the
	  variable('DMA DISTRIBUTED MULTIPOLES')
  and
	  variable('DMA TOTAL MULTIPOLES')
  commands.

    Psi4 stopped on: Tuesday, 28 April 2020 02:26PM
    Psi4 wall time for execution: 0:02:26.09

*** Psi4 exiting successfully. Buy a developer a beer!
