                               Psi4 1.3.2 release

  ==> Input File <==

--------------------------------------------------------------------------
import numpy as np
set {scf_type pk
basis cc-pvdz
d_convergence 10
gdma_switch   0
gdma_limit    0
gdma_origin   [ 0.0,  0.0,  0.0 ]
}
molecule test {
    units Angstrom
    0 1
    --
    0 1
    C               -0.731661196478927     0.547396811910616    -1.829334767248570
    C               -1.986661196478927    -0.337603188089384    -2.025334767248570
    H               -0.651661196478927     0.872396811910616    -0.793334767248570
    H                0.160338803521073    -0.019603188089384    -2.096334767248570
    H               -0.795661196478927     1.423396811910616    -2.476334767248570
    H               -1.813661196478927    -1.295603188089384    -1.537334767248570
    H               -2.872071196478927     0.142051811910616    -1.582631767248570
    H               -2.148161196478927    -0.532245188089384    -3.095864767248570
    C                1.011338803521073    -0.408603188089384     1.329665232751430
    C                1.696338803521073     0.199396811910616     2.529665232751430
    H                0.004338803521073    -0.010603188089384     1.222665232751430
    H                1.580338803521073    -0.168603188089384     0.431665232751430
    H                0.965338803521073    -1.493603188089384     1.424665232751430
    H                1.828338803521073     1.267396811910616     2.353665232751430
    H                2.693338803521073    -0.234603188089384     2.607665232751430
    H                1.175928803521073     0.042629811910616     3.486012532751430

}
e, wfn = energy('scf', return_wfn=True)
gdma(wfn)
dmavals = variable('DMA DISTRIBUTED MULTIPOLES')
charges = np.array(dmavals)
print(charges)
np.save('SSI-110LEU-127ILE-1-dimer.npy', np.array(charges))--------------------------------------------------------------------------

*** tstart() called on ds3
*** at Mon Apr 27 22:06:47 2020

   => Loading Basis Set <=

    Name: CC-PVDZ
    Role: ORBITAL
    Keyword: BASIS
    atoms 1-2, 9-10  entry C          line   138 file /theoryfs2/ds/metcalf/miniconda2/envs/tf2gpu/share/psi4/basis/cc-pvdz.gbs
    atoms 3-8, 11-16 entry H          line    22 file /theoryfs2/ds/metcalf/miniconda2/envs/tf2gpu/share/psi4/basis/cc-pvdz.gbs

         ---------------------------------------------------------
                                   SCF
               by Justin Turney, Rob Parrish, Andy Simmonett
                          and Daniel G. A. Smith
                              RHF Reference
                        1 Threads,    500 MiB Core
         ---------------------------------------------------------

  ==> Geometry <==

    Molecular point group: c1
    Full point group: C1

    Geometry (in Angstrom), charge = 0, multiplicity = 1:

       Center              X                  Y                   Z               Mass
    ------------   -----------------  -----------------  -----------------  -----------------
         C           -0.731661196479     0.547396811911    -1.829334767249    12.000000000000
         C           -1.986661196479    -0.337603188089    -2.025334767249    12.000000000000
         H           -0.651661196479     0.872396811911    -0.793334767249     1.007825032230
         H            0.160338803521    -0.019603188089    -2.096334767249     1.007825032230
         H           -0.795661196479     1.423396811911    -2.476334767249     1.007825032230
         H           -1.813661196479    -1.295603188089    -1.537334767249     1.007825032230
         H           -2.872071196479     0.142051811911    -1.582631767249     1.007825032230
         H           -2.148161196479    -0.532245188089    -3.095864767249     1.007825032230
         C            1.011338803521    -0.408603188089     1.329665232751    12.000000000000
         C            1.696338803521     0.199396811911     2.529665232751    12.000000000000
         H            0.004338803521    -0.010603188089     1.222665232751     1.007825032230
         H            1.580338803521    -0.168603188089     0.431665232751     1.007825032230
         H            0.965338803521    -1.493603188089     1.424665232751     1.007825032230
         H            1.828338803521     1.267396811911     2.353665232751     1.007825032230
         H            2.693338803521    -0.234603188089     2.607665232751     1.007825032230
         H            1.175928803521     0.042629811911     3.486012532751     1.007825032230

  Running in c1 symmetry.

  Rotational constants: A =      0.57535  B =      0.04548  C =      0.04405 [cm^-1]
  Rotational constants: A =  17248.44936  B =   1363.53952  C =   1320.58269 [MHz]
  Nuclear repulsion =  121.467247867532222

  Charge       = 0
  Multiplicity = 1
  Electrons    = 36
  Nalpha       = 18
  Nbeta        = 18

  ==> Algorithm <==

  SCF Algorithm Type is PK.
  DIIS enabled.
  MOM disabled.
  Fractional occupation disabled.
  Guess Type is SAD.
  Energy threshold   = 1.00e-06
  Density threshold  = 1.00e-10
  Integral threshold = 0.00e+00

  ==> Primary Basis <==

  Basis Set: CC-PVDZ
    Blend: CC-PVDZ
    Number of shells: 60
    Number of basis function: 116
    Number of Cartesian functions: 120
    Spherical Harmonics?: true
    Max angular momentum: 2

  ==> Pre-Iterations <==

   -------------------------------------------------------
    Irrep   Nso     Nmo     Nalpha   Nbeta   Ndocc  Nsocc
   -------------------------------------------------------
     A        116     116       0       0       0       0
   -------------------------------------------------------
    Total     116     116      18      18      18       0
   -------------------------------------------------------

  ==> Integral Setup <==

  Using integral reordering PK algorithm.
  Sizing the integral batches needed.
  Building batch lookup table.
   Calculation information:
      Number of atoms:                  16
      Number of AO shells:              60
      Number of primitives:            148
      Number of atomic orbitals:       120
      Number of basis functions:       116

      Integral cutoff                 1.00e-12
      Number of threads:                 1

	Batch   1 pq = [       0,    6786] index = [             0,23028291] size =     23028291
  Task number: 3
  Buffer size: 11059200
  Buffer per thread: 2
  We computed 1397844 shell quartets total.
  Whereas there are 1675365 unique shell quartets.

  ==> DiskJK: Disk-Based J/K Matrices <==

    J tasked:                  Yes
    K tasked:                  Yes
    wK tasked:                  No
    Memory [MiB]:              375
    Schwarz Cutoff:          1E-12

    OpenMP threads:              1

  Minimum eigenvalue in the overlap matrix is 7.0329037748E-03.
  Using Symmetric Orthogonalization.

  SCF Guess: Superposition of Atomic Densities via on-the-fly atomic UHF.

  ==> Iterations <==

                        Total Energy        Delta E     RMS |[F,P]|

   @RHF iter SAD:  -157.35453356632615   -1.57355e+02   0.00000e+00
   @RHF iter   1:  -158.30654590544773   -9.52012e-01   4.21593e-03 DIIS
   @RHF iter   2:  -158.44015505180755   -1.33609e-01   1.79520e-03 DIIS
   @RHF iter   3:  -158.46352800262051   -2.33730e-02   3.49164e-04 DIIS
   @RHF iter   4:  -158.46535248476289   -1.82448e-03   3.86310e-05 DIIS
   @RHF iter   5:  -158.46537567964637   -2.31949e-05   6.77223e-06 DIIS
   @RHF iter   6:  -158.46537631487746   -6.35231e-07   1.47994e-06 DIIS
   @RHF iter   7:  -158.46537633457541   -1.96979e-08   3.16015e-07 DIIS
   @RHF iter   8:  -158.46537633557659   -1.00118e-09   3.88654e-08 DIIS
   @RHF iter   9:  -158.46537633559797   -2.13731e-11   8.51323e-09 DIIS
   @RHF iter  10:  -158.46537633559907   -1.10845e-12   2.33863e-09 DIIS
   @RHF iter  11:  -158.46537633559845    6.25278e-13   6.92535e-10 DIIS
   @RHF iter  12:  -158.46537633559873   -2.84217e-13   1.64402e-10 DIIS
   @RHF iter  13:  -158.46537633559907   -3.41061e-13   2.33812e-11 DIIS
  Energy and wave function converged.

  ==> Post-Iterations <==

    Orbital Energies [Eh]
    ---------------------

    Doubly Occupied:

       1A    -11.219942     2A    -11.216887     3A    -11.216760
       4A    -11.215557     5A     -1.023534     6A     -1.012586
       7A     -0.839886     8A     -0.834656     9A     -0.603341
      10A     -0.599716    11A     -0.595443    12A     -0.592290
      13A     -0.509045    14A     -0.494492    15A     -0.491003
      16A     -0.486567    17A     -0.483041    18A     -0.477946

    Virtual:

      19A      0.174587    20A      0.195007    21A      0.223475
      22A      0.238496    23A      0.243528    24A      0.256882
      25A      0.264472    26A      0.273709    27A      0.283834
      28A      0.288445    29A      0.299983    30A      0.351412
      31A      0.396458    32A      0.401551    33A      0.565704
      34A      0.594468    35A      0.599799    36A      0.601648
      37A      0.614947    38A      0.628089    39A      0.664716
      40A      0.687820    41A      0.695942    42A      0.795441
      43A      0.835305    44A      0.859814    45A      0.880927
      46A      0.889376    47A      0.894521    48A      0.895459
      49A      0.899340    50A      0.909522    51A      0.916658
      52A      0.924131    53A      0.935945    54A      0.954498
      55A      0.970383    56A      0.984197    57A      1.121203
      58A      1.128732    59A      1.130455    60A      1.161968
      61A      1.223887    62A      1.256637    63A      1.463412
      64A      1.465856    65A      1.483482    66A      1.490975
      67A      1.560644    68A      1.591311    69A      1.680295
      70A      1.685731    71A      1.692774    72A      1.708253
      73A      1.857019    74A      1.862158    75A      1.874821
      76A      1.880650    77A      1.887724    78A      1.908569
      79A      1.936686    80A      1.938688    81A      1.941232
      82A      1.943133    83A      1.955207    84A      1.959558
      85A      1.962629    86A      1.965939    87A      1.980313
      88A      2.032434    89A      2.083084    90A      2.108851
      91A      2.123865    92A      2.135340    93A      2.292037
      94A      2.304278    95A      2.312832    96A      2.334344
      97A      2.442568    98A      2.450899    99A      2.460882
     100A      2.482788   101A      2.554522   102A      2.565767
     103A      2.578429   104A      2.583127   105A      2.760902
     106A      2.765697   107A      2.784101   108A      2.797518
     109A      2.841354   110A      2.848326   111A      2.861898
     112A      2.880158   113A      2.934930   114A      2.954097
     115A      2.967651   116A      2.976508

    Final Occupation by Irrep:
              A
    DOCC [    18 ]

  @RHF Final Energy:  -158.46537633559907

   => Energetics <=

    Nuclear Repulsion Energy =            121.4672478675322225
    One-Electron Energy =                -452.0398594399310923
    Two-Electron Energy =                 172.1072352367997667
    Total Energy =                       -158.4653763355990748

Computation Completed

Properties will be evaluated at   0.000000,   0.000000,   0.000000 [a0]

Properties computed using the SCF density matrix

  Nuclear Dipole Moment: [e a0]
     X:     0.1188      Y:    -0.0066      Z:    -0.0520

  Electronic Dipole Moment: [e a0]
     X:    -0.0948      Y:     0.0020      Z:     0.0522

  Dipole Moment: [e a0]
     X:     0.0241      Y:    -0.0045      Z:     0.0002     Total:     0.0245

  Dipole Moment: [D]
     X:     0.0611      Y:    -0.0115      Z:     0.0005     Total:     0.0622

*** tstop() called on ds3 at Mon Apr 27 22:06:57 2020
Module time:
	user time   =       7.81 seconds =       0.13 minutes
	system time =       3.09 seconds =       0.05 minutes
	total time  =         10 seconds =       0.17 minutes
Total time:
	user time   =       7.81 seconds =       0.13 minutes
	system time =       3.09 seconds =       0.05 minutes
	total time  =         10 seconds =       0.17 minutes
                                     G D M A

                                 by Anthony Stone

                           version 2.2.06, 22 June 2011

               Distributed Multipoles from Gaussian wavefunctions

Starting at 22:6:58 on 27 Apr 2020

Using SCF density matrix from file ./SSI/SSI-110LEU-127ILE-1-dimer.test.32155.fchk

                         Distributed Multipole Analysis

Standard DMA

Positions and radii in angstrom
Multipole moments in atomic units, ea_0^k for rank k

C          x = -0.731661  y =  0.547397  z = -1.829335 angstrom
           Maximum rank =  0   Radius =  0.650 angstrom
                   Q00  =  -0.252256

C          x = -1.986661  y = -0.337603  z = -2.025335 angstrom
           Maximum rank =  0   Radius =  0.650 angstrom
                   Q00  =  -0.233041

H          x = -0.651661  y =  0.872397  z = -0.793335 angstrom
           Maximum rank =  0   Radius =  0.325 angstrom
                   Q00  =   0.085809

H          x =  0.160339  y = -0.019603  z = -2.096335 angstrom
           Maximum rank =  0   Radius =  0.325 angstrom
                   Q00  =   0.079999

H          x = -0.795661  y =  1.423397  z = -2.476335 angstrom
           Maximum rank =  0   Radius =  0.325 angstrom
                   Q00  =   0.078234

H          x = -1.813661  y = -1.295603  z = -1.537335 angstrom
           Maximum rank =  0   Radius =  0.325 angstrom
                   Q00  =   0.079473

H          x = -2.872071  y =  0.142052  z = -1.582632 angstrom
           Maximum rank =  0   Radius =  0.325 angstrom
                   Q00  =   0.080775

H          x = -2.148161  y = -0.532245  z = -3.095865 angstrom
           Maximum rank =  0   Radius =  0.325 angstrom
                   Q00  =   0.080390

C          x =  1.011339  y = -0.408603  z =  1.329665 angstrom
           Maximum rank =  0   Radius =  0.650 angstrom
                   Q00  =  -0.226718

C          x =  1.696339  y =  0.199397  z =  2.529665 angstrom
           Maximum rank =  0   Radius =  0.650 angstrom
                   Q00  =  -0.235889

H          x =  0.004339  y = -0.010603  z =  1.222665 angstrom
           Maximum rank =  0   Radius =  0.325 angstrom
                   Q00  =   0.076370

H          x =  1.580339  y = -0.168603  z =  0.431665 angstrom
           Maximum rank =  0   Radius =  0.325 angstrom
                   Q00  =   0.078879

H          x =  0.965339  y = -1.493603  z =  1.424665 angstrom
           Maximum rank =  0   Radius =  0.325 angstrom
                   Q00  =   0.077303

H          x =  1.828339  y =  1.267397  z =  2.353665 angstrom
           Maximum rank =  0   Radius =  0.325 angstrom
                   Q00  =   0.075590

H          x =  2.693339  y = -0.234603  z =  2.607665 angstrom
           Maximum rank =  0   Radius =  0.325 angstrom
                   Q00  =   0.074507

H          x =  1.175929  y =  0.042630  z =  3.486013 angstrom
           Maximum rank =  0   Radius =  0.325 angstrom
                   Q00  =   0.080576

Total multipoles referred to origin at
           x =   0.000000,  y =    0.000000,  z =    0.000000 angstrom
                   Q00  =  -0.000000

Finished at 22:6:58 on 27 Apr 2020

  DMA results are available in the Python driver through the
	  variable('DMA DISTRIBUTED MULTIPOLES')
  and
	  variable('DMA TOTAL MULTIPOLES')
  commands.

    Psi4 stopped on: Monday, 27 April 2020 10:06PM
    Psi4 wall time for execution: 0:00:10.74

*** Psi4 exiting successfully. Buy a developer a beer!
