                               Psi4 1.3.2 release

  ==> Input File <==

--------------------------------------------------------------------------
import numpy as np
set {scf_type pk
basis cc-pvdz
d_convergence 10
gdma_switch   0
gdma_limit    0
gdma_origin   [ 0.0,  0.0,  0.0 ]
}
molecule test {
    units Angstrom
    0 1
    --
    0 1
    C                2.888592346601794    -2.258963989017852    -0.702994531815212
    C                0.081592346601794    -0.712963989017852     1.269005468184788
    C                0.828592346601794    -1.578963989017852     0.520005468184788
    C                0.554592346601794     0.523036010982148     1.537005468184788
    C                2.094592346601794    -1.238963989017852     0.052005468184788
    C                1.807592346601794     0.905036010982148     1.100005468184788
    C                2.598592346601794     0.010036010982148     0.351005468184788
    H               -0.880407653398206    -1.021963989017852     1.653005468184788
    H                0.433592346601794    -2.558963989017851     0.298005468184788
    H               -0.047407653398206     1.211036010982149     2.113005468184789
    H                2.190592346601794     1.885036010982148     1.353005468184788
    H                2.685592346601794    -3.243963989017852    -0.276994531815212
    H                3.949592346601793    -2.055963989017851    -0.555994531815212
    H                3.588592346601794     0.299036010982148     0.024005468184788
    H                2.658512346601793    -2.283483989017852    -1.778383531815212
    C               -2.380407653398207     0.845036010982149    -0.604994531815212
    C               -3.893407653398206     0.683036010982148    -0.636994531815212
    C               -1.750407653398206     0.297036010982148    -1.873994531815212
    C               -1.948407653398206     2.292036010982148    -0.445994531815212
    H               -1.992407653398206     0.276036010982148     0.225005468184788
    H               -4.111407653398206    -0.349963989017852    -0.909994531815212
    H               -4.304407653398206     1.327036010982148    -1.414994531815212
    H               -2.134407653398206     0.832036010982149    -2.741994531815212
    H               -0.665407653398206     0.395036010982148    -1.818994531815212
    H               -1.980407653398206    -0.756963989017851    -1.988994531815212
    H               -2.376407653398206     2.719036010982149     0.459005468184788
    H               -0.861407653398206     2.338036010982148    -0.363994531815212
    H               -2.263407653398207     2.875036010982149    -1.311994531815212
    H               -4.385047653398206     0.907296010982149     0.321128468184788

}
e, wfn = energy('scf', return_wfn=True)
gdma(wfn)
dmavals = variable('DMA DISTRIBUTED MULTIPOLES')
charges = np.array(dmavals)
print(charges)
np.save('SSI-046PHE-121LEU-1-dimer.npy', np.array(charges))--------------------------------------------------------------------------

*** tstart() called on ds3
*** at Tue Apr 28 12:35:10 2020

   => Loading Basis Set <=

    Name: CC-PVDZ
    Role: ORBITAL
    Keyword: BASIS
    atoms 1-7, 16-19  entry C          line   138 file /theoryfs2/ds/metcalf/miniconda2/envs/tf2gpu/share/psi4/basis/cc-pvdz.gbs
    atoms 8-15, 20-29 entry H          line    22 file /theoryfs2/ds/metcalf/miniconda2/envs/tf2gpu/share/psi4/basis/cc-pvdz.gbs

         ---------------------------------------------------------
                                   SCF
               by Justin Turney, Rob Parrish, Andy Simmonett
                          and Daniel G. A. Smith
                              RHF Reference
                        1 Threads,    500 MiB Core
         ---------------------------------------------------------

  ==> Geometry <==

    Molecular point group: c1
    Full point group: C1

    Geometry (in Angstrom), charge = 0, multiplicity = 1:

       Center              X                  Y                   Z               Mass
    ------------   -----------------  -----------------  -----------------  -----------------
         C            2.888592346602    -2.258963989018    -0.702994531815    12.000000000000
         C            0.081592346602    -0.712963989018     1.269005468185    12.000000000000
         C            0.828592346602    -1.578963989018     0.520005468185    12.000000000000
         C            0.554592346602     0.523036010982     1.537005468185    12.000000000000
         C            2.094592346602    -1.238963989018     0.052005468185    12.000000000000
         C            1.807592346602     0.905036010982     1.100005468185    12.000000000000
         C            2.598592346602     0.010036010982     0.351005468185    12.000000000000
         H           -0.880407653398    -1.021963989018     1.653005468185     1.007825032230
         H            0.433592346602    -2.558963989018     0.298005468185     1.007825032230
         H           -0.047407653398     1.211036010982     2.113005468185     1.007825032230
         H            2.190592346602     1.885036010982     1.353005468185     1.007825032230
         H            2.685592346602    -3.243963989018    -0.276994531815     1.007825032230
         H            3.949592346602    -2.055963989018    -0.555994531815     1.007825032230
         H            3.588592346602     0.299036010982     0.024005468185     1.007825032230
         H            2.658512346602    -2.283483989018    -1.778383531815     1.007825032230
         C           -2.380407653398     0.845036010982    -0.604994531815    12.000000000000
         C           -3.893407653398     0.683036010982    -0.636994531815    12.000000000000
         C           -1.750407653398     0.297036010982    -1.873994531815    12.000000000000
         C           -1.948407653398     2.292036010982    -0.445994531815    12.000000000000
         H           -1.992407653398     0.276036010982     0.225005468185     1.007825032230
         H           -4.111407653398    -0.349963989018    -0.909994531815     1.007825032230
         H           -4.304407653398     1.327036010982    -1.414994531815     1.007825032230
         H           -2.134407653398     0.832036010982    -2.741994531815     1.007825032230
         H           -0.665407653398     0.395036010982    -1.818994531815     1.007825032230
         H           -1.980407653398    -0.756963989018    -1.988994531815     1.007825032230
         H           -2.376407653398     2.719036010982     0.459005468185     1.007825032230
         H           -0.861407653398     2.338036010982    -0.363994531815     1.007825032230
         H           -2.263407653398     2.875036010982    -1.311994531815     1.007825032230
         H           -4.385047653398     0.907296010982     0.321128468185     1.007825032230

  Running in c1 symmetry.

  Rotational constants: A =      0.05888  B =      0.01722  C =      0.01566 [cm^-1]
  Rotational constants: A =   1765.04930  B =    516.21687  C =    469.60417 [MHz]
  Nuclear repulsion =  592.363490982181816

  Charge       = 0
  Multiplicity = 1
  Electrons    = 84
  Nalpha       = 42
  Nbeta        = 42

  ==> Algorithm <==

  SCF Algorithm Type is PK.
  DIIS enabled.
  MOM disabled.
  Fractional occupation disabled.
  Guess Type is SAD.
  Energy threshold   = 1.00e-06
  Density threshold  = 1.00e-10
  Integral threshold = 0.00e+00

  ==> Primary Basis <==

  Basis Set: CC-PVDZ
    Blend: CC-PVDZ
    Number of shells: 120
    Number of basis function: 244
    Number of Cartesian functions: 255
    Spherical Harmonics?: true
    Max angular momentum: 2

  ==> Pre-Iterations <==

   -------------------------------------------------------
    Irrep   Nso     Nmo     Nalpha   Nbeta   Ndocc  Nsocc
   -------------------------------------------------------
     A        244     244       0       0       0       0
   -------------------------------------------------------
    Total     244     244      42      42      42       0
   -------------------------------------------------------

  ==> Integral Setup <==

  Using integral reordering PK algorithm.
  Sizing the integral batches needed.
  Building batch lookup table.
   Calculation information:
      Number of atoms:                  29
      Number of AO shells:             120
      Number of primitives:            332
      Number of atomic orbitals:       255
      Number of basis functions:       244

      Integral cutoff                 1.00e-12
      Number of threads:                 1

	Batch   1 pq = [       0,    9405] index = [             0,44231715] size =     44231715
	Batch   2 pq = [    9405,   13301] index = [      44231715,88464951] size =     44233236
	Batch   3 pq = [   13301,   16290] index = [      88464951,132690195] size =     44225244
	Batch   4 pq = [   16290,   18810] index = [     132690195,176917455] size =     44227260
	Batch   5 pq = [   18810,   21030] index = [     176917455,221140965] size =     44223510
	Batch   6 pq = [   21030,   23037] index = [     221140965,265363203] size =     44222238
	Batch   7 pq = [   23037,   24883] index = [     265363203,309594286] size =     44231083
	Batch   8 pq = [   24883,   26601] index = [     309594286,353819901] size =     44225615
	Batch   9 pq = [   26601,   28214] index = [     353819901,398029005] size =     44209104
	Batch  10 pq = [   28214,   29740] index = [     398029005,442248670] size =     44219665
	Batch  11 pq = [   29740,   29890] index = [     442248670,446720995] size =      4472325
  Task number: 41
  Buffer size: 11059200
  Buffer per thread: 2
  We computed 27403652 shell quartets total.
  Whereas there are 26357430 unique shell quartets.
     3.97 percent of shell quartets recomputed by reordering.

  ==> DiskJK: Disk-Based J/K Matrices <==

    J tasked:                  Yes
    K tasked:                  Yes
    wK tasked:                  No
    Memory [MiB]:              375
    Schwarz Cutoff:          1E-12

    OpenMP threads:              1

  Minimum eigenvalue in the overlap matrix is 2.8611969229E-04.
  Using Symmetric Orthogonalization.

  SCF Guess: Superposition of Atomic Densities via on-the-fly atomic UHF.

  ==> Iterations <==

                        Total Energy        Delta E     RMS |[F,P]|

   @RHF iter SAD:  -426.20100532295874   -4.26201e+02   0.00000e+00
   @RHF iter   1:  -426.75830173780844   -5.57296e-01   2.70617e-03 DIIS
   @RHF iter   2:  -427.01384894127546   -2.55547e-01   1.16942e-03 DIIS
   @RHF iter   3:  -427.05750340237603   -4.36545e-02   2.52345e-04 DIIS
   @RHF iter   4:  -427.06090503927970   -3.40164e-03   6.17657e-05 DIIS
   @RHF iter   5:  -427.06105065330672   -1.45614e-04   1.42982e-05 DIIS
   @RHF iter   6:  -427.06105958397040   -8.93066e-06   4.97658e-06 DIIS
   @RHF iter   7:  -427.06106062352086   -1.03955e-06   1.14653e-06 DIIS
   @RHF iter   8:  -427.06106072776885   -1.04248e-07   3.95114e-07 DIIS
   @RHF iter   9:  -427.06106075108232   -2.33135e-08   1.67658e-07 DIIS
   @RHF iter  10:  -427.06106075708595   -6.00363e-09   7.31429e-08 DIIS
   @RHF iter  11:  -427.06106075817598   -1.09003e-09   2.46796e-08 DIIS
   @RHF iter  12:  -427.06106075828512   -1.09139e-10   7.04478e-09 DIIS
   @RHF iter  13:  -427.06106075829507   -9.94760e-12   2.23791e-09 DIIS
   @RHF iter  14:  -427.06106075829865   -3.58114e-12   5.46060e-10 DIIS
   @RHF iter  15:  -427.06106075829632    2.33058e-12   1.90211e-10 DIIS
   @RHF iter  16:  -427.06106075829348    2.84217e-12   6.19306e-11 DIIS
  Energy and wave function converged.

  ==> Post-Iterations <==

    Orbital Energies [Eh]
    ---------------------

    Doubly Occupied:

       1A    -11.238696     2A    -11.236892     3A    -11.232762
       4A    -11.229496     5A    -11.228463     6A    -11.226277
       7A    -11.225456     8A    -11.211207     9A    -11.209738
      10A    -11.205088    11A    -11.203583    12A     -1.162488
      13A     -1.080409    14A     -1.052784    15A     -1.014614
      16A     -0.934833    17A     -0.923850    18A     -0.917988
      19A     -0.831001    20A     -0.796543    21A     -0.759517
      22A     -0.696372    23A     -0.637419    24A     -0.631804
      25A     -0.627314    26A     -0.586615    27A     -0.584711
      28A     -0.581102    29A     -0.579000    30A     -0.564900
      31A     -0.536369    32A     -0.530696    33A     -0.527170
      34A     -0.500622    35A     -0.494128    36A     -0.487438
      37A     -0.482135    38A     -0.454643    39A     -0.452458
      40A     -0.448577    41A     -0.334838    42A     -0.325577

    Virtual:

      43A      0.133679    44A      0.143594    45A      0.170741
      46A      0.192928    47A      0.203138    48A      0.211451
      49A      0.227129    50A      0.235159    51A      0.241511
      52A      0.253636    53A      0.256751    54A      0.263536
      55A      0.273807    56A      0.278359    57A      0.288510
      58A      0.290844    59A      0.308637    60A      0.318236
      61A      0.334953    62A      0.341203    63A      0.368832
      64A      0.377222    65A      0.385999    66A      0.413691
      67A      0.416516    68A      0.457974    69A      0.469679
      70A      0.478039    71A      0.493091    72A      0.563668
      73A      0.566809    74A      0.577031    75A      0.594817
      76A      0.613894    77A      0.619291    78A      0.626215
      79A      0.639200    80A      0.685327    81A      0.692286
      82A      0.704144    83A      0.731093    84A      0.743896
      85A      0.744553    86A      0.750497    87A      0.756127
      88A      0.762113    89A      0.770061    90A      0.780754
      91A      0.788580    92A      0.813619    93A      0.823975
      94A      0.843124    95A      0.846982    96A      0.859119
      97A      0.862807    98A      0.872183    99A      0.879636
     100A      0.882194   101A      0.891809   102A      0.899013
     103A      0.901990   104A      0.911133   105A      0.914144
     106A      0.919440   107A      0.927149   108A      0.930059
     109A      0.937409   110A      0.949603   111A      0.960780
     112A      0.964740   113A      0.975737   114A      0.982876
     115A      0.996688   116A      0.998047   117A      1.019690
     118A      1.035270   119A      1.042708   120A      1.080631
     121A      1.130006   122A      1.134430   123A      1.144758
     124A      1.156292   125A      1.159903   126A      1.166458
     127A      1.187520   128A      1.225324   129A      1.239731
     130A      1.259606   131A      1.271862   132A      1.282069
     133A      1.308808   134A      1.315896   135A      1.330143
     136A      1.347743   137A      1.387670   138A      1.413287
     139A      1.421330   140A      1.463203   141A      1.511498
     142A      1.520322   143A      1.550995   144A      1.563266
     145A      1.585381   146A      1.597300   147A      1.671421
     148A      1.678251   149A      1.679475   150A      1.689542
     151A      1.698574   152A      1.702287   153A      1.713267
     154A      1.721407   155A      1.728067   156A      1.757826
     157A      1.765315   158A      1.783061   159A      1.804164
     160A      1.820111   161A      1.858432   162A      1.865774
     163A      1.869502   164A      1.885272   165A      1.899613
     166A      1.901044   167A      1.914750   168A      1.919691
     169A      1.934166   170A      1.936307   171A      1.947525
     172A      1.956241   173A      1.962874   174A      1.968664
     175A      1.973912   176A      1.981861   177A      1.987107
     178A      1.994438   179A      2.000674   180A      2.013992
     181A      2.024847   182A      2.046051   183A      2.054980
     184A      2.060932   185A      2.087339   186A      2.098445
     187A      2.103406   188A      2.118806   189A      2.138413
     190A      2.142486   191A      2.158832   192A      2.168165
     193A      2.175243   194A      2.186909   195A      2.192510
     196A      2.210936   197A      2.259574   198A      2.262118
     199A      2.274716   200A      2.281935   201A      2.299382
     202A      2.308906   203A      2.316706   204A      2.324952
     205A      2.330948   206A      2.341320   207A      2.354605
     208A      2.384788   209A      2.399545   210A      2.474091
     211A      2.483476   212A      2.495733   213A      2.506473
     214A      2.554850   215A      2.610154   216A      2.624246
     217A      2.632256   218A      2.654125   219A      2.730568
     220A      2.741279   221A      2.746470   222A      2.765584
     223A      2.773313   224A      2.774524   225A      2.798169
     226A      2.802276   227A      2.808634   228A      2.817082
     229A      2.818235   230A      2.849525   231A      2.857773
     232A      2.864977   233A      2.879336   234A      2.890631
     235A      3.009223   236A      3.030476   237A      3.039701
     238A      3.042494   239A      3.062475   240A      3.168344
     241A      3.191655   242A      3.228310   243A      3.326109
     244A      4.016872

    Final Occupation by Irrep:
              A
    DOCC [    42 ]

  @RHF Final Energy:  -427.06106075829348

   => Energetics <=

    Nuclear Repulsion Energy =            592.3634909821818155
    One-Electron Energy =               -1750.8779564099163508
    Two-Electron Energy =                 731.4534046694411700
    Total Energy =                       -427.0610607582934790

Computation Completed

Properties will be evaluated at   0.000000,   0.000000,   0.000000 [a0]

Properties computed using the SCF density matrix

  Nuclear Dipole Moment: [e a0]
     X:    -9.8397      Y:     2.6187      Z:    -6.2962

  Electronic Dipole Moment: [e a0]
     X:    10.0453      Y:    -2.7896      Z:     6.3250

  Dipole Moment: [e a0]
     X:     0.2055      Y:    -0.1709      Z:     0.0288     Total:     0.2689

  Dipole Moment: [D]
     X:     0.5224      Y:    -0.4344      Z:     0.0732     Total:     0.6834

*** tstop() called on ds3 at Tue Apr 28 12:41:05 2020
Module time:
	user time   =     189.13 seconds =       3.15 minutes
	system time =      66.98 seconds =       1.12 minutes
	total time  =        355 seconds =       5.92 minutes
Total time:
	user time   =     189.13 seconds =       3.15 minutes
	system time =      66.98 seconds =       1.12 minutes
	total time  =        355 seconds =       5.92 minutes
                                     G D M A

                                 by Anthony Stone

                           version 2.2.06, 22 June 2011

               Distributed Multipoles from Gaussian wavefunctions

Starting at 12:41:5 on 28 Apr 2020

Using SCF density matrix from file ./SSI/SSI-046PHE-121LEU-1-dimer.test.15115.fchk

                         Distributed Multipole Analysis

Standard DMA

Positions and radii in angstrom
Multipole moments in atomic units, ea_0^k for rank k

C          x =  2.888592  y = -2.258964  z = -0.702995 angstrom
           Maximum rank =  0   Radius =  0.650 angstrom
                   Q00  =  -0.204910

C          x =  0.081592  y = -0.712964  z =  1.269005 angstrom
           Maximum rank =  0   Radius =  0.650 angstrom
                   Q00  =  -0.067328

C          x =  0.828592  y = -1.578964  z =  0.520005 angstrom
           Maximum rank =  0   Radius =  0.650 angstrom
                   Q00  =   0.000067

C          x =  0.554592  y =  0.523036  z =  1.537005 angstrom
           Maximum rank =  0   Radius =  0.650 angstrom
                   Q00  =  -0.050520

C          x =  2.094592  y = -1.238964  z =  0.052005 angstrom
           Maximum rank =  0   Radius =  0.650 angstrom
                   Q00  =  -0.101745

C          x =  1.807592  y =  0.905036  z =  1.100005 angstrom
           Maximum rank =  0   Radius =  0.650 angstrom
                   Q00  =  -0.082803

C          x =  2.598592  y =  0.010036  z =  0.351005 angstrom
           Maximum rank =  0   Radius =  0.650 angstrom
                   Q00  =  -0.083042

H          x = -0.880408  y = -1.021964  z =  1.653005 angstrom
           Maximum rank =  0   Radius =  0.325 angstrom
                   Q00  =   0.059218

H          x =  0.433592  y = -2.558964  z =  0.298005 angstrom
           Maximum rank =  0   Radius =  0.325 angstrom
                   Q00  =   0.051029

H          x = -0.047408  y =  1.211036  z =  2.113005 angstrom
           Maximum rank =  0   Radius =  0.325 angstrom
                   Q00  =   0.056524

H          x =  2.190592  y =  1.885036  z =  1.353005 angstrom
           Maximum rank =  0   Radius =  0.325 angstrom
                   Q00  =   0.065727

H          x =  2.685592  y = -3.243964  z = -0.276995 angstrom
           Maximum rank =  0   Radius =  0.325 angstrom
                   Q00  =   0.097059

H          x =  3.949592  y = -2.055964  z = -0.555995 angstrom
           Maximum rank =  0   Radius =  0.325 angstrom
                   Q00  =   0.097658

H          x =  3.588592  y =  0.299036  z =  0.024005 angstrom
           Maximum rank =  0   Radius =  0.325 angstrom
                   Q00  =   0.060811

H          x =  2.658512  y = -2.283484  z = -1.778384 angstrom
           Maximum rank =  0   Radius =  0.325 angstrom
                   Q00  =   0.105591

C          x = -2.380408  y =  0.845036  z = -0.604995 angstrom
           Maximum rank =  0   Radius =  0.650 angstrom
                   Q00  =   0.025531

C          x = -3.893408  y =  0.683036  z = -0.636995 angstrom
           Maximum rank =  0   Radius =  0.650 angstrom
                   Q00  =  -0.254335

C          x = -1.750408  y =  0.297036  z = -1.873995 angstrom
           Maximum rank =  0   Radius =  0.650 angstrom
                   Q00  =  -0.243600

C          x = -1.948408  y =  2.292036  z = -0.445995 angstrom
           Maximum rank =  0   Radius =  0.650 angstrom
                   Q00  =  -0.240333

H          x = -1.992408  y =  0.276036  z =  0.225005 angstrom
           Maximum rank =  0   Radius =  0.325 angstrom
                   Q00  =   0.013530

H          x = -4.111408  y = -0.349964  z = -0.909995 angstrom
           Maximum rank =  0   Radius =  0.325 angstrom
                   Q00  =   0.074947

H          x = -4.304408  y =  1.327036  z = -1.414995 angstrom
           Maximum rank =  0   Radius =  0.325 angstrom
                   Q00  =   0.073655

H          x = -2.134408  y =  0.832036  z = -2.741995 angstrom
           Maximum rank =  0   Radius =  0.325 angstrom
                   Q00  =   0.070440

H          x = -0.665408  y =  0.395036  z = -1.818995 angstrom
           Maximum rank =  0   Radius =  0.325 angstrom
                   Q00  =   0.089317

H          x = -1.980408  y = -0.756964  z = -1.988995 angstrom
           Maximum rank =  0   Radius =  0.325 angstrom
                   Q00  =   0.074103

H          x = -2.376408  y =  2.719036  z =  0.459005 angstrom
           Maximum rank =  0   Radius =  0.325 angstrom
                   Q00  =   0.072220

H          x = -0.861408  y =  2.338036  z = -0.363995 angstrom
           Maximum rank =  0   Radius =  0.325 angstrom
                   Q00  =   0.086155

H          x = -2.263408  y =  2.875036  z = -1.311995 angstrom
           Maximum rank =  0   Radius =  0.325 angstrom
                   Q00  =   0.073961

H          x = -4.385048  y =  0.907296  z =  0.321128 angstrom
           Maximum rank =  0   Radius =  0.325 angstrom
                   Q00  =   0.081074

Total multipoles referred to origin at
           x =   0.000000,  y =    0.000000,  z =    0.000000 angstrom
                   Q00  =  -0.000000

Finished at 12:41:5 on 28 Apr 2020

  DMA results are available in the Python driver through the
	  variable('DMA DISTRIBUTED MULTIPOLES')
  and
	  variable('DMA TOTAL MULTIPOLES')
  commands.

    Psi4 stopped on: Tuesday, 28 April 2020 12:41PM
    Psi4 wall time for execution: 0:05:54.81

*** Psi4 exiting successfully. Buy a developer a beer!
