                               Psi4 1.3.2 release

  ==> Input File <==

--------------------------------------------------------------------------
import numpy as np
set {scf_type pk
basis cc-pvdz
d_convergence 10
gdma_switch   0
gdma_limit    0
gdma_origin   [ 0.0,  0.0,  0.0 ]
}
molecule test {
    units Angstrom
    0 1
    --
    0 1
    C               -0.094537496334301     1.349284640280437    -0.004661663077765
    C               -1.582537496334301     1.703284640280437     0.037338336922235
    C                0.302462503665699     0.662284640280437    -1.297661663077766
    O               -0.479537496334301    -0.072715359719563    -1.904661663077766
    N                1.535462503665699     0.893284640280437    -1.727661663077765
    H                0.489462503665699     2.264284640280437     0.116338336922234
    H                0.160462503665699     0.704284640280437     0.825338336922234
    H               -2.154537496334302     0.812284640280437    -0.236661663077766
    H                1.838462503665699     0.449284640280437    -2.582661663077765
    H                2.161462503665699     1.486284640280437    -1.202661663077765
    H               -1.804785496334301     2.500364340280437    -0.687416663077765
    H               -1.890273496334301     1.995128240280437     1.052289476922235
    C                0.007462503665699    -1.548715359719563     2.047338336922234
    C                0.243462503665699    -2.861715359719563     2.780338336922235
    H               -0.512537496334301    -0.846715359719563     2.699338336922235
    H                0.980462503665699    -1.127715359719563     1.790338336922235
    H               -0.561537496334301    -1.703715359719563     1.129338336922235
    H                0.898462503665699    -2.657715359719563     3.628338336922234
    H               -0.699227496334301    -3.276242359719563     3.166991336922234
    H                0.750032503665699    -3.575262359719563     2.113830336922235

}
e, wfn = energy('scf', return_wfn=True)
gdma(wfn)
dmavals = variable('DMA DISTRIBUTED MULTIPOLES')
charges = np.array(dmavals)
print(charges)
np.save('SSI-019ASN-053VAL-1-dimer.npy', np.array(charges))--------------------------------------------------------------------------

*** tstart() called on ds3
*** at Tue Apr 28 12:10:23 2020

   => Loading Basis Set <=

    Name: CC-PVDZ
    Role: ORBITAL
    Keyword: BASIS
    atoms 1-3, 13-14  entry C          line   138 file /theoryfs2/ds/metcalf/miniconda2/envs/tf2gpu/share/psi4/basis/cc-pvdz.gbs
    atoms 4           entry O          line   198 file /theoryfs2/ds/metcalf/miniconda2/envs/tf2gpu/share/psi4/basis/cc-pvdz.gbs
    atoms 5           entry N          line   168 file /theoryfs2/ds/metcalf/miniconda2/envs/tf2gpu/share/psi4/basis/cc-pvdz.gbs
    atoms 6-12, 15-20 entry H          line    22 file /theoryfs2/ds/metcalf/miniconda2/envs/tf2gpu/share/psi4/basis/cc-pvdz.gbs

         ---------------------------------------------------------
                                   SCF
               by Justin Turney, Rob Parrish, Andy Simmonett
                          and Daniel G. A. Smith
                              RHF Reference
                        1 Threads,    500 MiB Core
         ---------------------------------------------------------

  ==> Geometry <==

    Molecular point group: c1
    Full point group: C1

    Geometry (in Angstrom), charge = 0, multiplicity = 1:

       Center              X                  Y                   Z               Mass
    ------------   -----------------  -----------------  -----------------  -----------------
         C           -0.094537496334     1.349284640280    -0.004661663078    12.000000000000
         C           -1.582537496334     1.703284640280     0.037338336922    12.000000000000
         C            0.302462503666     0.662284640280    -1.297661663078    12.000000000000
         O           -0.479537496334    -0.072715359720    -1.904661663078    15.994914619570
         N            1.535462503666     0.893284640280    -1.727661663078    14.003074004430
         H            0.489462503666     2.264284640280     0.116338336922     1.007825032230
         H            0.160462503666     0.704284640280     0.825338336922     1.007825032230
         H           -2.154537496334     0.812284640280    -0.236661663078     1.007825032230
         H            1.838462503666     0.449284640280    -2.582661663078     1.007825032230
         H            2.161462503666     1.486284640280    -1.202661663078     1.007825032230
         H           -1.804785496334     2.500364340280    -0.687416663078     1.007825032230
         H           -1.890273496334     1.995128240280     1.052289476922     1.007825032230
         C            0.007462503666    -1.548715359720     2.047338336922    12.000000000000
         C            0.243462503666    -2.861715359720     2.780338336922    12.000000000000
         H           -0.512537496334    -0.846715359720     2.699338336922     1.007825032230
         H            0.980462503666    -1.127715359720     1.790338336922     1.007825032230
         H           -0.561537496334    -1.703715359720     1.129338336922     1.007825032230
         H            0.898462503666    -2.657715359720     3.628338336922     1.007825032230
         H           -0.699227496334    -3.276242359720     3.166991336922     1.007825032230
         H            0.750032503666    -3.575262359720     2.113830336922     1.007825032230

  Running in c1 symmetry.

  Rotational constants: A =      0.09602  B =      0.03148  C =      0.02764 [cm^-1]
  Rotational constants: A =   2878.47835  B =    943.84017  C =    828.60497 [MHz]
  Nuclear repulsion =  302.542391507426032

  Charge       = 0
  Multiplicity = 1
  Electrons    = 58
  Nalpha       = 29
  Nbeta        = 29

  ==> Algorithm <==

  SCF Algorithm Type is PK.
  DIIS enabled.
  MOM disabled.
  Fractional occupation disabled.
  Guess Type is SAD.
  Energy threshold   = 1.00e-06
  Density threshold  = 1.00e-10
  Integral threshold = 0.00e+00

  ==> Primary Basis <==

  Basis Set: CC-PVDZ
    Blend: CC-PVDZ
    Number of shells: 81
    Number of basis function: 163
    Number of Cartesian functions: 170
    Spherical Harmonics?: true
    Max angular momentum: 2

  ==> Pre-Iterations <==

   -------------------------------------------------------
    Irrep   Nso     Nmo     Nalpha   Nbeta   Ndocc  Nsocc
   -------------------------------------------------------
     A        163     163       0       0       0       0
   -------------------------------------------------------
    Total     163     163      29      29      29       0
   -------------------------------------------------------

  ==> Integral Setup <==

  Using integral reordering PK algorithm.
  Sizing the integral batches needed.
  Building batch lookup table.
   Calculation information:
      Number of atoms:                  20
      Number of AO shells:              81
      Number of primitives:            219
      Number of atomic orbitals:       170
      Number of basis functions:       163

      Integral cutoff                 1.00e-12
      Number of threads:                 1

	Batch   1 pq = [       0,    9405] index = [             0,44231715] size =     44231715
	Batch   2 pq = [    9405,   13366] index = [      44231715,89331661] size =     45099946
  Task number: 9
  Buffer size: 11059200
  Buffer per thread: 2
  We computed 4786825 shell quartets total.
  Whereas there are 5516181 unique shell quartets.

  ==> DiskJK: Disk-Based J/K Matrices <==

    J tasked:                  Yes
    K tasked:                  Yes
    wK tasked:                  No
    Memory [MiB]:              375
    Schwarz Cutoff:          1E-12

    OpenMP threads:              1

  Minimum eigenvalue in the overlap matrix is 3.3439995396E-03.
  Using Symmetric Orthogonalization.

  SCF Guess: Superposition of Atomic Densities via on-the-fly atomic UHF.

  ==> Iterations <==

                        Total Energy        Delta E     RMS |[F,P]|

   @RHF iter SAD:  -324.96478969185853   -3.24965e+02   0.00000e+00
   @RHF iter   1:  -326.00692028651525   -1.04213e+00   4.11893e-03 DIIS
   @RHF iter   2:  -326.20375226478063   -1.96832e-01   2.27653e-03 DIIS
   @RHF iter   3:  -326.25840865293355   -5.46564e-02   4.95844e-04 DIIS
   @RHF iter   4:  -326.26227481622459   -3.86616e-03   2.03446e-04 DIIS
   @RHF iter   5:  -326.26295776327197   -6.82947e-04   2.92251e-05 DIIS
   @RHF iter   6:  -326.26298982507899   -3.20618e-05   1.16399e-05 DIIS
   @RHF iter   7:  -326.26299386382857   -4.03875e-06   4.99598e-06 DIIS
   @RHF iter   8:  -326.26299477871436   -9.14886e-07   1.93816e-06 DIIS
   @RHF iter   9:  -326.26299492796414   -1.49250e-07   4.30436e-07 DIIS
   @RHF iter  10:  -326.26299493413103   -6.16689e-09   1.35482e-07 DIIS
   @RHF iter  11:  -326.26299493462034   -4.89308e-10   3.52220e-08 DIIS
   @RHF iter  12:  -326.26299493466047   -4.01315e-11   8.98514e-09 DIIS
   @RHF iter  13:  -326.26299493466246   -1.98952e-12   2.15521e-09 DIIS
   @RHF iter  14:  -326.26299493466109    1.36424e-12   9.07580e-10 DIIS
   @RHF iter  15:  -326.26299493466257   -1.47793e-12   4.44224e-10 DIIS
   @RHF iter  16:  -326.26299493466087    1.70530e-12   1.67419e-10 DIIS
   @RHF iter  17:  -326.26299493466331   -2.44427e-12   5.46531e-11 DIIS
  Energy and wave function converged.

  ==> Post-Iterations <==

    Orbital Energies [Eh]
    ---------------------

    Doubly Occupied:

       1A    -20.503861     2A    -15.588458     3A    -11.343929
       4A    -11.236610     5A    -11.222062     6A    -11.219056
       7A    -11.217782     8A     -1.364762     9A     -1.215745
      10A     -1.044954    11A     -1.021126    12A     -0.886171
      13A     -0.837260    14A     -0.783867    15A     -0.722405
      16A     -0.663802    17A     -0.629281    18A     -0.601294
      19A     -0.598796    20A     -0.584130    21A     -0.554161
      22A     -0.517771    23A     -0.508637    24A     -0.497589
      25A     -0.488947    26A     -0.486139    27A     -0.480859
      28A     -0.408156    29A     -0.403036

    Virtual:

      30A      0.166834    31A      0.183374    32A      0.191723
      33A      0.212074    34A      0.227777    35A      0.234823
      36A      0.246278    37A      0.257451    38A      0.269496
      39A      0.273631    40A      0.285907    41A      0.287394
      42A      0.320597    43A      0.339311    44A      0.385383
      45A      0.408694    46A      0.435275    47A      0.472883
      48A      0.558128    49A      0.587553    50A      0.600955
      51A      0.604109    52A      0.625698    53A      0.648063
      54A      0.657187    55A      0.687164    56A      0.700586
      57A      0.720603    58A      0.738132    59A      0.765102
      60A      0.802627    61A      0.832693    62A      0.859137
      63A      0.860985    64A      0.878550    65A      0.893048
      66A      0.894551    67A      0.897126    68A      0.899839
      69A      0.912850    70A      0.915333    71A      0.925402
      72A      0.935529    73A      0.953608    74A      0.965686
      75A      0.986383    76A      0.995902    77A      1.024990
      78A      1.042779    79A      1.076496    80A      1.117409
      81A      1.119524    82A      1.130885    83A      1.167450
      84A      1.249461    85A      1.300879    86A      1.314640
      87A      1.362153    88A      1.398533    89A      1.404364
      90A      1.425547    91A      1.474406    92A      1.477570
      93A      1.488043    94A      1.496747    95A      1.586051
      96A      1.610975    97A      1.676603    98A      1.681063
      99A      1.687596   100A      1.691345   101A      1.705196
     102A      1.759182   103A      1.815382   104A      1.838406
     105A      1.844768   106A      1.871066   107A      1.887882
     108A      1.906339   109A      1.917028   110A      1.918339
     111A      1.927349   112A      1.940962   113A      1.941266
     114A      1.952449   115A      1.960616   116A      1.965484
     117A      1.978164   118A      1.984037   119A      2.013599
     120A      2.037581   121A      2.056671   122A      2.075639
     123A      2.101643   124A      2.105258   125A      2.117782
     126A      2.216106   127A      2.235174   128A      2.270165
     129A      2.303436   130A      2.308711   131A      2.368552
     132A      2.373770   133A      2.428928   134A      2.459833
     135A      2.462828   136A      2.474063   137A      2.545592
     138A      2.560093   139A      2.567021   140A      2.570318
     141A      2.578248   142A      2.603623   143A      2.638414
     144A      2.749396   145A      2.762124   146A      2.766033
     147A      2.789427   148A      2.827738   149A      2.847628
     150A      2.853499   151A      2.894367   152A      2.902366
     153A      2.941670   154A      2.957497   155A      2.992294
     156A      3.007626   157A      3.100770   158A      3.151889
     159A      3.295116   160A      3.509287   161A      3.524295
     162A      3.862746   163A      3.902556

    Final Occupation by Irrep:
              A
    DOCC [    29 ]

  @RHF Final Energy:  -326.26299493466331

   => Energetics <=

    Nuclear Repulsion Energy =            302.5423915074260321
    One-Electron Energy =               -1042.3494774738608157
    Two-Electron Energy =                 413.5440910317714724
    Total Energy =                       -326.2629949346633111

Computation Completed

Properties will be evaluated at   0.000000,   0.000000,   0.000000 [a0]

Properties computed using the SCF density matrix

  Nuclear Dipole Moment: [e a0]
     X:    -0.3293      Y:    -2.7923      Z:    11.0699

  Electronic Dipole Moment: [e a0]
     X:     1.5745      Y:     3.6224      Z:   -10.4827

  Dipole Moment: [e a0]
     X:     1.2451      Y:     0.8301      Z:     0.5873     Total:     1.6076

  Dipole Moment: [D]
     X:     3.1648      Y:     2.1098      Z:     1.4927     Total:     4.0860

*** tstop() called on ds3 at Tue Apr 28 12:11:06 2020
Module time:
	user time   =      29.70 seconds =       0.49 minutes
	system time =      15.57 seconds =       0.26 minutes
	total time  =         43 seconds =       0.72 minutes
Total time:
	user time   =      29.70 seconds =       0.49 minutes
	system time =      15.57 seconds =       0.26 minutes
	total time  =         43 seconds =       0.72 minutes
                                     G D M A

                                 by Anthony Stone

                           version 2.2.06, 22 June 2011

               Distributed Multipoles from Gaussian wavefunctions

Starting at 12:11:6 on 28 Apr 2020

Using SCF density matrix from file ./SSI/SSI-019ASN-053VAL-1-dimer.test.9198.fchk

                         Distributed Multipole Analysis

Standard DMA

Positions and radii in angstrom
Multipole moments in atomic units, ea_0^k for rank k

C          x = -0.094537  y =  1.349285  z = -0.004662 angstrom
           Maximum rank =  0   Radius =  0.650 angstrom
                   Q00  =  -0.177501

C          x = -1.582537  y =  1.703285  z =  0.037338 angstrom
           Maximum rank =  0   Radius =  0.650 angstrom
                   Q00  =  -0.206293

C          x =  0.302463  y =  0.662285  z = -1.297662 angstrom
           Maximum rank =  0   Radius =  0.650 angstrom
                   Q00  =   0.856669

O          x = -0.479537  y = -0.072715  z = -1.904662 angstrom
           Maximum rank =  0   Radius =  0.650 angstrom
                   Q00  =  -0.812622

N          x =  1.535463  y =  0.893285  z = -1.727662 angstrom
           Maximum rank =  0   Radius =  0.650 angstrom
                   Q00  =  -0.542099

H          x =  0.489463  y =  2.264285  z =  0.116338 angstrom
           Maximum rank =  0   Radius =  0.325 angstrom
                   Q00  =   0.048906

H          x =  0.160463  y =  0.704285  z =  0.825338 angstrom
           Maximum rank =  0   Radius =  0.325 angstrom
                   Q00  =   0.124433

H          x = -2.154538  y =  0.812285  z = -0.236662 angstrom
           Maximum rank =  0   Radius =  0.325 angstrom
                   Q00  =   0.115623

H          x =  1.838463  y =  0.449285  z = -2.582662 angstrom
           Maximum rank =  0   Radius =  0.325 angstrom
                   Q00  =   0.218080

H          x =  2.161463  y =  1.486285  z = -1.202662 angstrom
           Maximum rank =  0   Radius =  0.325 angstrom
                   Q00  =   0.207332

H          x = -1.804785  y =  2.500364  z = -0.687417 angstrom
           Maximum rank =  0   Radius =  0.325 angstrom
                   Q00  =   0.085735

H          x = -1.890273  y =  1.995128  z =  1.052289 angstrom
           Maximum rank =  0   Radius =  0.325 angstrom
                   Q00  =   0.080425

C          x =  0.007463  y = -1.548715  z =  2.047338 angstrom
           Maximum rank =  0   Radius =  0.650 angstrom
                   Q00  =  -0.242839

C          x =  0.243463  y = -2.861715  z =  2.780338 angstrom
           Maximum rank =  0   Radius =  0.650 angstrom
                   Q00  =  -0.227368

H          x = -0.512537  y = -0.846715  z =  2.699338 angstrom
           Maximum rank =  0   Radius =  0.325 angstrom
                   Q00  =   0.074656

H          x =  0.980463  y = -1.127715  z =  1.790338 angstrom
           Maximum rank =  0   Radius =  0.325 angstrom
                   Q00  =   0.062977

H          x = -0.561537  y = -1.703715  z =  1.129338 angstrom
           Maximum rank =  0   Radius =  0.325 angstrom
                   Q00  =   0.093428

H          x =  0.898463  y = -2.657715  z =  3.628338 angstrom
           Maximum rank =  0   Radius =  0.325 angstrom
                   Q00  =   0.074124

H          x = -0.699227  y = -3.276242  z =  3.166991 angstrom
           Maximum rank =  0   Radius =  0.325 angstrom
                   Q00  =   0.083213

H          x =  0.750033  y = -3.575262  z =  2.113830 angstrom
           Maximum rank =  0   Radius =  0.325 angstrom
                   Q00  =   0.083122

Total multipoles referred to origin at
           x =   0.000000,  y =    0.000000,  z =    0.000000 angstrom
                   Q00  =  -0.000000

Finished at 12:11:6 on 28 Apr 2020

  DMA results are available in the Python driver through the
	  variable('DMA DISTRIBUTED MULTIPOLES')
  and
	  variable('DMA TOTAL MULTIPOLES')
  commands.

    Psi4 stopped on: Tuesday, 28 April 2020 12:11PM
    Psi4 wall time for execution: 0:00:43.23

*** Psi4 exiting successfully. Buy a developer a beer!
