                               Psi4 1.3.2 release

  ==> Input File <==

--------------------------------------------------------------------------
import numpy as np
set {scf_type pk
basis cc-pvdz
d_convergence 10
gdma_switch   0
gdma_limit    0
gdma_origin   [ 0.0,  0.0,  0.0 ]
}
molecule test {
    units Angstrom
    0 1
    --
    0 1
    C                2.201210358670089    -0.906721621579848     1.730399573687156
    C                1.988210358670089    -1.111721621579847     3.232399573687156
    C                3.185210358670089     0.224278378420152     1.410399573687156
    H                2.564210358670089    -1.835721621579847     1.290399573687156
    H                1.245210358670089    -0.670721621579848     1.263399573687156
    H                1.876210358670089    -0.147721621579848     3.727399573687156
    H                4.116210358670090     0.101278378420152     1.959399573687156
    H                2.835910358670089    -1.643751621579847     3.688849573687156
    H                1.034639358670089    -1.634361621579848     3.398369573687156
    H                3.391000358670090     0.251338378420152     0.330159573687156
    H                2.718830358670089     1.186928378420152     1.666909573687156
    C               -1.072789641329911     3.021278378420152    -1.856600426312844
    C               -0.999789641329911    -1.056721621579848    -0.415600426312844
    C                0.019210358670089    -0.629721621579848    -1.268600426312844
    C               -1.971789641329911    -0.180721621579848     0.022399573687156
    C               -0.027789641329911     0.694278378420152    -1.761600426312844
    C               -2.028789641329911     1.129278378420152    -0.463600426312844
    C               -1.060789641329911     1.578278378420153    -1.382600426312844
    O               -0.958789641329911    -2.312721621579847     0.080399573687156
    H                0.816210358670089    -1.295721621579847    -1.568600426312844
    H               -0.220789641329911    -2.819721621579847    -0.273600426312844
    H               -2.600789641329910    -0.598721621579847     0.767399573687156
    H                0.753210358670089     1.040278378420152    -2.420600426312844
    H               -2.841789641329910     1.778278378420152    -0.184600426312844
    H               -2.051789641329911     3.468278378420152    -1.678600426312844
    H               -0.888789641329911     3.032278378420152    -2.929600426312844
    H               -0.294624641329911     3.608268378420152    -1.346790426312844

}
e, wfn = energy('scf', return_wfn=True)
gdma(wfn)
dmavals = variable('DMA DISTRIBUTED MULTIPOLES')
charges = np.array(dmavals)
print(charges)
np.save('SSI-129LEU-277TYR-1-dimer.npy', np.array(charges))--------------------------------------------------------------------------

*** tstart() called on ds3
*** at Mon Apr 27 20:57:51 2020

   => Loading Basis Set <=

    Name: CC-PVDZ
    Role: ORBITAL
    Keyword: BASIS
    atoms 1-3, 12-18  entry C          line   138 file /theoryfs2/ds/metcalf/miniconda2/envs/tf2gpu/share/psi4/basis/cc-pvdz.gbs
    atoms 4-11, 20-27 entry H          line    22 file /theoryfs2/ds/metcalf/miniconda2/envs/tf2gpu/share/psi4/basis/cc-pvdz.gbs
    atoms 19          entry O          line   198 file /theoryfs2/ds/metcalf/miniconda2/envs/tf2gpu/share/psi4/basis/cc-pvdz.gbs

         ---------------------------------------------------------
                                   SCF
               by Justin Turney, Rob Parrish, Andy Simmonett
                          and Daniel G. A. Smith
                              RHF Reference
                        1 Threads,    500 MiB Core
         ---------------------------------------------------------

  ==> Geometry <==

    Molecular point group: c1
    Full point group: C1

    Geometry (in Angstrom), charge = 0, multiplicity = 1:

       Center              X                  Y                   Z               Mass
    ------------   -----------------  -----------------  -----------------  -----------------
         C            2.201210358670    -0.906721621580     1.730399573687    12.000000000000
         C            1.988210358670    -1.111721621580     3.232399573687    12.000000000000
         C            3.185210358670     0.224278378420     1.410399573687    12.000000000000
         H            2.564210358670    -1.835721621580     1.290399573687     1.007825032230
         H            1.245210358670    -0.670721621580     1.263399573687     1.007825032230
         H            1.876210358670    -0.147721621580     3.727399573687     1.007825032230
         H            4.116210358670     0.101278378420     1.959399573687     1.007825032230
         H            2.835910358670    -1.643751621580     3.688849573687     1.007825032230
         H            1.034639358670    -1.634361621580     3.398369573687     1.007825032230
         H            3.391000358670     0.251338378420     0.330159573687     1.007825032230
         H            2.718830358670     1.186928378420     1.666909573687     1.007825032230
         C           -1.072789641330     3.021278378420    -1.856600426313    12.000000000000
         C           -0.999789641330    -1.056721621580    -0.415600426313    12.000000000000
         C            0.019210358670    -0.629721621580    -1.268600426313    12.000000000000
         C           -1.971789641330    -0.180721621580     0.022399573687    12.000000000000
         C           -0.027789641330     0.694278378420    -1.761600426313    12.000000000000
         C           -2.028789641330     1.129278378420    -0.463600426313    12.000000000000
         C           -1.060789641330     1.578278378420    -1.382600426313    12.000000000000
         O           -0.958789641330    -2.312721621580     0.080399573687    15.994914619570
         H            0.816210358670    -1.295721621580    -1.568600426313     1.007825032230
         H           -0.220789641330    -2.819721621580    -0.273600426313     1.007825032230
         H           -2.600789641330    -0.598721621580     0.767399573687     1.007825032230
         H            0.753210358670     1.040278378420    -2.420600426313     1.007825032230
         H           -2.841789641330     1.778278378420    -0.184600426313     1.007825032230
         H           -2.051789641330     3.468278378420    -1.678600426313     1.007825032230
         H           -0.888789641330     3.032278378420    -2.929600426313     1.007825032230
         H           -0.294624641330     3.608268378420    -1.346790426313     1.007825032230

  Running in c1 symmetry.

  Rotational constants: A =      0.04246  B =      0.01883  C =      0.01556 [cm^-1]
  Rotational constants: A =   1272.97195  B =    564.46271  C =    466.36877 [MHz]
  Nuclear repulsion =  583.926332421911184

  Charge       = 0
  Multiplicity = 1
  Electrons    = 84
  Nalpha       = 42
  Nbeta        = 42

  ==> Algorithm <==

  SCF Algorithm Type is PK.
  DIIS enabled.
  MOM disabled.
  Fractional occupation disabled.
  Guess Type is SAD.
  Energy threshold   = 1.00e-06
  Density threshold  = 1.00e-10
  Integral threshold = 0.00e+00

  ==> Primary Basis <==

  Basis Set: CC-PVDZ
    Blend: CC-PVDZ
    Number of shells: 114
    Number of basis function: 234
    Number of Cartesian functions: 245
    Spherical Harmonics?: true
    Max angular momentum: 2

  ==> Pre-Iterations <==

   -------------------------------------------------------
    Irrep   Nso     Nmo     Nalpha   Nbeta   Ndocc  Nsocc
   -------------------------------------------------------
     A        234     234       0       0       0       0
   -------------------------------------------------------
    Total     234     234      42      42      42       0
   -------------------------------------------------------

  ==> Integral Setup <==

  Using integral reordering PK algorithm.
  Sizing the integral batches needed.
  Building batch lookup table.
   Calculation information:
      Number of atoms:                  27
      Number of AO shells:             114
      Number of primitives:            322
      Number of atomic orbitals:       245
      Number of basis functions:       234

      Integral cutoff                 1.00e-12
      Number of threads:                 1

	Batch   1 pq = [       0,    9405] index = [             0,44231715] size =     44231715
	Batch   2 pq = [    9405,   13301] index = [      44231715,88464951] size =     44233236
	Batch   3 pq = [   13301,   16290] index = [      88464951,132690195] size =     44225244
	Batch   4 pq = [   16290,   18810] index = [     132690195,176917455] size =     44227260
	Batch   5 pq = [   18810,   21030] index = [     176917455,221140965] size =     44223510
	Batch   6 pq = [   21030,   23037] index = [     221140965,265363203] size =     44222238
	Batch   7 pq = [   23037,   24883] index = [     265363203,309594286] size =     44231083
	Batch   8 pq = [   24883,   26601] index = [     309594286,353819901] size =     44225615
	Batch   9 pq = [   26601,   27495] index = [     353819901,378001260] size =     24181359
  Task number: 35
  Buffer size: 11059200
  Buffer per thread: 2
  We computed 20152364 shell quartets total.
  Whereas there are 21487290 unique shell quartets.

  ==> DiskJK: Disk-Based J/K Matrices <==

    J tasked:                  Yes
    K tasked:                  Yes
    wK tasked:                  No
    Memory [MiB]:              375
    Schwarz Cutoff:          1E-12

    OpenMP threads:              1

  Minimum eigenvalue in the overlap matrix is 3.5334645476E-04.
  Using Symmetric Orthogonalization.

  SCF Guess: Superposition of Atomic Densities via on-the-fly atomic UHF.

  ==> Iterations <==

                        Total Energy        Delta E     RMS |[F,P]|

   @RHF iter SAD:  -461.60800657325484   -4.61608e+02   0.00000e+00
   @RHF iter   1:  -462.60652600576316   -9.98519e-01   2.79543e-03 DIIS
   @RHF iter   2:  -462.84637523795061   -2.39849e-01   1.18041e-03 DIIS
   @RHF iter   3:  -462.88496133048380   -3.85861e-02   2.63929e-04 DIIS
   @RHF iter   4:  -462.88816863992662   -3.20731e-03   9.80980e-05 DIIS
   @RHF iter   5:  -462.88847627152654   -3.07632e-04   2.06417e-05 DIIS
   @RHF iter   6:  -462.88849552188321   -1.92504e-05   6.27436e-06 DIIS
   @RHF iter   7:  -462.88849741532067   -1.89344e-06   1.86655e-06 DIIS
   @RHF iter   8:  -462.88849764841672   -2.33096e-07   7.23614e-07 DIIS
   @RHF iter   9:  -462.88849768783717   -3.94205e-08   3.07219e-07 DIIS
   @RHF iter  10:  -462.88849769608635   -8.24917e-09   1.31338e-07 DIIS
   @RHF iter  11:  -462.88849769872883   -2.64248e-09   5.76809e-08 DIIS
   @RHF iter  12:  -462.88849769924343   -5.14603e-10   2.79845e-08 DIIS
   @RHF iter  13:  -462.88849769933029   -8.68567e-11   8.54350e-09 DIIS
   @RHF iter  14:  -462.88849769933773   -7.44649e-12   2.00519e-09 DIIS
   @RHF iter  15:  -462.88849769933722    5.11591e-13   6.83189e-10 DIIS
   @RHF iter  16:  -462.88849769933444    2.78533e-12   2.08781e-10 DIIS
   @RHF iter  17:  -462.88849769933711   -2.67164e-12   7.45789e-11 DIIS
  Energy and wave function converged.

  ==> Post-Iterations <==

    Orbital Energies [Eh]
    ---------------------

    Doubly Occupied:

       1A    -20.583883     2A    -11.296470     3A    -11.243579
       4A    -11.242296     5A    -11.238419     6A    -11.236468
       7A    -11.230214     8A    -11.226790     9A    -11.214981
      10A    -11.213982    11A    -11.212827    12A     -1.406117
      13A     -1.145126    14A     -1.047545    15A     -1.035832
      16A     -1.014905    17A     -0.926397    18A     -0.919605
      19A     -0.848521    20A     -0.799141    21A     -0.793090
      22A     -0.733755    23A     -0.663781    24A     -0.647878
      25A     -0.622398    26A     -0.608349    27A     -0.591821
      28A     -0.586750    29A     -0.584080    30A     -0.572145
      31A     -0.567752    32A     -0.544845    33A     -0.529255
      34A     -0.527194    35A     -0.499044    36A     -0.483635
      37A     -0.469594    38A     -0.465272    39A     -0.462970
      40A     -0.460203    41A     -0.336006    42A     -0.300354

    Virtual:

      43A      0.125489    44A      0.152778    45A      0.165693
      46A      0.183173    47A      0.197438    48A      0.209511
      49A      0.219158    50A      0.237081    51A      0.243302
      52A      0.258346    53A      0.260962    54A      0.265608
      55A      0.273455    56A      0.277353    57A      0.290669
      58A      0.292392    59A      0.301924    60A      0.320555
      61A      0.363712    62A      0.369493    63A      0.379779
      64A      0.425869    65A      0.438901    66A      0.453332
      67A      0.478222    68A      0.488983    69A      0.508853
      70A      0.583078    71A      0.597620    72A      0.607239
      73A      0.612308    74A      0.621561    75A      0.632486
      76A      0.634183    77A      0.654522    78A      0.657248
      79A      0.688926    80A      0.712809    81A      0.724302
      82A      0.725426    83A      0.740733    84A      0.766524
      85A      0.769848    86A      0.771515    87A      0.779491
      88A      0.784768    89A      0.805660    90A      0.826022
      91A      0.835785    92A      0.843081    93A      0.864808
      94A      0.872811    95A      0.877272    96A      0.882112
      97A      0.889184    98A      0.893079    99A      0.896789
     100A      0.900769   101A      0.908943   102A      0.912796
     103A      0.914283   104A      0.923809   105A      0.935964
     106A      0.940287   107A      0.942722   108A      0.947503
     109A      0.961947   110A      0.973251   111A      1.001612
     112A      1.018532   113A      1.057101   114A      1.061382
     115A      1.108699   116A      1.122254   117A      1.127015
     118A      1.140551   119A      1.153847   120A      1.174227
     121A      1.203437   122A      1.214236   123A      1.229501
     124A      1.263691   125A      1.273787   126A      1.285217
     127A      1.291100   128A      1.298284   129A      1.317132
     130A      1.361211   131A      1.376942   132A      1.396390
     133A      1.405258   134A      1.460807   135A      1.476169
     136A      1.480255   137A      1.503362   138A      1.530712
     139A      1.552339   140A      1.562423   141A      1.613443
     142A      1.624085   143A      1.647894   144A      1.671597
     145A      1.677718   146A      1.690082   147A      1.692992
     148A      1.719749   149A      1.731313   150A      1.735114
     151A      1.779066   152A      1.797913   153A      1.811523
     154A      1.847078   155A      1.857509   156A      1.866108
     157A      1.878864   158A      1.883400   159A      1.892661
     160A      1.902158   161A      1.909962   162A      1.916320
     163A      1.919627   164A      1.930762   165A      1.936392
     166A      1.940631   167A      1.963749   168A      1.970666
     169A      1.973585   170A      1.980811   171A      1.989616
     172A      2.007815   173A      2.015033   174A      2.020438
     175A      2.025310   176A      2.036472   177A      2.044067
     178A      2.050890   179A      2.062049   180A      2.085488
     181A      2.119720   182A      2.142113   183A      2.149509
     184A      2.167480   185A      2.174385   186A      2.199065
     187A      2.223400   188A      2.250260   189A      2.277896
     190A      2.281403   191A      2.292106   192A      2.305225
     193A      2.317294   194A      2.336747   195A      2.358490
     196A      2.389539   197A      2.401171   198A      2.462178
     199A      2.473257   200A      2.476399   201A      2.497271
     202A      2.514759   203A      2.546148   204A      2.563321
     205A      2.572453   206A      2.601580   207A      2.611261
     208A      2.651261   209A      2.661922   210A      2.739463
     211A      2.757844   212A      2.770153   213A      2.771028
     214A      2.782364   215A      2.783900   216A      2.824878
     217A      2.825537   218A      2.828981   219A      2.877015
     220A      2.905479   221A      2.933460   222A      2.958182
     223A      2.980452   224A      3.021928   225A      3.066188
     226A      3.084888   227A      3.093116   228A      3.251445
     229A      3.291096   230A      3.354198   231A      3.590565
     232A      3.672816   233A      3.967145   234A      4.190724

    Final Occupation by Irrep:
              A
    DOCC [    42 ]

  @RHF Final Energy:  -462.88849769933711

   => Energetics <=

    Nuclear Repulsion Energy =            583.9263324219111837
    One-Electron Energy =               -1785.3631240882746170
    Two-Electron Energy =                 738.5482939670263249
    Total Energy =                       -462.8884976993371083

Computation Completed

Properties will be evaluated at   0.000000,   0.000000,   0.000000 [a0]

Properties computed using the SCF density matrix

  Nuclear Dipole Moment: [e a0]
     X:    11.6698      Y:     3.5705      Z:     7.2094

  Electronic Dipole Moment: [e a0]
     X:   -11.2971      Y:    -3.4846      Z:    -7.5765

  Dipole Moment: [e a0]
     X:     0.3727      Y:     0.0858      Z:    -0.3671     Total:     0.5301

  Dipole Moment: [D]
     X:     0.9473      Y:     0.2181      Z:    -0.9330     Total:     1.3474

*** tstop() called on ds3 at Mon Apr 27 21:02:13 2020
Module time:
	user time   =     148.89 seconds =       2.48 minutes
	system time =      53.20 seconds =       0.89 minutes
	total time  =        262 seconds =       4.37 minutes
Total time:
	user time   =     148.89 seconds =       2.48 minutes
	system time =      53.20 seconds =       0.89 minutes
	total time  =        262 seconds =       4.37 minutes
                                     G D M A

                                 by Anthony Stone

                           version 2.2.06, 22 June 2011

               Distributed Multipoles from Gaussian wavefunctions

Starting at 21:2:13 on 27 Apr 2020

Using SCF density matrix from file ./SSI/SSI-129LEU-277TYR-1-dimer.test.19840.fchk

                         Distributed Multipole Analysis

Standard DMA

Positions and radii in angstrom
Multipole moments in atomic units, ea_0^k for rank k

C          x =  2.201210  y = -0.906722  z =  1.730400 angstrom
           Maximum rank =  0   Radius =  0.650 angstrom
                   Q00  =  -0.098097

C          x =  1.988210  y = -1.111722  z =  3.232400 angstrom
           Maximum rank =  0   Radius =  0.650 angstrom
                   Q00  =  -0.243984

C          x =  3.185210  y =  0.224278  z =  1.410400 angstrom
           Maximum rank =  0   Radius =  0.650 angstrom
                   Q00  =  -0.229614

H          x =  2.564210  y = -1.835722  z =  1.290400 angstrom
           Maximum rank =  0   Radius =  0.325 angstrom
                   Q00  =   0.033881

H          x =  1.245210  y = -0.670722  z =  1.263400 angstrom
           Maximum rank =  0   Radius =  0.325 angstrom
                   Q00  =   0.062271

H          x =  1.876210  y = -0.147722  z =  3.727400 angstrom
           Maximum rank =  0   Radius =  0.325 angstrom
                   Q00  =   0.074759

H          x =  4.116210  y =  0.101278  z =  1.959400 angstrom
           Maximum rank =  0   Radius =  0.325 angstrom
                   Q00  =   0.075869

H          x =  2.835910  y = -1.643752  z =  3.688850 angstrom
           Maximum rank =  0   Radius =  0.325 angstrom
                   Q00  =   0.077796

H          x =  1.034639  y = -1.634362  z =  3.398370 angstrom
           Maximum rank =  0   Radius =  0.325 angstrom
                   Q00  =   0.084225

H          x =  3.391000  y =  0.251338  z =  0.330160 angstrom
           Maximum rank =  0   Radius =  0.325 angstrom
                   Q00  =   0.077759

H          x =  2.718830  y =  1.186928  z =  1.666910 angstrom
           Maximum rank =  0   Radius =  0.325 angstrom
                   Q00  =   0.078729

C          x = -1.072790  y =  3.021278  z = -1.856600 angstrom
           Maximum rank =  0   Radius =  0.650 angstrom
                   Q00  =  -0.193512

C          x = -0.999790  y = -1.056722  z = -0.415600 angstrom
           Maximum rank =  0   Radius =  0.650 angstrom
                   Q00  =   0.353653

C          x =  0.019210  y = -0.629722  z = -1.268600 angstrom
           Maximum rank =  0   Radius =  0.650 angstrom
                   Q00  =  -0.188189

C          x = -1.971790  y = -0.180722  z =  0.022400 angstrom
           Maximum rank =  0   Radius =  0.650 angstrom
                   Q00  =  -0.021746

C          x = -0.027790  y =  0.694278  z = -1.761600 angstrom
           Maximum rank =  0   Radius =  0.650 angstrom
                   Q00  =  -0.070665

C          x = -2.028790  y =  1.129278  z = -0.463600 angstrom
           Maximum rank =  0   Radius =  0.650 angstrom
                   Q00  =  -0.057413

C          x = -1.060790  y =  1.578278  z = -1.382600 angstrom
           Maximum rank =  0   Radius =  0.650 angstrom
                   Q00  =  -0.143686

O          x = -0.958790  y = -2.312722  z =  0.080400 angstrom
           Maximum rank =  0   Radius =  0.650 angstrom
                   Q00  =  -0.671025

H          x =  0.816210  y = -1.295722  z = -1.568600 angstrom
           Maximum rank =  0   Radius =  0.325 angstrom
                   Q00  =   0.074878

H          x = -0.220790  y = -2.819722  z = -0.273600 angstrom
           Maximum rank =  0   Radius =  0.325 angstrom
                   Q00  =   0.409306

H          x = -2.600790  y = -0.598722  z =  0.767400 angstrom
           Maximum rank =  0   Radius =  0.325 angstrom
                   Q00  =   0.080655

H          x =  0.753210  y =  1.040278  z = -2.420600 angstrom
           Maximum rank =  0   Radius =  0.325 angstrom
                   Q00  =   0.069728

H          x = -2.841790  y =  1.778278  z = -0.184600 angstrom
           Maximum rank =  0   Radius =  0.325 angstrom
                   Q00  =   0.068864

H          x = -2.051790  y =  3.468278  z = -1.678600 angstrom
           Maximum rank =  0   Radius =  0.325 angstrom
                   Q00  =   0.098457

H          x = -0.888790  y =  3.032278  z = -2.929600 angstrom
           Maximum rank =  0   Radius =  0.325 angstrom
                   Q00  =   0.097009

H          x = -0.294625  y =  3.608268  z = -1.346790 angstrom
           Maximum rank =  0   Radius =  0.325 angstrom
                   Q00  =   0.100092

Total multipoles referred to origin at
           x =   0.000000,  y =    0.000000,  z =    0.000000 angstrom
                   Q00  =  -0.000000

Finished at 21:2:13 on 27 Apr 2020

  DMA results are available in the Python driver through the
	  variable('DMA DISTRIBUTED MULTIPOLES')
  and
	  variable('DMA TOTAL MULTIPOLES')
  commands.

    Psi4 stopped on: Monday, 27 April 2020 09:02PM
    Psi4 wall time for execution: 0:04:21.82

*** Psi4 exiting successfully. Buy a developer a beer!
