                               Psi4 1.3.2 release

  ==> Input File <==

--------------------------------------------------------------------------
import numpy as np
set {scf_type pk
basis cc-pvdz
d_convergence 10
gdma_switch   0
gdma_limit    0
gdma_origin   [ 0.0,  0.0,  0.0 ]
}
molecule test {
    units Angstrom
    0 1
    --
    0 1
    C               -1.809662380900284    -0.149120767708713     2.979773965616360
    C               -0.983662380900284    -1.012120767708713     3.923773965616359
    H               -2.799662380900284     0.036879232291287     3.396773965616359
    H               -1.303662380900284     0.805879232291287     2.836773965616360
    H               -1.905662380900284    -0.644120767708713     2.013773965616359
    H               -0.903662380900284    -0.488120767708713     4.875773965616360
    H                0.017337619099716    -1.102120767708713     3.499773965616359
    H               -1.393012380900284    -2.021520767708713     4.077193965616360
    C               -0.406662380900284     2.852879232291287    -1.820226034383640
    C                0.742337619099716    -0.046120767708713     0.373773965616360
    C                0.767337619099716    -1.094120767708713    -0.545226034383640
    C                0.349337619099716     1.228879232291287    -0.042226034383640
    C               -0.018662380900284     1.465879232291287    -1.369226034383640
    C                0.398337619099716    -0.868120767708713    -1.872226034383641
    C                0.009337619099716     0.405879232291287    -2.278226034383641
    O                1.153337619099716    -2.341120767708713    -0.153226034383640
    H                1.040337619099716    -0.223120767708713     1.396773965616360
    H                0.354337619099716     2.043879232291288     0.670773965616360
    H                0.412337619099716    -1.664120767708713    -2.594226034383640
    H                1.196337619099716    -2.958120767708713    -0.883226034383640
    H                0.113337619099716     3.069879232291287    -2.753226034383641
    H               -0.049662380900284     3.580879232291287    -1.089226034383640
    H               -0.261662380900284     0.566879232291287    -3.311226034383640
    H               -1.486502380900284     3.004679232291287    -1.964826034383641

}
e, wfn = energy('scf', return_wfn=True)
gdma(wfn)
dmavals = variable('DMA DISTRIBUTED MULTIPOLES')
charges = np.array(dmavals)
print(charges)
np.save('SSI-118ILE-166TYR-1-dimer.npy', np.array(charges))--------------------------------------------------------------------------

*** tstart() called on ds3
*** at Tue Apr 28 09:56:57 2020

   => Loading Basis Set <=

    Name: CC-PVDZ
    Role: ORBITAL
    Keyword: BASIS
    atoms 1-2, 9-15  entry C          line   138 file /theoryfs2/ds/metcalf/miniconda2/envs/tf2gpu/share/psi4/basis/cc-pvdz.gbs
    atoms 3-8, 17-24 entry H          line    22 file /theoryfs2/ds/metcalf/miniconda2/envs/tf2gpu/share/psi4/basis/cc-pvdz.gbs
    atoms 16         entry O          line   198 file /theoryfs2/ds/metcalf/miniconda2/envs/tf2gpu/share/psi4/basis/cc-pvdz.gbs

         ---------------------------------------------------------
                                   SCF
               by Justin Turney, Rob Parrish, Andy Simmonett
                          and Daniel G. A. Smith
                              RHF Reference
                        1 Threads,    500 MiB Core
         ---------------------------------------------------------

  ==> Geometry <==

    Molecular point group: c1
    Full point group: C1

    Geometry (in Angstrom), charge = 0, multiplicity = 1:

       Center              X                  Y                   Z               Mass
    ------------   -----------------  -----------------  -----------------  -----------------
         C           -1.809662380900    -0.149120767709     2.979773965616    12.000000000000
         C           -0.983662380900    -1.012120767709     3.923773965616    12.000000000000
         H           -2.799662380900     0.036879232291     3.396773965616     1.007825032230
         H           -1.303662380900     0.805879232291     2.836773965616     1.007825032230
         H           -1.905662380900    -0.644120767709     2.013773965616     1.007825032230
         H           -0.903662380900    -0.488120767709     4.875773965616     1.007825032230
         H            0.017337619100    -1.102120767709     3.499773965616     1.007825032230
         H           -1.393012380900    -2.021520767709     4.077193965616     1.007825032230
         C           -0.406662380900     2.852879232291    -1.820226034384    12.000000000000
         C            0.742337619100    -0.046120767709     0.373773965616    12.000000000000
         C            0.767337619100    -1.094120767709    -0.545226034384    12.000000000000
         C            0.349337619100     1.228879232291    -0.042226034384    12.000000000000
         C           -0.018662380900     1.465879232291    -1.369226034384    12.000000000000
         C            0.398337619100    -0.868120767709    -1.872226034384    12.000000000000
         C            0.009337619100     0.405879232291    -2.278226034384    12.000000000000
         O            1.153337619100    -2.341120767709    -0.153226034384    15.994914619570
         H            1.040337619100    -0.223120767709     1.396773965616     1.007825032230
         H            0.354337619100     2.043879232291     0.670773965616     1.007825032230
         H            0.412337619100    -1.664120767709    -2.594226034384     1.007825032230
         H            1.196337619100    -2.958120767709    -0.883226034384     1.007825032230
         H            0.113337619100     3.069879232291    -2.753226034384     1.007825032230
         H           -0.049662380900     3.580879232291    -1.089226034384     1.007825032230
         H           -0.261662380900     0.566879232291    -3.311226034384     1.007825032230
         H           -1.486502380900     3.004679232291    -1.964826034384     1.007825032230

  Running in c1 symmetry.

  Rotational constants: A =      0.04852  B =      0.02408  C =      0.01740 [cm^-1]
  Rotational constants: A =   1454.50816  B =    722.04574  C =    521.55014 [MHz]
  Nuclear repulsion =  494.480141961063282

  Charge       = 0
  Multiplicity = 1
  Electrons    = 76
  Nalpha       = 38
  Nbeta        = 38

  ==> Algorithm <==

  SCF Algorithm Type is PK.
  DIIS enabled.
  MOM disabled.
  Fractional occupation disabled.
  Guess Type is SAD.
  Energy threshold   = 1.00e-06
  Density threshold  = 1.00e-10
  Integral threshold = 0.00e+00

  ==> Primary Basis <==

  Basis Set: CC-PVDZ
    Blend: CC-PVDZ
    Number of shells: 102
    Number of basis function: 210
    Number of Cartesian functions: 220
    Spherical Harmonics?: true
    Max angular momentum: 2

  ==> Pre-Iterations <==

   -------------------------------------------------------
    Irrep   Nso     Nmo     Nalpha   Nbeta   Ndocc  Nsocc
   -------------------------------------------------------
     A        210     210       0       0       0       0
   -------------------------------------------------------
    Total     210     210      38      38      38       0
   -------------------------------------------------------

  ==> Integral Setup <==

  Using integral reordering PK algorithm.
  Sizing the integral batches needed.
  Building batch lookup table.
   Calculation information:
      Number of atoms:                  24
      Number of AO shells:             102
      Number of primitives:            290
      Number of atomic orbitals:       220
      Number of basis functions:       210

      Integral cutoff                 1.00e-12
      Number of threads:                 1

	Batch   1 pq = [       0,    9405] index = [             0,44231715] size =     44231715
	Batch   2 pq = [    9405,   13301] index = [      44231715,88464951] size =     44233236
	Batch   3 pq = [   13301,   16290] index = [      88464951,132690195] size =     44225244
	Batch   4 pq = [   16290,   18810] index = [     132690195,176917455] size =     44227260
	Batch   5 pq = [   18810,   21030] index = [     176917455,221140965] size =     44223510
	Batch   6 pq = [   21030,   22155] index = [     221140965,245433090] size =     24292125
  Task number: 23
  Buffer size: 11059200
  Buffer per thread: 2
  We computed 11543890 shell quartets total.
  Whereas there are 13799631 unique shell quartets.

  ==> DiskJK: Disk-Based J/K Matrices <==

    J tasked:                  Yes
    K tasked:                  Yes
    wK tasked:                  No
    Memory [MiB]:              375
    Schwarz Cutoff:          1E-12

    OpenMP threads:              1

  Minimum eigenvalue in the overlap matrix is 3.2755223206E-04.
  Using Symmetric Orthogonalization.

  SCF Guess: Superposition of Atomic Densities via on-the-fly atomic UHF.

  ==> Iterations <==

                        Total Energy        Delta E     RMS |[F,P]|

   @RHF iter SAD:  -422.66814948995125   -4.22668e+02   0.00000e+00
   @RHF iter   1:  -423.60097781494676   -9.32828e-01   2.98464e-03 DIIS
   @RHF iter   2:  -423.81781200826657   -2.16834e-01   1.25896e-03 DIIS
   @RHF iter   3:  -423.85280368775506   -3.49917e-02   2.83167e-04 DIIS
   @RHF iter   4:  -423.85565896733982   -2.85528e-03   1.16648e-04 DIIS
   @RHF iter   5:  -423.85600834368068   -3.49376e-04   2.06035e-05 DIIS
   @RHF iter   6:  -423.85602552553922   -1.71819e-05   6.35802e-06 DIIS
   @RHF iter   7:  -423.85602711178018   -1.58624e-06   2.04322e-06 DIIS
   @RHF iter   8:  -423.85602732759446   -2.15814e-07   7.73009e-07 DIIS
   @RHF iter   9:  -423.85602736146177   -3.38673e-08   2.97977e-07 DIIS
   @RHF iter  10:  -423.85602736768556   -6.22379e-09   1.24154e-07 DIIS
   @RHF iter  11:  -423.85602736949295   -1.80739e-09   5.70192e-08 DIIS
   @RHF iter  12:  -423.85602736987795   -3.85000e-10   2.89377e-08 DIIS
   @RHF iter  13:  -423.85602736995884   -8.08882e-11   7.95412e-09 DIIS
   @RHF iter  14:  -423.85602736996606   -7.21911e-12   2.11713e-09 DIIS
   @RHF iter  15:  -423.85602736996492    1.13687e-12   6.84233e-10 DIIS
   @RHF iter  16:  -423.85602736996697   -2.04636e-12   2.17556e-10 DIIS
   @RHF iter  17:  -423.85602736996725   -2.84217e-13   8.80149e-11 DIIS
  Energy and wave function converged.

  ==> Post-Iterations <==

    Orbital Energies [Eh]
    ---------------------

    Doubly Occupied:

       1A    -20.582379     2A    -11.300730     3A    -11.239336
       4A    -11.239065     5A    -11.234180     6A    -11.233399
       7A    -11.231085     8A    -11.227876     9A    -11.212161
      10A    -11.209392    11A     -1.400629    12A     -1.149300
      13A     -1.036257    14A     -1.018149    15A     -1.013798
      16A     -0.925764    17A     -0.843821    18A     -0.830190
      19A     -0.803325    20A     -0.733729    21A     -0.667078
      22A     -0.642633    23A     -0.607995    24A     -0.596266
      25A     -0.593632    26A     -0.586181    27A     -0.583376
      28A     -0.571284    29A     -0.564861    30A     -0.524544
      31A     -0.497911    32A     -0.496131    33A     -0.485958
      34A     -0.479414    35A     -0.477902    36A     -0.465854
      37A     -0.338106    38A     -0.301250

    Virtual:

      39A      0.128833    40A      0.154247    41A      0.176175
      42A      0.181399    43A      0.194474    44A      0.220390
      45A      0.222559    46A      0.236625    47A      0.257725
      48A      0.262557    49A      0.265746    50A      0.273841
      51A      0.282359    52A      0.284533    53A      0.323504
      54A      0.357206    55A      0.373805    56A      0.380561
      57A      0.407955    58A      0.430601    59A      0.454949
      60A      0.487754    61A      0.495709    62A      0.506660
      63A      0.595356    64A      0.603739    65A      0.611135
      66A      0.615350    67A      0.633694    68A      0.643208
      69A      0.652912    70A      0.671891    71A      0.688250
      72A      0.694405    73A      0.700699    74A      0.714323
      75A      0.731429    76A      0.738748    77A      0.766514
      78A      0.771637    79A      0.785112    80A      0.791222
      81A      0.810061    82A      0.829557    83A      0.848919
      84A      0.856496    85A      0.866538    86A      0.878108
      87A      0.884166    88A      0.893525    89A      0.898200
      90A      0.907527    91A      0.912101    92A      0.917147
      93A      0.934314    94A      0.935103    95A      0.943242
      96A      0.944732    97A      0.955855    98A      0.992278
      99A      1.001065   100A      1.022738   101A      1.029455
     102A      1.057779   103A      1.121957   104A      1.132841
     105A      1.143057   106A      1.145532   107A      1.152283
     108A      1.167018   109A      1.200899   110A      1.227449
     111A      1.244540   112A      1.262266   113A      1.277197
     114A      1.287062   115A      1.295603   116A      1.305670
     117A      1.312067   118A      1.360485   119A      1.363015
     120A      1.386011   121A      1.469842   122A      1.483163
     123A      1.500545   124A      1.510228   125A      1.522153
     126A      1.549090   127A      1.598711   128A      1.615451
     129A      1.626337   130A      1.685034   131A      1.691175
     132A      1.696673   133A      1.701897   134A      1.739578
     135A      1.749901   136A      1.777960   137A      1.806553
     138A      1.810232   139A      1.860976   140A      1.869656
     141A      1.880404   142A      1.888739   143A      1.896443
     144A      1.901453   145A      1.910845   146A      1.918614
     147A      1.927047   148A      1.947462   149A      1.954678
     150A      1.956354   151A      1.962567   152A      1.969042
     153A      1.976775   154A      1.981565   155A      1.990341
     156A      2.008709   157A      2.030054   158A      2.047021
     159A      2.060407   160A      2.065161   161A      2.069285
     162A      2.107105   163A      2.132103   164A      2.138685
     165A      2.144617   166A      2.172807   167A      2.198223
     168A      2.223793   169A      2.255525   170A      2.273531
     171A      2.301580   172A      2.313785   173A      2.324092
     174A      2.335962   175A      2.370210   176A      2.407600
     177A      2.461188   178A      2.464187   179A      2.475305
     180A      2.476895   181A      2.503396   182A      2.527739
     183A      2.546380   184A      2.567144   185A      2.593356
     186A      2.602558   187A      2.640940   188A      2.742915
     189A      2.767306   190A      2.779284   191A      2.791918
     192A      2.805033   193A      2.809817   194A      2.848119
     195A      2.861784   196A      2.872179   197A      2.898553
     198A      2.955439   199A      2.969979   200A      2.973189
     201A      2.996143   202A      3.087193   203A      3.115443
     204A      3.250090   205A      3.276363   206A      3.351934
     207A      3.571722   208A      3.669134   209A      3.974875
     210A      4.195676

    Final Occupation by Irrep:
              A
    DOCC [    38 ]

  @RHF Final Energy:  -423.85602736996725

   => Energetics <=

    Nuclear Repulsion Energy =            494.4801419610632820
    One-Electron Energy =               -1554.7824562286023138
    Two-Electron Energy =                 636.4462868975717811
    Total Energy =                       -423.8560273699672507

Computation Completed

Properties will be evaluated at   0.000000,   0.000000,   0.000000 [a0]

Properties computed using the SCF density matrix

  Nuclear Dipole Moment: [e a0]
     X:    -6.5281      Y:     3.7459      Z:     9.5349

  Electronic Dipole Moment: [e a0]
     X:     6.4739      Y:    -3.7559      Z:   -10.1608

  Dipole Moment: [e a0]
     X:    -0.0542      Y:    -0.0100      Z:    -0.6259     Total:     0.6284

  Dipole Moment: [D]
     X:    -0.1378      Y:    -0.0255      Z:    -1.5910     Total:     1.5971

*** tstop() called on ds3 at Tue Apr 28 10:00:12 2020
Module time:
	user time   =      86.79 seconds =       1.45 minutes
	system time =      33.15 seconds =       0.55 minutes
	total time  =        195 seconds =       3.25 minutes
Total time:
	user time   =      86.79 seconds =       1.45 minutes
	system time =      33.15 seconds =       0.55 minutes
	total time  =        195 seconds =       3.25 minutes
                                     G D M A

                                 by Anthony Stone

                           version 2.2.06, 22 June 2011

               Distributed Multipoles from Gaussian wavefunctions

Starting at 10:0:12 on 28 Apr 2020

Using SCF density matrix from file ./SSI/SSI-118ILE-166TYR-1-dimer.test.631.fchk

                         Distributed Multipole Analysis

Standard DMA

Positions and radii in angstrom
Multipole moments in atomic units, ea_0^k for rank k

C          x = -1.809662  y = -0.149121  z =  2.979774 angstrom
           Maximum rank =  0   Radius =  0.650 angstrom
                   Q00  =  -0.227771

C          x = -0.983662  y = -1.012121  z =  3.923774 angstrom
           Maximum rank =  0   Radius =  0.650 angstrom
                   Q00  =  -0.237622

H          x = -2.799662  y =  0.036879  z =  3.396774 angstrom
           Maximum rank =  0   Radius =  0.325 angstrom
                   Q00  =   0.075053

H          x = -1.303662  y =  0.805879  z =  2.836774 angstrom
           Maximum rank =  0   Radius =  0.325 angstrom
                   Q00  =   0.073215

H          x = -1.905662  y = -0.644121  z =  2.013774 angstrom
           Maximum rank =  0   Radius =  0.325 angstrom
                   Q00  =   0.087400

H          x = -0.903662  y = -0.488121  z =  4.875774 angstrom
           Maximum rank =  0   Radius =  0.325 angstrom
                   Q00  =   0.073075

H          x =  0.017338  y = -1.102121  z =  3.499774 angstrom
           Maximum rank =  0   Radius =  0.325 angstrom
                   Q00  =   0.074843

H          x = -1.393012  y = -2.021521  z =  4.077194 angstrom
           Maximum rank =  0   Radius =  0.325 angstrom
                   Q00  =   0.082566

C          x = -0.406662  y =  2.852879  z = -1.820226 angstrom
           Maximum rank =  0   Radius =  0.650 angstrom
                   Q00  =  -0.194635

C          x =  0.742338  y = -0.046121  z =  0.373774 angstrom
           Maximum rank =  0   Radius =  0.650 angstrom
                   Q00  =  -0.122429

C          x =  0.767338  y = -1.094121  z = -0.545226 angstrom
           Maximum rank =  0   Radius =  0.650 angstrom
                   Q00  =   0.315698

C          x =  0.349338  y =  1.228879  z = -0.042226 angstrom
           Maximum rank =  0   Radius =  0.650 angstrom
                   Q00  =   0.031823

C          x = -0.018662  y =  1.465879  z = -1.369226 angstrom
           Maximum rank =  0   Radius =  0.650 angstrom
                   Q00  =  -0.134403

C          x =  0.398338  y = -0.868121  z = -1.872226 angstrom
           Maximum rank =  0   Radius =  0.650 angstrom
                   Q00  =  -0.187802

C          x =  0.009338  y =  0.405879  z = -2.278226 angstrom
           Maximum rank =  0   Radius =  0.650 angstrom
                   Q00  =  -0.016839

O          x =  1.153338  y = -2.341121  z = -0.153226 angstrom
           Maximum rank =  0   Radius =  0.650 angstrom
                   Q00  =  -0.675218

H          x =  1.040338  y = -0.223121  z =  1.396774 angstrom
           Maximum rank =  0   Radius =  0.325 angstrom
                   Q00  =   0.081290

H          x =  0.354338  y =  2.043879  z =  0.670774 angstrom
           Maximum rank =  0   Radius =  0.325 angstrom
                   Q00  =   0.065442

H          x =  0.412338  y = -1.664121  z = -2.594226 angstrom
           Maximum rank =  0   Radius =  0.325 angstrom
                   Q00  =   0.071926

H          x =  1.196338  y = -2.958121  z = -0.883226 angstrom
           Maximum rank =  0   Radius =  0.325 angstrom
                   Q00  =   0.405202

H          x =  0.113338  y =  3.069879  z = -2.753226 angstrom
           Maximum rank =  0   Radius =  0.325 angstrom
                   Q00  =   0.095041

H          x = -0.049662  y =  3.580879  z = -1.089226 angstrom
           Maximum rank =  0   Radius =  0.325 angstrom
                   Q00  =   0.095208

H          x = -0.261662  y =  0.566879  z = -3.311226 angstrom
           Maximum rank =  0   Radius =  0.325 angstrom
                   Q00  =   0.068402

H          x = -1.486502  y =  3.004679  z = -1.964826 angstrom
           Maximum rank =  0   Radius =  0.325 angstrom
                   Q00  =   0.100536

Total multipoles referred to origin at
           x =   0.000000,  y =    0.000000,  z =    0.000000 angstrom
                   Q00  =  -0.000000

Finished at 10:0:12 on 28 Apr 2020

  DMA results are available in the Python driver through the
	  variable('DMA DISTRIBUTED MULTIPOLES')
  and
	  variable('DMA TOTAL MULTIPOLES')
  commands.

    Psi4 stopped on: Tuesday, 28 April 2020 10:00AM
    Psi4 wall time for execution: 0:03:15.79

*** Psi4 exiting successfully. Buy a developer a beer!
