                               Psi4 1.3.2 release

  ==> Input File <==

--------------------------------------------------------------------------
import numpy as np
set {scf_type pk
basis cc-pvdz
d_convergence 10
gdma_switch   0
gdma_limit    0
gdma_origin   [ 0.0,  0.0,  0.0 ]
}
molecule test {
    units Angstrom
    0 1
    --
    0 1
    C               -1.743782851897891    -2.084985825779167    -3.948970853959757
    C               -0.174782851897891    -0.169985825779167    -1.097970853959757
    C                1.097217148102109     0.086014174220833    -1.511970853959757
    C               -1.063782851897891    -0.899985825779167    -1.857970853959757
    C               -0.725782851897891    -1.308985825779167    -3.117970853959757
    C                1.506217148102109    -0.375985825779167    -2.744970853959757
    C                0.592217148102109    -1.047985825779167    -3.545970853959757
    H               -0.499782851897891     0.182014174220833    -0.139970853959757
    H                1.777217148102110     0.640014174220833    -0.877970853959757
    H               -2.021782851897890    -1.161985825779167    -1.445970853959757
    H                2.513217148102109    -0.190985825779167    -3.093970853959757
    H               -2.735782851897890    -1.661985825779167    -3.785970853959757
    H               -1.756782851897891    -3.110985825779167    -3.590970853959757
    H                0.928217148102109    -1.363985825779167    -4.518970853959758
    H               -1.528332851897890    -2.090745825779167    -5.027650853959757
    C                0.152217148102109    -0.968985825779167     2.523029146040243
    C               -0.766782851897891    -1.512985825779167     3.640029146040243
    C                0.254217148102109     0.517014174220833     2.411029146040243
    C                1.340217148102109     1.347014174220833     2.480029146040243
    C               -0.384782851897891     2.562014174220832     1.883029146040243
    N               -0.800782851897891     1.295014174220833     2.015029146040243
    N                0.911217148102109     2.631014174220832     2.181029146040243
    H                1.151217148102109    -1.388985825779167     2.644029146040243
    H               -0.238782851897891    -1.325985825779167     1.573029146040243
    H               -0.927782851897891    -2.571985825779167     3.443029146040243
    H                2.354217148102109     1.040014174220833     2.702029146040243
    H               -1.001782851897891     3.395014174220833     1.578029146040243
    H                1.488217148102109     3.463014174220833     2.122029146040243
    H               -1.747242851897891    -1.018615825779167     3.705594146040243
    H               -0.272232851897891    -1.448915825779167     4.620495146040242

}
e, wfn = energy('scf', return_wfn=True)
gdma(wfn)
dmavals = variable('DMA DISTRIBUTED MULTIPOLES')
charges = np.array(dmavals)
print(charges)
np.save('SSI-008PHE-101HIE-1-dimer.npy', np.array(charges))--------------------------------------------------------------------------

*** tstart() called on ds3
*** at Mon Apr 27 20:45:19 2020

   => Loading Basis Set <=

    Name: CC-PVDZ
    Role: ORBITAL
    Keyword: BASIS
    atoms 1-7, 16-20  entry C          line   138 file /theoryfs2/ds/metcalf/miniconda2/envs/tf2gpu/share/psi4/basis/cc-pvdz.gbs
    atoms 8-15, 23-30 entry H          line    22 file /theoryfs2/ds/metcalf/miniconda2/envs/tf2gpu/share/psi4/basis/cc-pvdz.gbs
    atoms 21-22       entry N          line   168 file /theoryfs2/ds/metcalf/miniconda2/envs/tf2gpu/share/psi4/basis/cc-pvdz.gbs

         ---------------------------------------------------------
                                   SCF
               by Justin Turney, Rob Parrish, Andy Simmonett
                          and Daniel G. A. Smith
                              RHF Reference
                        1 Threads,    500 MiB Core
         ---------------------------------------------------------

  ==> Geometry <==

    Molecular point group: c1
    Full point group: C1

    Geometry (in Angstrom), charge = 0, multiplicity = 1:

       Center              X                  Y                   Z               Mass
    ------------   -----------------  -----------------  -----------------  -----------------
         C           -1.743782851898    -2.084985825779    -3.948970853960    12.000000000000
         C           -0.174782851898    -0.169985825779    -1.097970853960    12.000000000000
         C            1.097217148102     0.086014174221    -1.511970853960    12.000000000000
         C           -1.063782851898    -0.899985825779    -1.857970853960    12.000000000000
         C           -0.725782851898    -1.308985825779    -3.117970853960    12.000000000000
         C            1.506217148102    -0.375985825779    -2.744970853960    12.000000000000
         C            0.592217148102    -1.047985825779    -3.545970853960    12.000000000000
         H           -0.499782851898     0.182014174221    -0.139970853960     1.007825032230
         H            1.777217148102     0.640014174221    -0.877970853960     1.007825032230
         H           -2.021782851898    -1.161985825779    -1.445970853960     1.007825032230
         H            2.513217148102    -0.190985825779    -3.093970853960     1.007825032230
         H           -2.735782851898    -1.661985825779    -3.785970853960     1.007825032230
         H           -1.756782851898    -3.110985825779    -3.590970853960     1.007825032230
         H            0.928217148102    -1.363985825779    -4.518970853960     1.007825032230
         H           -1.528332851898    -2.090745825779    -5.027650853960     1.007825032230
         C            0.152217148102    -0.968985825779     2.523029146040    12.000000000000
         C           -0.766782851898    -1.512985825779     3.640029146040    12.000000000000
         C            0.254217148102     0.517014174221     2.411029146040    12.000000000000
         C            1.340217148102     1.347014174221     2.480029146040    12.000000000000
         C           -0.384782851898     2.562014174221     1.883029146040    12.000000000000
         N           -0.800782851898     1.295014174221     2.015029146040    14.003074004430
         N            0.911217148102     2.631014174221     2.181029146040    14.003074004430
         H            1.151217148102    -1.388985825779     2.644029146040     1.007825032230
         H           -0.238782851898    -1.325985825779     1.573029146040     1.007825032230
         H           -0.927782851898    -2.571985825779     3.443029146040     1.007825032230
         H            2.354217148102     1.040014174221     2.702029146040     1.007825032230
         H           -1.001782851898     3.395014174221     1.578029146040     1.007825032230
         H            1.488217148102     3.463014174221     2.122029146040     1.007825032230
         H           -1.747242851898    -1.018615825779     3.705594146040     1.007825032230
         H           -0.272232851898    -1.448915825779     4.620495146040     1.007825032230

  Running in c1 symmetry.

  Rotational constants: A =      0.03619  B =      0.01043  C =      0.00930 [cm^-1]
  Rotational constants: A =   1085.08996  B =    312.74098  C =    278.84287 [MHz]
  Nuclear repulsion =  811.436070728053323

  Charge       = 0
  Multiplicity = 1
  Electrons    = 102
  Nalpha       = 51
  Nbeta        = 51

  ==> Algorithm <==

  SCF Algorithm Type is PK.
  DIIS enabled.
  MOM disabled.
  Fractional occupation disabled.
  Guess Type is SAD.
  Energy threshold   = 1.00e-06
  Density threshold  = 1.00e-10
  Integral threshold = 0.00e+00

  ==> Primary Basis <==

  Basis Set: CC-PVDZ
    Blend: CC-PVDZ
    Number of shells: 132
    Number of basis function: 276
    Number of Cartesian functions: 290
    Spherical Harmonics?: true
    Max angular momentum: 2

  ==> Pre-Iterations <==

   -------------------------------------------------------
    Irrep   Nso     Nmo     Nalpha   Nbeta   Ndocc  Nsocc
   -------------------------------------------------------
     A        276     276       0       0       0       0
   -------------------------------------------------------
    Total     276     276      51      51      51       0
   -------------------------------------------------------

  ==> Integral Setup <==

  Using integral reordering PK algorithm.
  Sizing the integral batches needed.
  Building batch lookup table.
   Calculation information:
      Number of atoms:                  30
      Number of AO shells:             132
      Number of primitives:            388
      Number of atomic orbitals:       290
      Number of basis functions:       276

      Integral cutoff                 1.00e-12
      Number of threads:                 1

	Batch   1 pq = [       0,    9405] index = [             0,44231715] size =     44231715
	Batch   2 pq = [    9405,   13301] index = [      44231715,88464951] size =     44233236
	Batch   3 pq = [   13301,   16290] index = [      88464951,132690195] size =     44225244
	Batch   4 pq = [   16290,   18810] index = [     132690195,176917455] size =     44227260
	Batch   5 pq = [   18810,   21030] index = [     176917455,221140965] size =     44223510
	Batch   6 pq = [   21030,   23037] index = [     221140965,265363203] size =     44222238
	Batch   7 pq = [   23037,   24883] index = [     265363203,309594286] size =     44231083
	Batch   8 pq = [   24883,   26601] index = [     309594286,353819901] size =     44225615
	Batch   9 pq = [   26601,   28214] index = [     353819901,398029005] size =     44209104
	Batch  10 pq = [   28214,   29740] index = [     398029005,442248670] size =     44219665
	Batch  11 pq = [   29740,   31191] index = [     442248670,486454836] size =     44206166
	Batch  12 pq = [   31191,   32578] index = [     486454836,530679331] size =     44224495
	Batch  13 pq = [   32578,   33908] index = [     530679331,574893186] size =     44213855
	Batch  14 pq = [   33908,   35188] index = [     574893186,619115266] size =     44222080
	Batch  15 pq = [   35188,   36423] index = [     619115266,663335676] size =     44220410
	Batch  16 pq = [   36423,   37617] index = [     663335676,707538153] size =     44202477
	Batch  17 pq = [   37617,   38226] index = [     707538153,730632651] size =     23094498
  Task number: 67
  Buffer size: 11059200
  Buffer per thread: 2
  We computed 35937662 shell quartets total.
  Whereas there are 38531031 unique shell quartets.

  ==> DiskJK: Disk-Based J/K Matrices <==

    J tasked:                  Yes
    K tasked:                  Yes
    wK tasked:                  No
    Memory [MiB]:              375
    Schwarz Cutoff:          1E-12

    OpenMP threads:              1

  Minimum eigenvalue in the overlap matrix is 2.7860889851E-04.
  Using Symmetric Orthogonalization.

  SCF Guess: Superposition of Atomic Densities via on-the-fly atomic UHF.

  ==> Iterations <==

                        Total Energy        Delta E     RMS |[F,P]|

   @RHF iter SAD:  -571.78769222966889   -5.71788e+02   0.00000e+00
   @RHF iter   1:  -572.34977581508770   -5.62084e-01   2.45543e-03 DIIS
   @RHF iter   2:  -572.60385721751300   -2.54081e-01   1.20536e-03 DIIS
   @RHF iter   3:  -572.65738933154978   -5.35321e-02   3.35316e-04 DIIS
   @RHF iter   4:  -572.66250247495543   -5.11314e-03   1.40221e-04 DIIS
   @RHF iter   5:  -572.66332328961153   -8.20815e-04   1.85895e-05 DIIS
   @RHF iter   6:  -572.66334825946967   -2.49699e-05   7.53617e-06 DIIS
   @RHF iter   7:  -572.66335188807216   -3.62860e-06   2.43712e-06 DIIS
   @RHF iter   8:  -572.66335253454713   -6.46475e-07   1.03094e-06 DIIS
   @RHF iter   9:  -572.66335267912780   -1.44581e-07   3.96884e-07 DIIS
   @RHF iter  10:  -572.66335270074705   -2.16193e-08   1.32642e-07 DIIS
   @RHF iter  11:  -572.66335270377010   -3.02305e-09   5.40896e-08 DIIS
   @RHF iter  12:  -572.66335270412924   -3.59137e-10   2.42407e-08 DIIS
   @RHF iter  13:  -572.66335270419791   -6.86668e-11   8.13358e-09 DIIS
   @RHF iter  14:  -572.66335270421291   -1.50067e-11   3.47495e-09 DIIS
   @RHF iter  15:  -572.66335270421030    2.61480e-12   1.43470e-09 DIIS
   @RHF iter  16:  -572.66335270421473   -4.43379e-12   5.91756e-10 DIIS
   @RHF iter  17:  -572.66335270421280    1.93268e-12   2.61418e-10 DIIS
   @RHF iter  18:  -572.66335270421439   -1.59162e-12   8.80815e-11 DIIS
  Energy and wave function converged.

  ==> Post-Iterations <==

    Orbital Energies [Eh]
    ---------------------

    Doubly Occupied:

       1A    -15.627741     2A    -15.533411     3A    -11.299219
       4A    -11.255283     5A    -11.243450     6A    -11.231978
       7A    -11.225623     8A    -11.225111     9A    -11.223931
      10A    -11.221124    11A    -11.215128    12A    -11.214467
      13A    -11.212499    14A    -11.209903    15A     -1.341967
      16A     -1.160612    17A     -1.148438    18A     -1.046595
      19A     -1.037044    20A     -1.001914    21A     -0.983772
      22A     -0.925858    23A     -0.862598    24A     -0.824899
      25A     -0.814524    26A     -0.788027    27A     -0.760895
      28A     -0.736255    29A     -0.684679    30A     -0.626120
      31A     -0.623523    32A     -0.617288    33A     -0.604926
      34A     -0.596643    35A     -0.583670    36A     -0.570157
      37A     -0.568126    38A     -0.562863    39A     -0.553924
      40A     -0.531862    41A     -0.512058    42A     -0.491435
      43A     -0.485245    44A     -0.482237    45A     -0.472838
      46A     -0.468102    47A     -0.412522    48A     -0.381668
      49A     -0.322653    50A     -0.314976    51A     -0.309306

    Virtual:

      52A      0.149001    53A      0.153344    54A      0.167394
      55A      0.176866    56A      0.188106    57A      0.198036
      58A      0.211417    59A      0.217372    60A      0.224628
      61A      0.232691    62A      0.245135    63A      0.254405
      64A      0.265339    65A      0.268217    66A      0.272376
      67A      0.278254    68A      0.289302    69A      0.295338
      70A      0.312383    71A      0.347058    72A      0.379058
      73A      0.383739    74A      0.386994    75A      0.392759
      76A      0.405824    77A      0.446877    78A      0.465936
      79A      0.474458    80A      0.485413    81A      0.490951
      82A      0.503717    83A      0.517116    84A      0.560556
      85A      0.594629    86A      0.607491    87A      0.614197
      88A      0.631932    89A      0.635667    90A      0.647440
      91A      0.662499    92A      0.681676    93A      0.694986
      94A      0.707082    95A      0.709172    96A      0.716767
      97A      0.719427    98A      0.738087    99A      0.741788
     100A      0.754059   101A      0.758004   102A      0.762218
     103A      0.769583   104A      0.782194   105A      0.785865
     106A      0.806517   107A      0.817431   108A      0.822251
     109A      0.837822   110A      0.842185   111A      0.866557
     112A      0.869263   113A      0.875220   114A      0.884643
     115A      0.890395   116A      0.893617   117A      0.900317
     118A      0.910268   119A      0.912376   120A      0.915619
     121A      0.929647   122A      0.934406   123A      0.940027
     124A      0.947782   125A      0.950694   126A      0.961111
     127A      0.968709   128A      0.974789   129A      0.989942
     130A      1.005281   131A      1.017983   132A      1.043385
     133A      1.045965   134A      1.063372   135A      1.076652
     136A      1.087880   137A      1.115374   138A      1.122908
     139A      1.144578   140A      1.154825   141A      1.166473
     142A      1.178252   143A      1.190849   144A      1.219708
     145A      1.240722   146A      1.248740   147A      1.250171
     148A      1.253349   149A      1.260423   150A      1.283210
     151A      1.302243   152A      1.304461   153A      1.314596
     154A      1.324038   155A      1.333310   156A      1.338853
     157A      1.357449   158A      1.381998   159A      1.402563
     160A      1.420947   161A      1.438922   162A      1.450986
     163A      1.470057   164A      1.501820   165A      1.521460
     166A      1.531112   167A      1.547067   168A      1.575486
     169A      1.589884   170A      1.603708   171A      1.618037
     172A      1.667137   173A      1.690102   174A      1.694994
     175A      1.704600   176A      1.710634   177A      1.746056
     178A      1.757487   179A      1.762071   180A      1.769284
     181A      1.781820   182A      1.805209   183A      1.826793
     184A      1.828379   185A      1.846015   186A      1.875483
     187A      1.876492   188A      1.887570   189A      1.897870
     190A      1.903569   191A      1.908482   192A      1.924799
     193A      1.928485   194A      1.930340   195A      1.932456
     196A      1.953605   197A      1.958854   198A      1.963326
     199A      1.977615   200A      1.982608   201A      1.986769
     202A      1.993040   203A      2.000838   204A      2.012006
     205A      2.023181   206A      2.027952   207A      2.042222
     208A      2.055801   209A      2.070621   210A      2.078446
     211A      2.100429   212A      2.110392   213A      2.123657
     214A      2.125625   215A      2.153123   216A      2.157914
     217A      2.168100   218A      2.184552   219A      2.200355
     220A      2.205231   221A      2.224774   222A      2.234400
     223A      2.260139   224A      2.281415   225A      2.292614
     226A      2.296551   227A      2.308305   228A      2.314573
     229A      2.327586   230A      2.345423   231A      2.354740
     232A      2.368114   233A      2.416325   234A      2.449540
     235A      2.454382   236A      2.471691   237A      2.475092
     238A      2.479147   239A      2.502616   240A      2.511209
     241A      2.548185   242A      2.569970   243A      2.581221
     244A      2.605984   245A      2.652229   246A      2.676377
     247A      2.746010   248A      2.753318   249A      2.754665
     250A      2.768471   251A      2.771282   252A      2.785471
     253A      2.797730   254A      2.811030   255A      2.835020
     256A      2.856211   257A      2.865050   258A      2.875476
     259A      2.895786   260A      2.904769   261A      2.919128
     262A      2.940675   263A      2.974238   264A      2.993466
     265A      3.025501   266A      3.040897   267A      3.068336
     268A      3.073717   269A      3.163090   270A      3.188485
     271A      3.243303   272A      3.256273   273A      3.345963
     274A      3.465680   275A      3.784964   276A      4.011282

    Final Occupation by Irrep:
              A
    DOCC [    51 ]

  @RHF Final Energy:  -572.66335270421439

   => Energetics <=

    Nuclear Repulsion Energy =            811.4360707280533234
    One-Electron Energy =               -2385.9006686634465950
    Two-Electron Energy =                1001.8012452311787683
    Total Energy =                       -572.6633527042143896

Computation Completed

Properties will be evaluated at   0.000000,   0.000000,   0.000000 [a0]

Properties computed using the SCF density matrix

  Nuclear Dipole Moment: [e a0]
     X:    -2.3609      Y:    -8.0878      Z:    -0.0995

  Electronic Dipole Moment: [e a0]
     X:     3.2584      Y:     8.9548      Z:     0.2574

  Dipole Moment: [e a0]
     X:     0.8976      Y:     0.8670      Z:     0.1578     Total:     1.2579

  Dipole Moment: [D]
     X:     2.2814      Y:     2.2037      Z:     0.4011     Total:     3.1972

*** tstop() called on ds3 at Mon Apr 27 20:52:47 2020
Module time:
	user time   =     296.30 seconds =       4.94 minutes
	system time =     114.77 seconds =       1.91 minutes
	total time  =        448 seconds =       7.47 minutes
Total time:
	user time   =     296.30 seconds =       4.94 minutes
	system time =     114.77 seconds =       1.91 minutes
	total time  =        448 seconds =       7.47 minutes
                                     G D M A

                                 by Anthony Stone

                           version 2.2.06, 22 June 2011

               Distributed Multipoles from Gaussian wavefunctions

Starting at 20:52:47 on 27 Apr 2020

Using SCF density matrix from file ./SSI/SSI-008PHE-101HIE-1-dimer.test.17855.fchk

                         Distributed Multipole Analysis

Standard DMA

Positions and radii in angstrom
Multipole moments in atomic units, ea_0^k for rank k

C          x = -1.743783  y = -2.084986  z = -3.948971 angstrom
           Maximum rank =  0   Radius =  0.650 angstrom
                   Q00  =  -0.214672

C          x = -0.174783  y = -0.169986  z = -1.097971 angstrom
           Maximum rank =  0   Radius =  0.650 angstrom
                   Q00  =   0.049815

C          x =  1.097217  y =  0.086014  z = -1.511971 angstrom
           Maximum rank =  0   Radius =  0.650 angstrom
                   Q00  =  -0.084131

C          x = -1.063783  y = -0.899986  z = -1.857971 angstrom
           Maximum rank =  0   Radius =  0.650 angstrom
                   Q00  =  -0.080456

C          x = -0.725783  y = -1.308986  z = -3.117971 angstrom
           Maximum rank =  0   Radius =  0.650 angstrom
                   Q00  =  -0.099033

C          x =  1.506217  y = -0.375986  z = -2.744971 angstrom
           Maximum rank =  0   Radius =  0.650 angstrom
                   Q00  =  -0.088901

C          x =  0.592217  y = -1.047986  z = -3.545971 angstrom
           Maximum rank =  0   Radius =  0.650 angstrom
                   Q00  =  -0.068270

H          x = -0.499783  y =  0.182014  z = -0.139971 angstrom
           Maximum rank =  0   Radius =  0.325 angstrom
                   Q00  =   0.060065

H          x =  1.777217  y =  0.640014  z = -0.877971 angstrom
           Maximum rank =  0   Radius =  0.325 angstrom
                   Q00  =   0.048687

H          x = -2.021783  y = -1.161986  z = -1.445971 angstrom
           Maximum rank =  0   Radius =  0.325 angstrom
                   Q00  =   0.047377

H          x =  2.513217  y = -0.190986  z = -3.093971 angstrom
           Maximum rank =  0   Radius =  0.325 angstrom
                   Q00  =   0.057704

H          x = -2.735783  y = -1.661986  z = -3.785971 angstrom
           Maximum rank =  0   Radius =  0.325 angstrom
                   Q00  =   0.100836

H          x = -1.756783  y = -3.110986  z = -3.590971 angstrom
           Maximum rank =  0   Radius =  0.325 angstrom
                   Q00  =   0.104487

H          x =  0.928217  y = -1.363986  z = -4.518971 angstrom
           Maximum rank =  0   Radius =  0.325 angstrom
                   Q00  =   0.049599

H          x = -1.528333  y = -2.090746  z = -5.027651 angstrom
           Maximum rank =  0   Radius =  0.325 angstrom
                   Q00  =   0.100943

C          x =  0.152217  y = -0.968986  z =  2.523029 angstrom
           Maximum rank =  0   Radius =  0.650 angstrom
                   Q00  =  -0.014685

C          x = -0.766783  y = -1.512986  z =  3.640029 angstrom
           Maximum rank =  0   Radius =  0.650 angstrom
                   Q00  =  -0.257091

C          x =  0.254217  y =  0.517014  z =  2.411029 angstrom
           Maximum rank =  0   Radius =  0.650 angstrom
                   Q00  =   0.224125

C          x =  1.340217  y =  1.347014  z =  2.480029 angstrom
           Maximum rank =  0   Radius =  0.650 angstrom
                   Q00  =  -0.012571

C          x = -0.384783  y =  2.562014  z =  1.883029 angstrom
           Maximum rank =  0   Radius =  0.650 angstrom
                   Q00  =   0.460946

N          x = -0.800783  y =  1.295014  z =  2.015029 angstrom
           Maximum rank =  0   Radius =  0.650 angstrom
                   Q00  =  -0.788525

N          x =  0.911217  y =  2.631014  z =  2.181029 angstrom
           Maximum rank =  0   Radius =  0.650 angstrom
                   Q00  =  -0.462379

H          x =  1.151217  y = -1.388986  z =  2.644029 angstrom
           Maximum rank =  0   Radius =  0.325 angstrom
                   Q00  =   0.065435

H          x = -0.238783  y = -1.325986  z =  1.573029 angstrom
           Maximum rank =  0   Radius =  0.325 angstrom
                   Q00  =   0.087219

H          x = -0.927783  y = -2.571986  z =  3.443029 angstrom
           Maximum rank =  0   Radius =  0.325 angstrom
                   Q00  =   0.080886

H          x =  2.354217  y =  1.040014  z =  2.702029 angstrom
           Maximum rank =  0   Radius =  0.325 angstrom
                   Q00  =   0.103857

H          x = -1.001783  y =  3.395014  z =  1.578029 angstrom
           Maximum rank =  0   Radius =  0.325 angstrom
                   Q00  =   0.125362

H          x =  1.488217  y =  3.463014  z =  2.122029 angstrom
           Maximum rank =  0   Radius =  0.325 angstrom
                   Q00  =   0.227997

H          x = -1.747243  y = -1.018616  z =  3.705594 angstrom
           Maximum rank =  0   Radius =  0.325 angstrom
                   Q00  =   0.101347

H          x = -0.272233  y = -1.448916  z =  4.620495 angstrom
           Maximum rank =  0   Radius =  0.325 angstrom
                   Q00  =   0.074029

Total multipoles referred to origin at
           x =   0.000000,  y =    0.000000,  z =    0.000000 angstrom
                   Q00  =  -0.000000

Finished at 20:52:47 on 27 Apr 2020

  DMA results are available in the Python driver through the
	  variable('DMA DISTRIBUTED MULTIPOLES')
  and
	  variable('DMA TOTAL MULTIPOLES')
  commands.

    Psi4 stopped on: Monday, 27 April 2020 08:52PM
    Psi4 wall time for execution: 0:07:28.32

*** Psi4 exiting successfully. Buy a developer a beer!
