                               Psi4 1.3.2 release

  ==> Input File <==

--------------------------------------------------------------------------
import numpy as np
set {scf_type pk
basis cc-pvdz
d_convergence 10
gdma_switch   0
gdma_limit    0
gdma_origin   [ 0.0,  0.0,  0.0 ]
}
molecule test {
    units Angstrom
    0 1
    --
    0 1
    C                1.016910833044013    -2.910468542494075     1.279748978422536
    C                1.651910833044013    -4.182468542494075     1.835748978422536
    H               -0.065089166955988    -2.931468542494075     1.399748978422536
    H                1.394910833044013    -2.054468542494075     1.839748978422536
    H                1.280910833044013    -2.776468542494075     0.231748978422536
    H                1.246910833044013    -4.384468542494075     2.828748978422536
    H                2.725910833044012    -4.019468542494074     1.917748978422535
    H                1.449610833044013    -5.029558542494075     1.163797978422536
    C                1.430910833044012     2.877531457505925    -1.780251021577465
    C               -0.425089166955988    -0.332468542494075    -0.846251021577464
    C                0.435910833044012     0.567531457505925    -1.499251021577464
    C               -1.213089166955987     0.107531457505925     0.210748978422536
    C                0.502910833044012     1.903531457505925    -1.099251021577464
    C               -1.161089166955988     1.433531457505925     0.608748978422536
    C               -0.300089166955988     2.326531457505925    -0.042251021577464
    O               -2.060089166955988    -0.747468542494075     0.855748978422536
    H               -0.470089166955988    -1.363468542494075    -1.166251021577464
    H                1.050910833044013     0.220531457505925    -2.320251021577464
    H               -1.989089166955987    -1.644468542494075     0.514748978422536
    H               -1.789089166955987     1.771531457505925     1.420748978422536
    H                2.244910833044012     2.317531457505925    -2.226251021577464
    H                1.857910833044013     3.554531457505925    -1.047251021577464
    H               -0.291089166955988     3.365531457505925     0.266748978422536
    H                0.957876833044012     3.514501457505926    -2.542161021577464

}
e, wfn = energy('scf', return_wfn=True)
gdma(wfn)
dmavals = variable('DMA DISTRIBUTED MULTIPOLES')
charges = np.array(dmavals)
print(charges)
np.save('SSI-030ILE-093TYR-1-dimer.npy', np.array(charges))--------------------------------------------------------------------------

*** tstart() called on ds3
*** at Mon Apr 27 06:52:41 2020

   => Loading Basis Set <=

    Name: CC-PVDZ
    Role: ORBITAL
    Keyword: BASIS
    atoms 1-2, 9-15  entry C          line   138 file /theoryfs2/ds/metcalf/miniconda2/envs/tf2gpu/share/psi4/basis/cc-pvdz.gbs
    atoms 3-8, 17-24 entry H          line    22 file /theoryfs2/ds/metcalf/miniconda2/envs/tf2gpu/share/psi4/basis/cc-pvdz.gbs
    atoms 16         entry O          line   198 file /theoryfs2/ds/metcalf/miniconda2/envs/tf2gpu/share/psi4/basis/cc-pvdz.gbs

         ---------------------------------------------------------
                                   SCF
               by Justin Turney, Rob Parrish, Andy Simmonett
                          and Daniel G. A. Smith
                              RHF Reference
                        1 Threads,    500 MiB Core
         ---------------------------------------------------------

  ==> Geometry <==

    Molecular point group: c1
    Full point group: C1

    Geometry (in Angstrom), charge = 0, multiplicity = 1:

       Center              X                  Y                   Z               Mass
    ------------   -----------------  -----------------  -----------------  -----------------
         C            1.016910833044    -2.910468542494     1.279748978423    12.000000000000
         C            1.651910833044    -4.182468542494     1.835748978423    12.000000000000
         H           -0.065089166956    -2.931468542494     1.399748978423     1.007825032230
         H            1.394910833044    -2.054468542494     1.839748978423     1.007825032230
         H            1.280910833044    -2.776468542494     0.231748978423     1.007825032230
         H            1.246910833044    -4.384468542494     2.828748978423     1.007825032230
         H            2.725910833044    -4.019468542494     1.917748978423     1.007825032230
         H            1.449610833044    -5.029558542494     1.163797978423     1.007825032230
         C            1.430910833044     2.877531457506    -1.780251021577    12.000000000000
         C           -0.425089166956    -0.332468542494    -0.846251021577    12.000000000000
         C            0.435910833044     0.567531457506    -1.499251021577    12.000000000000
         C           -1.213089166956     0.107531457506     0.210748978423    12.000000000000
         C            0.502910833044     1.903531457506    -1.099251021577    12.000000000000
         C           -1.161089166956     1.433531457506     0.608748978423    12.000000000000
         C           -0.300089166956     2.326531457506    -0.042251021577    12.000000000000
         O           -2.060089166956    -0.747468542494     0.855748978423    15.994914619570
         H           -0.470089166956    -1.363468542494    -1.166251021577     1.007825032230
         H            1.050910833044     0.220531457506    -2.320251021577     1.007825032230
         H           -1.989089166956    -1.644468542494     0.514748978423     1.007825032230
         H           -1.789089166956     1.771531457506     1.420748978423     1.007825032230
         H            2.244910833044     2.317531457506    -2.226251021577     1.007825032230
         H            1.857910833044     3.554531457506    -1.047251021577     1.007825032230
         H           -0.291089166956     3.365531457506     0.266748978423     1.007825032230
         H            0.957876833044     3.514501457506    -2.542161021577     1.007825032230

  Running in c1 symmetry.

  Rotational constants: A =      0.05906  B =      0.01919  C =      0.01602 [cm^-1]
  Rotational constants: A =   1770.54358  B =    575.37703  C =    480.18190 [MHz]
  Nuclear repulsion =  490.168321198949172

  Charge       = 0
  Multiplicity = 1
  Electrons    = 76
  Nalpha       = 38
  Nbeta        = 38

  ==> Algorithm <==

  SCF Algorithm Type is PK.
  DIIS enabled.
  MOM disabled.
  Fractional occupation disabled.
  Guess Type is SAD.
  Energy threshold   = 1.00e-06
  Density threshold  = 1.00e-10
  Integral threshold = 0.00e+00

  ==> Primary Basis <==

  Basis Set: CC-PVDZ
    Blend: CC-PVDZ
    Number of shells: 102
    Number of basis function: 210
    Number of Cartesian functions: 220
    Spherical Harmonics?: true
    Max angular momentum: 2

  ==> Pre-Iterations <==

   -------------------------------------------------------
    Irrep   Nso     Nmo     Nalpha   Nbeta   Ndocc  Nsocc
   -------------------------------------------------------
     A        210     210       0       0       0       0
   -------------------------------------------------------
    Total     210     210      38      38      38       0
   -------------------------------------------------------

  ==> Integral Setup <==

  Using integral reordering PK algorithm.
  Sizing the integral batches needed.
  Building batch lookup table.
   Calculation information:
      Number of atoms:                  24
      Number of AO shells:             102
      Number of primitives:            290
      Number of atomic orbitals:       220
      Number of basis functions:       210

      Integral cutoff                 1.00e-12
      Number of threads:                 1

	Batch   1 pq = [       0,    9405] index = [             0,44231715] size =     44231715
	Batch   2 pq = [    9405,   13301] index = [      44231715,88464951] size =     44233236
	Batch   3 pq = [   13301,   16290] index = [      88464951,132690195] size =     44225244
	Batch   4 pq = [   16290,   18810] index = [     132690195,176917455] size =     44227260
	Batch   5 pq = [   18810,   21030] index = [     176917455,221140965] size =     44223510
	Batch   6 pq = [   21030,   22155] index = [     221140965,245433090] size =     24292125
  Task number: 23
  Buffer size: 11059200
  Buffer per thread: 2
  We computed 10963653 shell quartets total.
  Whereas there are 13799631 unique shell quartets.

  ==> DiskJK: Disk-Based J/K Matrices <==

    J tasked:                  Yes
    K tasked:                  Yes
    wK tasked:                  No
    Memory [MiB]:              375
    Schwarz Cutoff:          1E-12

    OpenMP threads:              1

  Minimum eigenvalue in the overlap matrix is 3.2896093755E-04.
  Using Symmetric Orthogonalization.

  SCF Guess: Superposition of Atomic Densities via on-the-fly atomic UHF.

  ==> Iterations <==

                        Total Energy        Delta E     RMS |[F,P]|

   @RHF iter SAD:  -422.66292039930420   -4.22663e+02   0.00000e+00
   @RHF iter   1:  -423.60278028601658   -9.39860e-01   2.97499e-03 DIIS
   @RHF iter   2:  -423.81874170264240   -2.15961e-01   1.25383e-03 DIIS
   @RHF iter   3:  -423.85345365518907   -3.47120e-02   2.83736e-04 DIIS
   @RHF iter   4:  -423.85630873931240   -2.85508e-03   1.17006e-04 DIIS
   @RHF iter   5:  -423.85665999742338   -3.51258e-04   2.05872e-05 DIIS
   @RHF iter   6:  -423.85667729040415   -1.72930e-05   6.37662e-06 DIIS
   @RHF iter   7:  -423.85667889626387   -1.60586e-06   2.07257e-06 DIIS
   @RHF iter   8:  -423.85667912014503   -2.23881e-07   7.82430e-07 DIIS
   @RHF iter   9:  -423.85667915656950   -3.64245e-08   3.06161e-07 DIIS
   @RHF iter  10:  -423.85667916346199   -6.89249e-09   1.24624e-07 DIIS
   @RHF iter  11:  -423.85667916544651   -1.98452e-09   5.85851e-08 DIIS
   @RHF iter  12:  -423.85667916585936   -4.12854e-10   2.77718e-08 DIIS
   @RHF iter  13:  -423.85667916594099   -8.16271e-11   8.11969e-09 DIIS
   @RHF iter  14:  -423.85667916594696   -5.96856e-12   2.22710e-09 DIIS
   @RHF iter  15:  -423.85667916594463    2.33058e-12   7.92674e-10 DIIS
   @RHF iter  16:  -423.85667916594662   -1.98952e-12   3.16141e-10 DIIS
   @RHF iter  17:  -423.85667916594741   -7.95808e-13   1.47687e-10 DIIS
   @RHF iter  18:  -423.85667916594753   -1.13687e-13   7.41715e-11 DIIS
  Energy and wave function converged.

  ==> Post-Iterations <==

    Orbital Energies [Eh]
    ---------------------

    Doubly Occupied:

       1A    -20.582640     2A    -11.297328     3A    -11.240507
       4A    -11.237907     5A    -11.233781     6A    -11.233540
       7A    -11.229472     8A    -11.226417     9A    -11.219658
      10A    -11.218126    11A     -1.398127    12A     -1.148409
      13A     -1.037561    14A     -1.021541    15A     -1.013800
      16A     -0.926859    17A     -0.845406    18A     -0.837758
      19A     -0.800093    20A     -0.730013    21A     -0.666641
      22A     -0.641065    23A     -0.606127    24A     -0.602566
      25A     -0.600139    26A     -0.584720    27A     -0.583411
      28A     -0.572068    29A     -0.564350    30A     -0.526609
      31A     -0.502252    32A     -0.496637    33A     -0.490485
      34A     -0.486786    35A     -0.483971    36A     -0.464716
      37A     -0.334904    38A     -0.302700

    Virtual:

      39A      0.128650    40A      0.155912    41A      0.168808
      42A      0.186481    43A      0.197329    44A      0.211643
      45A      0.218991    46A      0.247246    47A      0.248727
      48A      0.262761    49A      0.268471    50A      0.277636
      51A      0.279184    52A      0.293113    53A      0.296869
      54A      0.327551    55A      0.369635    56A      0.374114
      57A      0.387574    58A      0.436167    59A      0.457539
      60A      0.481214    61A      0.496019    62A      0.506309
      63A      0.575463    64A      0.598243    65A      0.599075
      66A      0.613246    67A      0.636075    68A      0.646599
      69A      0.662664    70A      0.674456    71A      0.686336
      72A      0.691840    73A      0.706692    74A      0.717692
      75A      0.732101    76A      0.739289    77A      0.757361
      78A      0.769262    79A      0.779641    80A      0.791536
      81A      0.798383    82A      0.829470    83A      0.850033
      84A      0.861280    85A      0.877161    86A      0.881205
      87A      0.888911    88A      0.891642    89A      0.891964
      90A      0.900240    91A      0.906692    92A      0.914272
      93A      0.923706    94A      0.932604    95A      0.937127
      96A      0.941596    97A      0.946874    98A      0.966186
      99A      0.978573   100A      1.013676   101A      1.027905
     102A      1.060175   103A      1.120103   104A      1.121576
     105A      1.129249   106A      1.138930   107A      1.147755
     108A      1.170047   109A      1.199154   110A      1.229163
     111A      1.244735   112A      1.251128   113A      1.267727
     114A      1.295390   115A      1.306379   116A      1.315345
     117A      1.329535   118A      1.358238   119A      1.375676
     120A      1.384349   121A      1.466668   122A      1.482795
     123A      1.500260   124A      1.500868   125A      1.531489
     126A      1.547180   127A      1.581812   128A      1.611275
     129A      1.639291   130A      1.678431   131A      1.686741
     132A      1.692845   133A      1.707171   134A      1.728468
     135A      1.752769   136A      1.779565   137A      1.801296
     138A      1.804351   139A      1.861005   140A      1.865118
     141A      1.876672   142A      1.882648   143A      1.896734
     144A      1.905945   145A      1.914020   146A      1.916778
     147A      1.923610   148A      1.940230   149A      1.944519
     150A      1.946805   151A      1.953329   152A      1.958699
     153A      1.970324   154A      1.973670   155A      1.985548
     156A      2.027787   157A      2.037845   158A      2.045097
     159A      2.058767   160A      2.065147   161A      2.070920
     162A      2.114378   163A      2.128287   164A      2.143896
     165A      2.149710   166A      2.163458   167A      2.201207
     168A      2.227236   169A      2.255998   170A      2.272260
     171A      2.299085   172A      2.306115   173A      2.323685
     174A      2.338911   175A      2.375971   176A      2.419911
     177A      2.449936   178A      2.453607   179A      2.462883
     180A      2.473305   181A      2.485252   182A      2.542931
     183A      2.547640   184A      2.577498   185A      2.578731
     186A      2.599852   187A      2.643576   188A      2.746069
     189A      2.768974   190A      2.771002   191A      2.786591
     192A      2.795852   193A      2.803555   194A      2.838928
     195A      2.854247   196A      2.857423   197A      2.901521
     198A      2.947284   199A      2.961044   200A      2.962477
     201A      3.003292   202A      3.083253   203A      3.117692
     204A      3.251093   205A      3.273716   206A      3.351328
     207A      3.572033   208A      3.678371   209A      3.958744
     210A      4.202990

    Final Occupation by Irrep:
              A
    DOCC [    38 ]

  @RHF Final Energy:  -423.85667916594753

   => Energetics <=

    Nuclear Repulsion Energy =            490.1683211989491724
    One-Electron Energy =               -1546.0718195971476234
    Two-Electron Energy =                 632.0468192322509822
    Total Energy =                       -423.8566791659475257

Computation Completed

Properties will be evaluated at   0.000000,   0.000000,   0.000000 [a0]

Properties computed using the SCF density matrix

  Nuclear Dipole Moment: [e a0]
     X:     8.9949      Y:    -8.8718      Z:     2.1431

  Electronic Dipole Moment: [e a0]
     X:    -8.6724      Y:     8.6377      Z:    -2.5077

  Dipole Moment: [e a0]
     X:     0.3225      Y:    -0.2340      Z:    -0.3647     Total:     0.5401

  Dipole Moment: [D]
     X:     0.8197      Y:    -0.5948      Z:    -0.9269     Total:     1.3729

*** tstop() called on ds3 at Mon Apr 27 06:55:11 2020
Module time:
	user time   =      82.54 seconds =       1.38 minutes
	system time =      40.33 seconds =       0.67 minutes
	total time  =        150 seconds =       2.50 minutes
Total time:
	user time   =      82.54 seconds =       1.38 minutes
	system time =      40.33 seconds =       0.67 minutes
	total time  =        150 seconds =       2.50 minutes
                                     G D M A

                                 by Anthony Stone

                           version 2.2.06, 22 June 2011

               Distributed Multipoles from Gaussian wavefunctions

Starting at 6:55:11 on 27 Apr 2020

Using SCF density matrix from file ./SSI/SSI-030ILE-093TYR-1-dimer.test.7439.fchk

                         Distributed Multipole Analysis

Standard DMA

Positions and radii in angstrom
Multipole moments in atomic units, ea_0^k for rank k

C          x =  1.016911  y = -2.910469  z =  1.279749 angstrom
           Maximum rank =  0   Radius =  0.650 angstrom
                   Q00  =  -0.221243

C          x =  1.651911  y = -4.182469  z =  1.835749 angstrom
           Maximum rank =  0   Radius =  0.650 angstrom
                   Q00  =  -0.240828

H          x = -0.065089  y = -2.931469  z =  1.399749 angstrom
           Maximum rank =  0   Radius =  0.325 angstrom
                   Q00  =   0.058260

H          x =  1.394911  y = -2.054469  z =  1.839749 angstrom
           Maximum rank =  0   Radius =  0.325 angstrom
                   Q00  =   0.086779

H          x =  1.280911  y = -2.776469  z =  0.231749 angstrom
           Maximum rank =  0   Radius =  0.325 angstrom
                   Q00  =   0.076463

H          x =  1.246911  y = -4.384469  z =  2.828749 angstrom
           Maximum rank =  0   Radius =  0.325 angstrom
                   Q00  =   0.081289

H          x =  2.725911  y = -4.019469  z =  1.917749 angstrom
           Maximum rank =  0   Radius =  0.325 angstrom
                   Q00  =   0.080978

H          x =  1.449611  y = -5.029559  z =  1.163798 angstrom
           Maximum rank =  0   Radius =  0.325 angstrom
                   Q00  =   0.075727

C          x =  1.430911  y =  2.877531  z = -1.780251 angstrom
           Maximum rank =  0   Radius =  0.650 angstrom
                   Q00  =  -0.202591

C          x = -0.425089  y = -0.332469  z = -0.846251 angstrom
           Maximum rank =  0   Radius =  0.650 angstrom
                   Q00  =  -0.174968

C          x =  0.435911  y =  0.567531  z = -1.499251 angstrom
           Maximum rank =  0   Radius =  0.650 angstrom
                   Q00  =  -0.064370

C          x = -1.213089  y =  0.107531  z =  0.210749 angstrom
           Maximum rank =  0   Radius =  0.650 angstrom
                   Q00  =   0.322421

C          x =  0.502911  y =  1.903531  z = -1.099251 angstrom
           Maximum rank =  0   Radius =  0.650 angstrom
                   Q00  =  -0.129216

C          x = -1.161089  y =  1.433531  z =  0.608749 angstrom
           Maximum rank =  0   Radius =  0.650 angstrom
                   Q00  =  -0.112823

C          x = -0.300089  y =  2.326531  z = -0.042251 angstrom
           Maximum rank =  0   Radius =  0.650 angstrom
                   Q00  =   0.048822

O          x = -2.060089  y = -0.747469  z =  0.855749 angstrom
           Maximum rank =  0   Radius =  0.650 angstrom
                   Q00  =  -0.676419

H          x = -0.470089  y = -1.363469  z = -1.166251 angstrom
           Maximum rank =  0   Radius =  0.325 angstrom
                   Q00  =   0.074808

H          x =  1.050911  y =  0.220531  z = -2.320251 angstrom
           Maximum rank =  0   Radius =  0.325 angstrom
                   Q00  =   0.070377

H          x = -1.989089  y = -1.644469  z =  0.514749 angstrom
           Maximum rank =  0   Radius =  0.325 angstrom
                   Q00  =   0.409648

H          x = -1.789089  y =  1.771531  z =  1.420749 angstrom
           Maximum rank =  0   Radius =  0.325 angstrom
                   Q00  =   0.081277

H          x =  2.244911  y =  2.317531  z = -2.226251 angstrom
           Maximum rank =  0   Radius =  0.325 angstrom
                   Q00  =   0.096845

H          x =  1.857911  y =  3.554531  z = -1.047251 angstrom
           Maximum rank =  0   Radius =  0.325 angstrom
                   Q00  =   0.096741

H          x = -0.291089  y =  3.365531  z =  0.266749 angstrom
           Maximum rank =  0   Radius =  0.325 angstrom
                   Q00  =   0.062930

H          x =  0.957877  y =  3.514501  z = -2.542161 angstrom
           Maximum rank =  0   Radius =  0.325 angstrom
                   Q00  =   0.099092

Total multipoles referred to origin at
           x =   0.000000,  y =    0.000000,  z =    0.000000 angstrom
                   Q00  =  -0.000000

Finished at 6:55:11 on 27 Apr 2020

  DMA results are available in the Python driver through the
	  variable('DMA DISTRIBUTED MULTIPOLES')
  and
	  variable('DMA TOTAL MULTIPOLES')
  commands.

    Psi4 stopped on: Monday, 27 April 2020 06:55AM
    Psi4 wall time for execution: 0:02:30.59

*** Psi4 exiting successfully. Buy a developer a beer!
