                               Psi4 1.3.2 release

  ==> Input File <==

--------------------------------------------------------------------------
import numpy as np
set {scf_type pk
basis cc-pvdz
d_convergence 10
gdma_switch   0
gdma_limit    0
gdma_origin   [ 0.0,  0.0,  0.0 ]
}
molecule test {
    units Angstrom
    0 1
    --
    0 1
    C                1.300020895922464    -0.145774472142879     2.553537408853754
    C               -0.404979104077536     0.930225527857121     1.039537408853754
    C                0.922020895922464     0.588225527857121     1.288537408853754
    C               -0.762979104077536     1.597225527857121    -0.130462591146246
    C                0.216020895922464     1.913225527857121    -1.067462591146246
    C                1.891020895922464     0.907225527857121     0.337537408853754
    C                1.545020895922464     1.575225527857121    -0.834462591146246
    O               -0.129979104077536     2.565225527857121    -2.212462591146247
    H               -1.168979104077536     0.681225527857121     1.765537408853754
    H               -1.795979104077536     1.857225527857121    -0.312462591146246
    H                2.360020895922464    -0.385774472142879     2.504537408853754
    H                0.754020895922464    -1.088774472142879     2.586537408853753
    H                2.917020895922464     0.616225527857121     0.488537408853754
    H               -1.075979104077536     2.750225527857121    -2.244462591146246
    H                2.297020895922464     1.817225527857121    -1.571462591146246
    H                1.115626895922464     0.407405527857121     3.486267408853754
    C               -1.117979104077536    -2.578774472142879     0.053537408853754
    C               -0.577979104077536    -3.984774472142879     0.147537408853754
    C               -2.363979104077536    -2.665774472142879    -0.831462591146246
    H               -0.361979104077536    -1.940774472142879    -0.409462591146246
    H               -1.363979104077536    -2.188774472142879     1.042537408853754
    H                0.500020895922464    -3.957774472142879     0.222537408853754
    H               -1.019979104077536    -4.497774472142879     1.003537408853754
    H               -3.267979104077536    -2.542774472142879    -0.232462591146246
    H               -0.893979104077536    -4.472404472142880    -0.786462591146246
    H               -2.315809104077536    -3.680364472142879    -1.253702591146246
    H               -2.310526104077536    -1.895044472142879    -1.614472591146246

}
e, wfn = energy('scf', return_wfn=True)
gdma(wfn)
dmavals = variable('DMA DISTRIBUTED MULTIPOLES')
charges = np.array(dmavals)
print(charges)
np.save('SSI-060TYR-128PRO-2-dimer.npy', np.array(charges))--------------------------------------------------------------------------

*** tstart() called on ds3
*** at Tue Apr 28 11:44:10 2020

   => Loading Basis Set <=

    Name: CC-PVDZ
    Role: ORBITAL
    Keyword: BASIS
    atoms 1-7, 17-19  entry C          line   138 file /theoryfs2/ds/metcalf/miniconda2/envs/tf2gpu/share/psi4/basis/cc-pvdz.gbs
    atoms 8           entry O          line   198 file /theoryfs2/ds/metcalf/miniconda2/envs/tf2gpu/share/psi4/basis/cc-pvdz.gbs
    atoms 9-16, 20-27 entry H          line    22 file /theoryfs2/ds/metcalf/miniconda2/envs/tf2gpu/share/psi4/basis/cc-pvdz.gbs

         ---------------------------------------------------------
                                   SCF
               by Justin Turney, Rob Parrish, Andy Simmonett
                          and Daniel G. A. Smith
                              RHF Reference
                        1 Threads,    500 MiB Core
         ---------------------------------------------------------

  ==> Geometry <==

    Molecular point group: c1
    Full point group: C1

    Geometry (in Angstrom), charge = 0, multiplicity = 1:

       Center              X                  Y                   Z               Mass
    ------------   -----------------  -----------------  -----------------  -----------------
         C            1.300020895922    -0.145774472143     2.553537408854    12.000000000000
         C           -0.404979104078     0.930225527857     1.039537408854    12.000000000000
         C            0.922020895922     0.588225527857     1.288537408854    12.000000000000
         C           -0.762979104078     1.597225527857    -0.130462591146    12.000000000000
         C            0.216020895922     1.913225527857    -1.067462591146    12.000000000000
         C            1.891020895922     0.907225527857     0.337537408854    12.000000000000
         C            1.545020895922     1.575225527857    -0.834462591146    12.000000000000
         O           -0.129979104078     2.565225527857    -2.212462591146    15.994914619570
         H           -1.168979104078     0.681225527857     1.765537408854     1.007825032230
         H           -1.795979104078     1.857225527857    -0.312462591146     1.007825032230
         H            2.360020895922    -0.385774472143     2.504537408854     1.007825032230
         H            0.754020895922    -1.088774472143     2.586537408854     1.007825032230
         H            2.917020895922     0.616225527857     0.488537408854     1.007825032230
         H           -1.075979104078     2.750225527857    -2.244462591146     1.007825032230
         H            2.297020895922     1.817225527857    -1.571462591146     1.007825032230
         H            1.115626895922     0.407405527857     3.486267408854     1.007825032230
         C           -1.117979104078    -2.578774472143     0.053537408854    12.000000000000
         C           -0.577979104078    -3.984774472143     0.147537408854    12.000000000000
         C           -2.363979104078    -2.665774472143    -0.831462591146    12.000000000000
         H           -0.361979104078    -1.940774472143    -0.409462591146     1.007825032230
         H           -1.363979104078    -2.188774472143     1.042537408854     1.007825032230
         H            0.500020895922    -3.957774472143     0.222537408854     1.007825032230
         H           -1.019979104078    -4.497774472143     1.003537408854     1.007825032230
         H           -3.267979104078    -2.542774472143    -0.232462591146     1.007825032230
         H           -0.893979104078    -4.472404472143    -0.786462591146     1.007825032230
         H           -2.315809104078    -3.680364472143    -1.253702591146     1.007825032230
         H           -2.310526104078    -1.895044472143    -1.614472591146     1.007825032230

  Running in c1 symmetry.

  Rotational constants: A =      0.03925  B =      0.01924  C =      0.01509 [cm^-1]
  Rotational constants: A =   1176.54125  B =    576.80818  C =    452.51068 [MHz]
  Nuclear repulsion =  582.920153094100783

  Charge       = 0
  Multiplicity = 1
  Electrons    = 84
  Nalpha       = 42
  Nbeta        = 42

  ==> Algorithm <==

  SCF Algorithm Type is PK.
  DIIS enabled.
  MOM disabled.
  Fractional occupation disabled.
  Guess Type is SAD.
  Energy threshold   = 1.00e-06
  Density threshold  = 1.00e-10
  Integral threshold = 0.00e+00

  ==> Primary Basis <==

  Basis Set: CC-PVDZ
    Blend: CC-PVDZ
    Number of shells: 114
    Number of basis function: 234
    Number of Cartesian functions: 245
    Spherical Harmonics?: true
    Max angular momentum: 2

  ==> Pre-Iterations <==

   -------------------------------------------------------
    Irrep   Nso     Nmo     Nalpha   Nbeta   Ndocc  Nsocc
   -------------------------------------------------------
     A        234     234       0       0       0       0
   -------------------------------------------------------
    Total     234     234      42      42      42       0
   -------------------------------------------------------

  ==> Integral Setup <==

  Using integral reordering PK algorithm.
  Sizing the integral batches needed.
  Building batch lookup table.
   Calculation information:
      Number of atoms:                  27
      Number of AO shells:             114
      Number of primitives:            322
      Number of atomic orbitals:       245
      Number of basis functions:       234

      Integral cutoff                 1.00e-12
      Number of threads:                 1

	Batch   1 pq = [       0,    9405] index = [             0,44231715] size =     44231715
	Batch   2 pq = [    9405,   13301] index = [      44231715,88464951] size =     44233236
	Batch   3 pq = [   13301,   16290] index = [      88464951,132690195] size =     44225244
	Batch   4 pq = [   16290,   18810] index = [     132690195,176917455] size =     44227260
	Batch   5 pq = [   18810,   21030] index = [     176917455,221140965] size =     44223510
	Batch   6 pq = [   21030,   23037] index = [     221140965,265363203] size =     44222238
	Batch   7 pq = [   23037,   24883] index = [     265363203,309594286] size =     44231083
	Batch   8 pq = [   24883,   26601] index = [     309594286,353819901] size =     44225615
	Batch   9 pq = [   26601,   27495] index = [     353819901,378001260] size =     24181359
  Task number: 35
  Buffer size: 11059200
  Buffer per thread: 2
  We computed 20048891 shell quartets total.
  Whereas there are 21487290 unique shell quartets.

  ==> DiskJK: Disk-Based J/K Matrices <==

    J tasked:                  Yes
    K tasked:                  Yes
    wK tasked:                  No
    Memory [MiB]:              375
    Schwarz Cutoff:          1E-12

    OpenMP threads:              1

  Minimum eigenvalue in the overlap matrix is 3.2393005842E-04.
  Using Symmetric Orthogonalization.

  SCF Guess: Superposition of Atomic Densities via on-the-fly atomic UHF.

  ==> Iterations <==

                        Total Energy        Delta E     RMS |[F,P]|

   @RHF iter SAD:  -461.81018329450058   -4.61810e+02   0.00000e+00
   @RHF iter   1:  -462.58326779159518   -7.73084e-01   2.85091e-03 DIIS
   @RHF iter   2:  -462.82853689795706   -2.45269e-01   1.22272e-03 DIIS
   @RHF iter   3:  -462.86981050963732   -4.12736e-02   2.70324e-04 DIIS
   @RHF iter   4:  -462.87307077860555   -3.26027e-03   1.04895e-04 DIIS
   @RHF iter   5:  -462.87342280890721   -3.52030e-04   2.07051e-05 DIIS
   @RHF iter   6:  -462.87344280894001   -2.00000e-05   6.55202e-06 DIIS
   @RHF iter   7:  -462.87344494551206   -2.13657e-06   1.93764e-06 DIIS
   @RHF iter   8:  -462.87344521900900   -2.73497e-07   7.55982e-07 DIIS
   @RHF iter   9:  -462.87344526695654   -4.79475e-08   3.44833e-07 DIIS
   @RHF iter  10:  -462.87344527801042   -1.10539e-08   1.50261e-07 DIIS
   @RHF iter  11:  -462.87344528161486   -3.60444e-09   6.00613e-08 DIIS
   @RHF iter  12:  -462.87344528217079   -5.55929e-10   2.73326e-08 DIIS
   @RHF iter  13:  -462.87344528224389   -7.31006e-11   8.19893e-09 DIIS
   @RHF iter  14:  -462.87344528225208   -8.18545e-12   1.96166e-09 DIIS
   @RHF iter  15:  -462.87344528225378   -1.70530e-12   6.50350e-10 DIIS
   @RHF iter  16:  -462.87344528225151    2.27374e-12   1.91800e-10 DIIS
   @RHF iter  17:  -462.87344528225037    1.13687e-12   7.58897e-11 DIIS
  Energy and wave function converged.

  ==> Post-Iterations <==

    Orbital Energies [Eh]
    ---------------------

    Doubly Occupied:

       1A    -20.583027     2A    -11.299462     3A    -11.239096
       4A    -11.238342     5A    -11.233843     6A    -11.233187
       7A    -11.229942     8A    -11.227523     9A    -11.211042
      10A    -11.209275    11A    -11.208131    12A     -1.399888
      13A     -1.151041    14A     -1.060453    15A     -1.036749
      16A     -1.018474    17A     -0.925990    18A     -0.913214
      19A     -0.845288    20A     -0.802249    21A     -0.793374
      22A     -0.732071    23A     -0.668344    24A     -0.641754
      25A     -0.627990    26A     -0.612524    27A     -0.607738
      28A     -0.587919    29A     -0.586372    30A     -0.570117
      31A     -0.565459    32A     -0.540551    33A     -0.526844
      34A     -0.513767    35A     -0.497741    36A     -0.485995
      37A     -0.477754    38A     -0.467529    39A     -0.458615
      40A     -0.454090    41A     -0.339038    42A     -0.301644

    Virtual:

      43A      0.129253    44A      0.155599    45A      0.171211
      46A      0.178560    47A      0.200471    48A      0.209354
      49A      0.212846    50A      0.229636    51A      0.236911
      52A      0.240945    53A      0.257306    54A      0.265929
      55A      0.277169    56A      0.285418    57A      0.293975
      58A      0.305808    59A      0.323267    60A      0.359473
      61A      0.371165    62A      0.373604    63A      0.387061
      64A      0.425913    65A      0.445381    66A      0.454770
      67A      0.486950    68A      0.496111    69A      0.509862
      70A      0.570449    71A      0.586446    72A      0.603880
      73A      0.618351    74A      0.642893    75A      0.648693
      76A      0.654793    77A      0.670440    78A      0.678219
      79A      0.695121    80A      0.705922    81A      0.718268
      82A      0.730243    83A      0.735645    84A      0.751037
      85A      0.758036    86A      0.770720    87A      0.772910
      88A      0.791563    89A      0.798946    90A      0.813918
      91A      0.823271    92A      0.839594    93A      0.846890
      94A      0.864314    95A      0.877376    96A      0.883568
      97A      0.886614    98A      0.896781    99A      0.899424
     100A      0.903724   101A      0.912471   102A      0.918769
     103A      0.924390   104A      0.926417   105A      0.932751
     106A      0.939985   107A      0.948575   108A      0.958664
     109A      0.982982   110A      0.988933   111A      0.997362
     112A      1.018196   113A      1.030591   114A      1.064011
     115A      1.073004   116A      1.093310   117A      1.126627
     118A      1.144859   119A      1.147529   120A      1.165761
     121A      1.189067   122A      1.210545   123A      1.238587
     124A      1.248229   125A      1.266897   126A      1.286321
     127A      1.294447   128A      1.303256   129A      1.317253
     130A      1.356348   131A      1.365057   132A      1.386067
     133A      1.432598   134A      1.481675   135A      1.485095
     136A      1.501939   137A      1.512495   138A      1.518517
     139A      1.555224   140A      1.607782   141A      1.618261
     142A      1.624614   143A      1.634675   144A      1.652703
     145A      1.684330   146A      1.694584   147A      1.710114
     148A      1.725210   149A      1.744425   150A      1.749659
     151A      1.784532   152A      1.799256   153A      1.807810
     154A      1.817834   155A      1.859058   156A      1.876964
     157A      1.883236   158A      1.887074   159A      1.899337
     160A      1.904784   161A      1.910368   162A      1.919052
     163A      1.925912   164A      1.929935   165A      1.945931
     166A      1.951138   167A      1.955704   168A      1.960017
     169A      1.976515   170A      1.992935   171A      2.009673
     172A      2.013217   173A      2.015952   174A      2.039741
     175A      2.045970   176A      2.055472   177A      2.060962
     178A      2.066592   179A      2.079646   180A      2.097621
     181A      2.117042   182A      2.145936   183A      2.179697
     184A      2.189552   185A      2.209479   186A      2.214848
     187A      2.246726   188A      2.257223   189A      2.270401
     190A      2.279934   191A      2.308491   192A      2.324862
     193A      2.355741   194A      2.360880   195A      2.368341
     196A      2.392482   197A      2.412324   198A      2.420769
     199A      2.454526   200A      2.481160   201A      2.505681
     202A      2.512995   203A      2.528376   204A      2.538973
     205A      2.579696   206A      2.614863   207A      2.644156
     208A      2.662882   209A      2.705030   210A      2.743376
     211A      2.766948   212A      2.771686   213A      2.779264
     214A      2.796820   215A      2.797137   216A      2.808325
     217A      2.825919   218A      2.846503   219A      2.860176
     220A      2.888254   221A      2.896167   222A      2.934091
     223A      2.964427   224A      3.002395   225A      3.060608
     226A      3.091779   227A      3.124701   228A      3.251371
     229A      3.280768   230A      3.345265   231A      3.576334
     232A      3.674235   233A      3.972644   234A      4.189701

    Final Occupation by Irrep:
              A
    DOCC [    42 ]

  @RHF Final Energy:  -462.87344528225037

   => Energetics <=

    Nuclear Repulsion Energy =            582.9201530941007832
    One-Electron Energy =               -1783.3403107990741319
    Two-Electron Energy =                 737.5467124227230897
    Total Energy =                       -462.8734452822503727

Computation Completed

Properties will be evaluated at   0.000000,   0.000000,   0.000000 [a0]

Properties computed using the SCF density matrix

  Nuclear Dipole Moment: [e a0]
     X:    -5.2799      Y:   -17.3503      Z:     4.3721

  Electronic Dipole Moment: [e a0]
     X:     4.8519      Y:    17.3237      Z:    -4.0534

  Dipole Moment: [e a0]
     X:    -0.4280      Y:    -0.0265      Z:     0.3187     Total:     0.5343

  Dipole Moment: [D]
     X:    -1.0879      Y:    -0.0675      Z:     0.8101     Total:     1.3581

*** tstop() called on ds3 at Tue Apr 28 11:47:24 2020
Module time:
	user time   =     144.55 seconds =       2.41 minutes
	system time =      56.89 seconds =       0.95 minutes
	total time  =        194 seconds =       3.23 minutes
Total time:
	user time   =     144.55 seconds =       2.41 minutes
	system time =      56.89 seconds =       0.95 minutes
	total time  =        194 seconds =       3.23 minutes
                                     G D M A

                                 by Anthony Stone

                           version 2.2.06, 22 June 2011

               Distributed Multipoles from Gaussian wavefunctions

Starting at 11:47:25 on 28 Apr 2020

Using SCF density matrix from file ./SSI/SSI-060TYR-128PRO-2-dimer.test.26534.fchk

                         Distributed Multipole Analysis

Standard DMA

Positions and radii in angstrom
Multipole moments in atomic units, ea_0^k for rank k

C          x =  1.300021  y = -0.145774  z =  2.553537 angstrom
           Maximum rank =  0   Radius =  0.650 angstrom
                   Q00  =  -0.201893

C          x = -0.404979  y =  0.930226  z =  1.039537 angstrom
           Maximum rank =  0   Radius =  0.650 angstrom
                   Q00  =   0.028841

C          x =  0.922021  y =  0.588226  z =  1.288537 angstrom
           Maximum rank =  0   Radius =  0.650 angstrom
                   Q00  =  -0.130372

C          x = -0.762979  y =  1.597226  z = -0.130463 angstrom
           Maximum rank =  0   Radius =  0.650 angstrom
                   Q00  =  -0.181799

C          x =  0.216021  y =  1.913226  z = -1.067463 angstrom
           Maximum rank =  0   Radius =  0.650 angstrom
                   Q00  =   0.308626

C          x =  1.891021  y =  0.907226  z =  0.337537 angstrom
           Maximum rank =  0   Radius =  0.650 angstrom
                   Q00  =  -0.014383

C          x =  1.545021  y =  1.575226  z = -0.834463 angstrom
           Maximum rank =  0   Radius =  0.650 angstrom
                   Q00  =  -0.115187

O          x = -0.129979  y =  2.565226  z = -2.212463 angstrom
           Maximum rank =  0   Radius =  0.650 angstrom
                   Q00  =  -0.674857

H          x = -1.168979  y =  0.681226  z =  1.765537 angstrom
           Maximum rank =  0   Radius =  0.325 angstrom
                   Q00  =   0.067122

H          x = -1.795979  y =  1.857226  z = -0.312463 angstrom
           Maximum rank =  0   Radius =  0.325 angstrom
                   Q00  =   0.071926

H          x =  2.360021  y = -0.385774  z =  2.504537 angstrom
           Maximum rank =  0   Radius =  0.325 angstrom
                   Q00  =   0.095167

H          x =  0.754021  y = -1.088774  z =  2.586537 angstrom
           Maximum rank =  0   Radius =  0.325 angstrom
                   Q00  =   0.096334

H          x =  2.917021  y =  0.616226  z =  0.488537 angstrom
           Maximum rank =  0   Radius =  0.325 angstrom
                   Q00  =   0.065523

H          x = -1.075979  y =  2.750226  z = -2.244463 angstrom
           Maximum rank =  0   Radius =  0.325 angstrom
                   Q00  =   0.406386

H          x =  2.297021  y =  1.817226  z = -1.571463 angstrom
           Maximum rank =  0   Radius =  0.325 angstrom
                   Q00  =   0.081247

H          x =  1.115627  y =  0.407406  z =  3.486267 angstrom
           Maximum rank =  0   Radius =  0.325 angstrom
                   Q00  =   0.099188

C          x = -1.117979  y = -2.578774  z =  0.053537 angstrom
           Maximum rank =  0   Radius =  0.650 angstrom
                   Q00  =  -0.105095

C          x = -0.577979  y = -3.984774  z =  0.147537 angstrom
           Maximum rank =  0   Radius =  0.650 angstrom
                   Q00  =  -0.221635

C          x = -2.363979  y = -2.665774  z = -0.831463 angstrom
           Maximum rank =  0   Radius =  0.650 angstrom
                   Q00  =  -0.245332

H          x = -0.361979  y = -1.940774  z = -0.409463 angstrom
           Maximum rank =  0   Radius =  0.325 angstrom
                   Q00  =   0.067270

H          x = -1.363979  y = -2.188774  z =  1.042537 angstrom
           Maximum rank =  0   Radius =  0.325 angstrom
                   Q00  =   0.048696

H          x =  0.500021  y = -3.957774  z =  0.222537 angstrom
           Maximum rank =  0   Radius =  0.325 angstrom
                   Q00  =   0.085115

H          x = -1.019979  y = -4.497774  z =  1.003537 angstrom
           Maximum rank =  0   Radius =  0.325 angstrom
                   Q00  =   0.080050

H          x = -3.267979  y = -2.542774  z = -0.232463 angstrom
           Maximum rank =  0   Radius =  0.325 angstrom
                   Q00  =   0.083268

H          x = -0.893979  y = -4.472404  z = -0.786463 angstrom
           Maximum rank =  0   Radius =  0.325 angstrom
                   Q00  =   0.050560

H          x = -2.315809  y = -3.680364  z = -1.253703 angstrom
           Maximum rank =  0   Radius =  0.325 angstrom
                   Q00  =   0.067481

H          x = -2.310526  y = -1.895044  z = -1.614473 angstrom
           Maximum rank =  0   Radius =  0.325 angstrom
                   Q00  =   0.087753

Total multipoles referred to origin at
           x =   0.000000,  y =    0.000000,  z =    0.000000 angstrom
                   Q00  =  -0.000000

Finished at 11:47:25 on 28 Apr 2020

  DMA results are available in the Python driver through the
	  variable('DMA DISTRIBUTED MULTIPOLES')
  and
	  variable('DMA TOTAL MULTIPOLES')
  commands.

    Psi4 stopped on: Tuesday, 28 April 2020 11:47AM
    Psi4 wall time for execution: 0:03:14.36

*** Psi4 exiting successfully. Buy a developer a beer!
