                               Psi4 1.3.2 release

  ==> Input File <==

--------------------------------------------------------------------------
import numpy as np
set {scf_type pk
basis cc-pvdz
d_convergence 10
gdma_switch   0
gdma_limit    0
gdma_origin   [ 0.0,  0.0,  0.0 ]
}
molecule test {
    units Angstrom
    0 1
    --
    0 1
    C               -0.098702326486371    -2.200326027525704    -1.037402847407889
    C               -1.500702326486371    -2.289326027525704    -1.690402847407889
    C                0.407297673513629    -3.599326027525704    -0.680402847407889
    C                0.898297673513629    -1.522326027525705    -1.974402847407889
    H               -0.156702326486371    -1.631326027525705    -0.118402847407889
    H               -1.396702326486371    -2.865326027525704    -2.611402847407889
    H                0.403297673513629    -4.242326027525705    -1.564402847407889
    H                1.432297673513629    -3.531326027525704    -0.310402847407889
    H               -0.189702326486371    -4.058326027525704     0.107597152592111
    H                0.605297673513629    -0.490326027525705    -2.164402847407889
    H                1.888297673513629    -1.512326027525705    -1.515402847407889
    H                0.952297673513628    -2.062326027525704    -2.921402847407889
    H               -1.921322326486371    -1.297806027525705    -1.913932847407889
    H               -2.166582326486372    -2.850986027525705    -1.018732847407889
    C               -0.135702326486371     0.871673972474295     0.843597152592111
    C               -1.233702326486372     0.612673972474295     1.886597152592111
    C                0.353297673513629     2.308673972474296     0.861597152592111
    O               -0.426702326486371     3.242673972474296     0.723597152592111
    N                1.650297673513629     2.496673972474296     1.038597152592111
    H                0.709297673513629     0.213673972474295     1.055597152592111
    H               -0.494702326486371     0.653673972474295    -0.161402847407889
    H               -0.932702326486372     1.056673972474295     2.836597152592111
    H                2.006297673513629     3.441673972474296     1.022597152592111
    H                2.284297673513629     1.713673972474295     1.099597152592111
    H               -1.393432326486371    -0.468136027525705     2.014377152592111
    H               -2.190322326486371     1.055203972474295     1.571867152592111

}
e, wfn = energy('scf', return_wfn=True)
gdma(wfn)
dmavals = variable('DMA DISTRIBUTED MULTIPOLES')
charges = np.array(dmavals)
print(charges)
np.save('SSI-057VAL-181ASN-1-dimer.npy', np.array(charges))--------------------------------------------------------------------------

*** tstart() called on ds3
*** at Mon Apr 27 20:05:03 2020

   => Loading Basis Set <=

    Name: CC-PVDZ
    Role: ORBITAL
    Keyword: BASIS
    atoms 1-4, 15-17  entry C          line   138 file /theoryfs2/ds/metcalf/miniconda2/envs/tf2gpu/share/psi4/basis/cc-pvdz.gbs
    atoms 5-14, 20-26 entry H          line    22 file /theoryfs2/ds/metcalf/miniconda2/envs/tf2gpu/share/psi4/basis/cc-pvdz.gbs
    atoms 18          entry O          line   198 file /theoryfs2/ds/metcalf/miniconda2/envs/tf2gpu/share/psi4/basis/cc-pvdz.gbs
    atoms 19          entry N          line   168 file /theoryfs2/ds/metcalf/miniconda2/envs/tf2gpu/share/psi4/basis/cc-pvdz.gbs

         ---------------------------------------------------------
                                   SCF
               by Justin Turney, Rob Parrish, Andy Simmonett
                          and Daniel G. A. Smith
                              RHF Reference
                        1 Threads,    500 MiB Core
         ---------------------------------------------------------

  ==> Geometry <==

    Molecular point group: c1
    Full point group: C1

    Geometry (in Angstrom), charge = 0, multiplicity = 1:

       Center              X                  Y                   Z               Mass
    ------------   -----------------  -----------------  -----------------  -----------------
         C           -0.098702326486    -2.200326027526    -1.037402847408    12.000000000000
         C           -1.500702326486    -2.289326027526    -1.690402847408    12.000000000000
         C            0.407297673514    -3.599326027526    -0.680402847408    12.000000000000
         C            0.898297673514    -1.522326027526    -1.974402847408    12.000000000000
         H           -0.156702326486    -1.631326027526    -0.118402847408     1.007825032230
         H           -1.396702326486    -2.865326027526    -2.611402847408     1.007825032230
         H            0.403297673514    -4.242326027526    -1.564402847408     1.007825032230
         H            1.432297673514    -3.531326027526    -0.310402847408     1.007825032230
         H           -0.189702326486    -4.058326027526     0.107597152592     1.007825032230
         H            0.605297673514    -0.490326027526    -2.164402847408     1.007825032230
         H            1.888297673514    -1.512326027526    -1.515402847408     1.007825032230
         H            0.952297673514    -2.062326027526    -2.921402847408     1.007825032230
         H           -1.921322326486    -1.297806027526    -1.913932847408     1.007825032230
         H           -2.166582326486    -2.850986027526    -1.018732847408     1.007825032230
         C           -0.135702326486     0.871673972474     0.843597152592    12.000000000000
         C           -1.233702326486     0.612673972474     1.886597152592    12.000000000000
         C            0.353297673514     2.308673972474     0.861597152592    12.000000000000
         O           -0.426702326486     3.242673972474     0.723597152592    15.994914619570
         N            1.650297673514     2.496673972474     1.038597152592    14.003074004430
         H            0.709297673514     0.213673972474     1.055597152592     1.007825032230
         H           -0.494702326486     0.653673972474    -0.161402847408     1.007825032230
         H           -0.932702326486     1.056673972474     2.836597152592     1.007825032230
         H            2.006297673514     3.441673972474     1.022597152592     1.007825032230
         H            2.284297673514     1.713673972474     1.099597152592     1.007825032230
         H           -1.393432326486    -0.468136027526     2.014377152592     1.007825032230
         H           -2.190322326486     1.055203972474     1.571867152592     1.007825032230

  Running in c1 symmetry.

  Rotational constants: A =      0.07554  B =      0.01769  C =      0.01658 [cm^-1]
  Rotational constants: A =   2264.54060  B =    530.29728  C =    497.07908 [MHz]
  Nuclear repulsion =  455.547864613780632

  Charge       = 0
  Multiplicity = 1
  Electrons    = 74
  Nalpha       = 37
  Nbeta        = 37

  ==> Algorithm <==

  SCF Algorithm Type is PK.
  DIIS enabled.
  MOM disabled.
  Fractional occupation disabled.
  Guess Type is SAD.
  Energy threshold   = 1.00e-06
  Density threshold  = 1.00e-10
  Integral threshold = 0.00e+00

  ==> Primary Basis <==

  Basis Set: CC-PVDZ
    Blend: CC-PVDZ
    Number of shells: 105
    Number of basis function: 211
    Number of Cartesian functions: 220
    Spherical Harmonics?: true
    Max angular momentum: 2

  ==> Pre-Iterations <==

   -------------------------------------------------------
    Irrep   Nso     Nmo     Nalpha   Nbeta   Ndocc  Nsocc
   -------------------------------------------------------
     A        211     211       0       0       0       0
   -------------------------------------------------------
    Total     211     211      37      37      37       0
   -------------------------------------------------------

  ==> Integral Setup <==

  Using integral reordering PK algorithm.
  Sizing the integral batches needed.
  Building batch lookup table.
   Calculation information:
      Number of atoms:                  26
      Number of AO shells:             105
      Number of primitives:            283
      Number of atomic orbitals:       220
      Number of basis functions:       211

      Integral cutoff                 1.00e-12
      Number of threads:                 1

	Batch   1 pq = [       0,    9405] index = [             0,44231715] size =     44231715
	Batch   2 pq = [    9405,   13301] index = [      44231715,88464951] size =     44233236
	Batch   3 pq = [   13301,   16290] index = [      88464951,132690195] size =     44225244
	Batch   4 pq = [   16290,   18810] index = [     132690195,176917455] size =     44227260
	Batch   5 pq = [   18810,   21030] index = [     176917455,221140965] size =     44223510
	Batch   6 pq = [   21030,   22366] index = [     221140965,250130161] size =     28989196
  Task number: 23
  Buffer size: 11059200
  Buffer per thread: 2
  We computed 13607043 shell quartets total.
  Whereas there are 15487395 unique shell quartets.

  ==> DiskJK: Disk-Based J/K Matrices <==

    J tasked:                  Yes
    K tasked:                  Yes
    wK tasked:                  No
    Memory [MiB]:              375
    Schwarz Cutoff:          1E-12

    OpenMP threads:              1

  Minimum eigenvalue in the overlap matrix is 3.0465028782E-03.
  Using Symmetric Orthogonalization.

  SCF Guess: Superposition of Atomic Densities via on-the-fly atomic UHF.

  ==> Iterations <==

                        Total Energy        Delta E     RMS |[F,P]|

   @RHF iter SAD:  -403.00901766482787   -4.03009e+02   0.00000e+00
   @RHF iter   1:  -404.01406516226598   -1.00505e+00   3.49332e-03 DIIS
   @RHF iter   2:  -404.26716288173793   -2.53098e-01   1.86191e-03 DIIS
   @RHF iter   3:  -404.33055926389204   -6.33964e-02   4.13917e-04 DIIS
   @RHF iter   4:  -404.33515336597759   -4.59410e-03   1.73045e-04 DIIS
   @RHF iter   5:  -404.33591388215228   -7.60516e-04   2.53975e-05 DIIS
   @RHF iter   6:  -404.33594717691665   -3.32948e-05   1.09813e-05 DIIS
   @RHF iter   7:  -404.33595282890207   -5.65199e-06   4.20043e-06 DIIS
   @RHF iter   8:  -404.33595398507623   -1.15617e-06   1.47439e-06 DIIS
   @RHF iter   9:  -404.33595413384904   -1.48773e-07   3.65366e-07 DIIS
   @RHF iter  10:  -404.33595414187704   -8.02800e-09   1.16348e-07 DIIS
   @RHF iter  11:  -404.33595414259878   -7.21741e-10   3.55085e-08 DIIS
   @RHF iter  12:  -404.33595414265960   -6.08225e-11   1.01308e-08 DIIS
   @RHF iter  13:  -404.33595414266750   -7.90124e-12   3.62888e-09 DIIS
   @RHF iter  14:  -404.33595414267000   -2.50111e-12   1.55008e-09 DIIS
   @RHF iter  15:  -404.33595414267006   -5.68434e-14   6.90506e-10 DIIS
   @RHF iter  16:  -404.33595414266841    1.64846e-12   2.09309e-10 DIIS
   @RHF iter  17:  -404.33595414266927   -8.52651e-13   8.45947e-11 DIIS
  Energy and wave function converged.

  ==> Post-Iterations <==

    Orbital Energies [Eh]
    ---------------------

    Doubly Occupied:

       1A    -20.499976     2A    -15.588411     3A    -11.341496
       4A    -11.240983     5A    -11.230938     6A    -11.229366
       7A    -11.221999     8A    -11.220358     9A    -11.219304
      10A     -1.368042    11A     -1.216492    12A     -1.086328
      13A     -1.047419    14A     -0.932076    15A     -0.928965
      16A     -0.889590    17A     -0.788808    18A     -0.771642
      19A     -0.723327    20A     -0.665336    21A     -0.637611
      22A     -0.623000    23A     -0.594752    24A     -0.590794
      25A     -0.584955    26A     -0.563755    27A     -0.542498
      28A     -0.536483    29A     -0.524077    30A     -0.513596
      31A     -0.505193    32A     -0.495822    33A     -0.467298
      34A     -0.464213    35A     -0.459623    36A     -0.404076
      37A     -0.402294

    Virtual:

      38A      0.152686    39A      0.177121    40A      0.191085
      41A      0.197864    42A      0.217007    43A      0.225332
      44A      0.232610    45A      0.240608    46A      0.248796
      47A      0.252270    48A      0.260591    49A      0.273758
      50A      0.294025    51A      0.299269    52A      0.304968
      53A      0.316091    54A      0.319075    55A      0.339380
      56A      0.359248    57A      0.389823    58A      0.405461
      59A      0.412424    60A      0.458387    61A      0.480465
      62A      0.542941    63A      0.545142    64A      0.568662
      65A      0.597300    66A      0.599393    67A      0.635589
      68A      0.641047    69A      0.658978    70A      0.675675
      71A      0.692992    72A      0.734597    73A      0.743318
      74A      0.769609    75A      0.775273    76A      0.789190
      77A      0.815191    78A      0.830508    79A      0.836056
      80A      0.845524    81A      0.851547    82A      0.865825
      83A      0.871667    84A      0.878252    85A      0.893550
      86A      0.896100    87A      0.899926    88A      0.903826
      89A      0.908847    90A      0.916601    91A      0.921481
      92A      0.930316    93A      0.942719    94A      0.952066
      95A      0.955637    96A      0.964310    97A      0.975674
      98A      0.985243    99A      0.995891   100A      1.021208
     101A      1.034163   102A      1.058680   103A      1.077528
     104A      1.112301   105A      1.114900   106A      1.130989
     107A      1.132368   108A      1.207569   109A      1.312277
     110A      1.321042   111A      1.363053   112A      1.376640
     113A      1.389496   114A      1.399090   115A      1.407500
     116A      1.422994   117A      1.441312   118A      1.469787
     119A      1.497709   120A      1.528848   121A      1.541027
     122A      1.561870   123A      1.643197   124A      1.660723
     125A      1.674074   126A      1.679294   127A      1.682571
     128A      1.686613   129A      1.691974   130A      1.707757
     131A      1.722502   132A      1.733296   133A      1.751395
     134A      1.819790   135A      1.831610   136A      1.839951
     137A      1.857015   138A      1.858654   139A      1.890906
     140A      1.900158   141A      1.907372   142A      1.919855
     143A      1.936669   144A      1.939984   145A      1.947873
     146A      1.951938   147A      1.956133   148A      1.967120
     149A      1.973544   150A      1.981254   151A      1.992386
     152A      2.001751   153A      2.009829   154A      2.022709
     155A      2.038729   156A      2.063182   157A      2.075027
     158A      2.098600   159A      2.101728   160A      2.107357
     161A      2.137476   162A      2.144819   163A      2.197938
     164A      2.211950   165A      2.241521   166A      2.264996
     167A      2.286174   168A      2.292381   169A      2.310753
     170A      2.314658   171A      2.333706   172A      2.367602
     173A      2.376164   174A      2.410318   175A      2.449575
     176A      2.457700   177A      2.479126   178A      2.504649
     179A      2.541421   180A      2.568846   181A      2.584128
     182A      2.591887   183A      2.604279   184A      2.638013
     185A      2.647015   186A      2.700878   187A      2.713445
     188A      2.752599   189A      2.761668   190A      2.774815
     191A      2.779153   192A      2.791636   193A      2.792215
     194A      2.813588   195A      2.829692   196A      2.841926
     197A      2.848288   198A      2.884943   199A      2.908445
     200A      2.982987   201A      2.985525   202A      3.007621
     203A      3.016858   204A      3.106216   205A      3.136393
     206A      3.163066   207A      3.291123   208A      3.513592
     209A      3.530549   210A      3.878426   211A      3.916568

    Final Occupation by Irrep:
              A
    DOCC [    37 ]

  @RHF Final Energy:  -404.33595414266927

   => Energetics <=

    Nuclear Repulsion Energy =            455.5478646137806322
    One-Electron Energy =               -1451.5258502808076173
    Two-Electron Energy =                 591.6420315243577761
    Total Energy =                       -404.3359541426692658

Computation Completed

Properties will be evaluated at   0.000000,   0.000000,   0.000000 [a0]

Properties computed using the SCF density matrix

  Nuclear Dipole Moment: [e a0]
     X:    -0.5326      Y:   -15.8124      Z:    -4.3041

  Electronic Dipole Moment: [e a0]
     X:     1.7605      Y:    14.7794      Z:     4.4947

  Dipole Moment: [e a0]
     X:     1.2280      Y:    -1.0330      Z:     0.1906     Total:     1.6159

  Dipole Moment: [D]
     X:     3.1212      Y:    -2.6255      Z:     0.4846     Total:     4.1073

*** tstop() called on ds3 at Mon Apr 27 20:08:54 2020
Module time:
	user time   =      82.85 seconds =       1.38 minutes
	system time =      34.33 seconds =       0.57 minutes
	total time  =        231 seconds =       3.85 minutes
Total time:
	user time   =      82.85 seconds =       1.38 minutes
	system time =      34.33 seconds =       0.57 minutes
	total time  =        231 seconds =       3.85 minutes
                                     G D M A

                                 by Anthony Stone

                           version 2.2.06, 22 June 2011

               Distributed Multipoles from Gaussian wavefunctions

Starting at 20:8:54 on 27 Apr 2020

Using SCF density matrix from file ./SSI/SSI-057VAL-181ASN-1-dimer.test.13448.fchk

                         Distributed Multipole Analysis

Standard DMA

Positions and radii in angstrom
Multipole moments in atomic units, ea_0^k for rank k

C          x = -0.098702  y = -2.200326  z = -1.037403 angstrom
           Maximum rank =  0   Radius =  0.650 angstrom
                   Q00  =  -0.002262

C          x = -1.500702  y = -2.289326  z = -1.690403 angstrom
           Maximum rank =  0   Radius =  0.650 angstrom
                   Q00  =  -0.243376

C          x =  0.407298  y = -3.599326  z = -0.680403 angstrom
           Maximum rank =  0   Radius =  0.650 angstrom
                   Q00  =  -0.243927

C          x =  0.898298  y = -1.522326  z = -1.974403 angstrom
           Maximum rank =  0   Radius =  0.650 angstrom
                   Q00  =  -0.246401

H          x = -0.156702  y = -1.631326  z = -0.118403 angstrom
           Maximum rank =  0   Radius =  0.325 angstrom
                   Q00  =   0.011172

H          x = -1.396702  y = -2.865326  z = -2.611403 angstrom
           Maximum rank =  0   Radius =  0.325 angstrom
                   Q00  =   0.079376

H          x =  0.403298  y = -4.242326  z = -1.564403 angstrom
           Maximum rank =  0   Radius =  0.325 angstrom
                   Q00  =   0.077111

H          x =  1.432298  y = -3.531326  z = -0.310403 angstrom
           Maximum rank =  0   Radius =  0.325 angstrom
                   Q00  =   0.075619

H          x = -0.189702  y = -4.058326  z =  0.107597 angstrom
           Maximum rank =  0   Radius =  0.325 angstrom
                   Q00  =   0.083053

H          x =  0.605298  y = -0.490326  z = -2.164403 angstrom
           Maximum rank =  0   Radius =  0.325 angstrom
                   Q00  =   0.080283

H          x =  1.888298  y = -1.512326  z = -1.515403 angstrom
           Maximum rank =  0   Radius =  0.325 angstrom
                   Q00  =   0.073617

H          x =  0.952298  y = -2.062326  z = -2.921403 angstrom
           Maximum rank =  0   Radius =  0.325 angstrom
                   Q00  =   0.081669

H          x = -1.921322  y = -1.297806  z = -1.913933 angstrom
           Maximum rank =  0   Radius =  0.325 angstrom
                   Q00  =   0.086654

H          x = -2.166582  y = -2.850986  z = -1.018733 angstrom
           Maximum rank =  0   Radius =  0.325 angstrom
                   Q00  =   0.081093

C          x = -0.135702  y =  0.871674  z =  0.843597 angstrom
           Maximum rank =  0   Radius =  0.650 angstrom
                   Q00  =  -0.147412

C          x = -1.233702  y =  0.612674  z =  1.886597 angstrom
           Maximum rank =  0   Radius =  0.650 angstrom
                   Q00  =  -0.207371

C          x =  0.353298  y =  2.308674  z =  0.861597 angstrom
           Maximum rank =  0   Radius =  0.650 angstrom
                   Q00  =   0.874356

O          x = -0.426702  y =  3.242674  z =  0.723597 angstrom
           Maximum rank =  0   Radius =  0.650 angstrom
                   Q00  =  -0.823237

N          x =  1.650298  y =  2.496674  z =  1.038597 angstrom
           Maximum rank =  0   Radius =  0.650 angstrom
                   Q00  =  -0.536753

H          x =  0.709298  y =  0.213674  z =  1.055597 angstrom
           Maximum rank =  0   Radius =  0.325 angstrom
                   Q00  =   0.034073

H          x = -0.494702  y =  0.653674  z = -0.161403 angstrom
           Maximum rank =  0   Radius =  0.325 angstrom
                   Q00  =   0.109574

H          x = -0.932702  y =  1.056674  z =  2.836597 angstrom
           Maximum rank =  0   Radius =  0.325 angstrom
                   Q00  =   0.087869

H          x =  2.006298  y =  3.441674  z =  1.022597 angstrom
           Maximum rank =  0   Radius =  0.325 angstrom
                   Q00  =   0.218359

H          x =  2.284298  y =  1.713674  z =  1.099597 angstrom
           Maximum rank =  0   Radius =  0.325 angstrom
                   Q00  =   0.206048

H          x = -1.393432  y = -0.468136  z =  2.014377 angstrom
           Maximum rank =  0   Radius =  0.325 angstrom
                   Q00  =   0.081275

H          x = -2.190322  y =  1.055204  z =  1.571867 angstrom
           Maximum rank =  0   Radius =  0.325 angstrom
                   Q00  =   0.109540

Total multipoles referred to origin at
           x =   0.000000,  y =    0.000000,  z =    0.000000 angstrom
                   Q00  =  -0.000000

Finished at 20:8:54 on 27 Apr 2020

  DMA results are available in the Python driver through the
	  variable('DMA DISTRIBUTED MULTIPOLES')
  and
	  variable('DMA TOTAL MULTIPOLES')
  commands.

    Psi4 stopped on: Monday, 27 April 2020 08:08PM
    Psi4 wall time for execution: 0:03:50.42

*** Psi4 exiting successfully. Buy a developer a beer!
