                               Psi4 1.3.2 release

  ==> Input File <==

--------------------------------------------------------------------------
import numpy as np
set {scf_type pk
basis cc-pvdz
d_convergence 10
gdma_switch   0
gdma_limit    0
gdma_origin   [ 0.0,  0.0,  0.0 ]
}
molecule test {
    units Angstrom
    0 1
    --
    0 1
    C               -0.405257722943179    -2.189735798290120    -2.210601549382138
    C                0.193742277056821     1.536264201709880    -0.180601549382138
    C                1.288742277056821     0.876264201709880    -0.702601549382138
    C               -1.049257722943179     0.976264201709879    -0.307601549382138
    C                1.104742277056821    -0.353735798290120    -1.389601549382138
    C               -1.230257722943179    -0.221735798290120    -0.983601549382138
    C               -0.169257722943179    -0.896735798290121    -1.523601549382138
    H                0.318742277056821     2.474264201709880     0.344398450617862
    H                2.278742277056821     1.298264201709880    -0.596601549382138
    H               -1.906257722943179     1.480264201709879     0.116398450617862
    H                1.960742277056821    -0.865735798290120    -1.807601549382138
    H               -2.226257722943179    -0.630735798290120    -1.068601549382138
    H                0.071742277056821    -2.145735798290120    -3.191601549382138
    H               -1.472257722943179    -2.348735798290120    -2.367601549382138
    H                0.018292277056821    -3.031706798290120    -1.643421549382138
    C                0.570742277056821     0.819264201709879     3.488398450617862
    C               -0.289257722943179    -0.350735798290120     3.030398450617862
    H                1.593742277056821     0.515264201709880     3.690398450617862
    H                0.596742277056821     1.571264201709879     2.701398450617862
    H                0.106742277056821     1.254264201709880     4.365398450617861
    H                0.143742277056821    -0.745735798290120     2.114398450617862
    H               -0.342687722943179    -1.135536798290121     3.799318450617863
    H               -1.316567722943179    -0.015992798290120     2.824068450617862

}
e, wfn = energy('scf', return_wfn=True)
gdma(wfn)
dmavals = variable('DMA DISTRIBUTED MULTIPOLES')
charges = np.array(dmavals)
print(charges)
np.save('SSI-146PHE-150LEU-2-dimer.npy', np.array(charges))--------------------------------------------------------------------------

*** tstart() called on ds3
*** at Mon Apr 27 20:44:38 2020

   => Loading Basis Set <=

    Name: CC-PVDZ
    Role: ORBITAL
    Keyword: BASIS
    atoms 1-7, 16-17  entry C          line   138 file /theoryfs2/ds/metcalf/miniconda2/envs/tf2gpu/share/psi4/basis/cc-pvdz.gbs
    atoms 8-15, 18-23 entry H          line    22 file /theoryfs2/ds/metcalf/miniconda2/envs/tf2gpu/share/psi4/basis/cc-pvdz.gbs

         ---------------------------------------------------------
                                   SCF
               by Justin Turney, Rob Parrish, Andy Simmonett
                          and Daniel G. A. Smith
                              RHF Reference
                        1 Threads,    500 MiB Core
         ---------------------------------------------------------

  ==> Geometry <==

    Molecular point group: c1
    Full point group: C1

    Geometry (in Angstrom), charge = 0, multiplicity = 1:

       Center              X                  Y                   Z               Mass
    ------------   -----------------  -----------------  -----------------  -----------------
         C           -0.405257722943    -2.189735798290    -2.210601549382    12.000000000000
         C            0.193742277057     1.536264201710    -0.180601549382    12.000000000000
         C            1.288742277057     0.876264201710    -0.702601549382    12.000000000000
         C           -1.049257722943     0.976264201710    -0.307601549382    12.000000000000
         C            1.104742277057    -0.353735798290    -1.389601549382    12.000000000000
         C           -1.230257722943    -0.221735798290    -0.983601549382    12.000000000000
         C           -0.169257722943    -0.896735798290    -1.523601549382    12.000000000000
         H            0.318742277057     2.474264201710     0.344398450618     1.007825032230
         H            2.278742277057     1.298264201710    -0.596601549382     1.007825032230
         H           -1.906257722943     1.480264201710     0.116398450618     1.007825032230
         H            1.960742277057    -0.865735798290    -1.807601549382     1.007825032230
         H           -2.226257722943    -0.630735798290    -1.068601549382     1.007825032230
         H            0.071742277057    -2.145735798290    -3.191601549382     1.007825032230
         H           -1.472257722943    -2.348735798290    -2.367601549382     1.007825032230
         H            0.018292277057    -3.031706798290    -1.643421549382     1.007825032230
         C            0.570742277057     0.819264201710     3.488398450618    12.000000000000
         C           -0.289257722943    -0.350735798290     3.030398450618    12.000000000000
         H            1.593742277057     0.515264201710     3.690398450618     1.007825032230
         H            0.596742277057     1.571264201710     2.701398450618     1.007825032230
         H            0.106742277057     1.254264201710     4.365398450618     1.007825032230
         H            0.143742277057    -0.745735798290     2.114398450618     1.007825032230
         H           -0.342687722943    -1.135536798290     3.799318450618     1.007825032230
         H           -1.316567722943    -0.015992798290     2.824068450618     1.007825032230

  Running in c1 symmetry.

  Rotational constants: A =      0.07564  B =      0.02801  C =      0.02580 [cm^-1]
  Rotational constants: A =   2267.76472  B =    839.63957  C =    773.42967 [MHz]
  Nuclear repulsion =  417.711874366504730

  Charge       = 0
  Multiplicity = 1
  Electrons    = 68
  Nalpha       = 34
  Nbeta        = 34

  ==> Algorithm <==

  SCF Algorithm Type is PK.
  DIIS enabled.
  MOM disabled.
  Fractional occupation disabled.
  Guess Type is SAD.
  Energy threshold   = 1.00e-06
  Density threshold  = 1.00e-10
  Integral threshold = 0.00e+00

  ==> Primary Basis <==

  Basis Set: CC-PVDZ
    Blend: CC-PVDZ
    Number of shells: 96
    Number of basis function: 196
    Number of Cartesian functions: 205
    Spherical Harmonics?: true
    Max angular momentum: 2

  ==> Pre-Iterations <==

   -------------------------------------------------------
    Irrep   Nso     Nmo     Nalpha   Nbeta   Ndocc  Nsocc
   -------------------------------------------------------
     A        196     196       0       0       0       0
   -------------------------------------------------------
    Total     196     196      34      34      34       0
   -------------------------------------------------------

  ==> Integral Setup <==

  Using integral reordering PK algorithm.
  Sizing the integral batches needed.
  Building batch lookup table.
   Calculation information:
      Number of atoms:                  23
      Number of AO shells:              96
      Number of primitives:            268
      Number of atomic orbitals:       205
      Number of basis functions:       196

      Integral cutoff                 1.00e-12
      Number of threads:                 1

	Batch   1 pq = [       0,    9405] index = [             0,44231715] size =     44231715
	Batch   2 pq = [    9405,   13301] index = [      44231715,88464951] size =     44233236
	Batch   3 pq = [   13301,   16290] index = [      88464951,132690195] size =     44225244
	Batch   4 pq = [   16290,   18810] index = [     132690195,176917455] size =     44227260
	Batch   5 pq = [   18810,   19306] index = [     176917455,186370471] size =      9453016
  Task number: 17
  Buffer size: 11059200
  Buffer per thread: 2
  We computed 10410942 shell quartets total.
  Whereas there are 10841496 unique shell quartets.

  ==> DiskJK: Disk-Based J/K Matrices <==

    J tasked:                  Yes
    K tasked:                  Yes
    wK tasked:                  No
    Memory [MiB]:              375
    Schwarz Cutoff:          1E-12

    OpenMP threads:              1

  Minimum eigenvalue in the overlap matrix is 2.9730678805E-04.
  Using Symmetric Orthogonalization.

  SCF Guess: Superposition of Atomic Densities via on-the-fly atomic UHF.

  ==> Iterations <==

                        Total Energy        Delta E     RMS |[F,P]|

   @RHF iter SAD:  -348.00078965278169   -3.48001e+02   0.00000e+00
   @RHF iter   1:  -348.75935127428966   -7.58562e-01   2.93990e-03 DIIS
   @RHF iter   2:  -348.95525250143430   -1.95901e-01   1.24300e-03 DIIS
   @RHF iter   3:  -348.98734004561277   -3.20875e-02   2.63986e-04 DIIS
   @RHF iter   4:  -348.98986281009661   -2.52276e-03   5.98697e-05 DIIS
   @RHF iter   5:  -348.98995297824109   -9.01681e-05   1.90153e-05 DIIS
   @RHF iter   6:  -348.98996203748709   -9.05925e-06   5.12909e-06 DIIS
   @RHF iter   7:  -348.98996278169233   -7.44205e-07   1.20281e-06 DIIS
   @RHF iter   8:  -348.98996283420661   -5.25143e-08   3.27622e-07 DIIS
   @RHF iter   9:  -348.98996284179162   -7.58502e-09   1.63548e-07 DIIS
   @RHF iter  10:  -348.98996284387908   -2.08746e-09   7.69205e-08 DIIS
   @RHF iter  11:  -348.98996284462726   -7.48173e-10   3.08978e-08 DIIS
   @RHF iter  12:  -348.98996284474498   -1.17723e-10   1.27573e-08 DIIS
   @RHF iter  13:  -348.98996284475902   -1.40403e-11   3.60843e-09 DIIS
   @RHF iter  14:  -348.98996284475783    1.19371e-12   1.06137e-09 DIIS
   @RHF iter  15:  -348.98996284475731    5.11591e-13   3.00268e-10 DIIS
   @RHF iter  16:  -348.98996284475840   -1.08002e-12   8.02917e-11 DIIS
  Energy and wave function converged.

  ==> Post-Iterations <==

    Orbital Energies [Eh]
    ---------------------

    Doubly Occupied:

       1A    -11.238514     2A    -11.236406     3A    -11.233691
       4A    -11.231175     5A    -11.228143     6A    -11.227842
       7A    -11.225439     8A    -11.208670     9A    -11.207927
      10A     -1.158455    11A     -1.053610    12A     -1.012224
      13A     -1.008511    14A     -0.934677    15A     -0.830229
      16A     -0.828372    17A     -0.793730    18A     -0.693246
      19A     -0.635276    20A     -0.629913    21A     -0.595926
      22A     -0.588684    23A     -0.579630    24A     -0.578865
      25A     -0.568716    26A     -0.535911    27A     -0.496187
      28A     -0.489164    29A     -0.487356    30A     -0.482147
      31A     -0.475839    32A     -0.474007    33A     -0.330115
      34A     -0.326373

    Virtual:

      35A      0.132091    36A      0.145435    37A      0.174636
      38A      0.195006    39A      0.211436    40A      0.212553
      41A      0.235057    42A      0.244697    43A      0.255848
      44A      0.266479    45A      0.268932    46A      0.272700
      47A      0.283487    48A      0.293168    49A      0.309858
      50A      0.335094    51A      0.370819    52A      0.379473
      53A      0.409686    54A      0.449697    55A      0.461631
      56A      0.477442    57A      0.503765    58A      0.567855
      59A      0.576383    60A      0.597652    61A      0.607112
      62A      0.612097    63A      0.629617    64A      0.651554
      65A      0.676842    66A      0.688668    67A      0.695402
      68A      0.708191    69A      0.736529    70A      0.745534
      71A      0.749047    72A      0.758553    73A      0.766287
      74A      0.781839    75A      0.805601    76A      0.819066
      77A      0.846355    78A      0.856917    79A      0.860773
      80A      0.865110    81A      0.873210    82A      0.885255
      83A      0.891738    84A      0.904633    85A      0.908111
      86A      0.912851    87A      0.916876    88A      0.925169
      89A      0.942108    90A      0.944614    91A      0.965233
      92A      0.985671    93A      0.992758    94A      1.007163
      95A      1.030905    96A      1.075340    97A      1.117901
      98A      1.127476    99A      1.137499   100A      1.149209
     101A      1.157500   102A      1.163428   103A      1.199832
     104A      1.229031   105A      1.241003   106A      1.248924
     107A      1.256773   108A      1.280150   109A      1.305318
     110A      1.313044   111A      1.331510   112A      1.339218
     113A      1.413211   114A      1.482121   115A      1.497535
     116A      1.506912   117A      1.531607   118A      1.570719
     119A      1.577833   120A      1.617116   121A      1.671016
     122A      1.683217   123A      1.690548   124A      1.702252
     125A      1.736674   126A      1.741668   127A      1.778986
     128A      1.800513   129A      1.832387   130A      1.851279
     131A      1.875383   132A      1.881789   133A      1.886842
     134A      1.900951   135A      1.906810   136A      1.919833
     137A      1.926885   138A      1.936562   139A      1.945678
     140A      1.953228   141A      1.960463   142A      1.961186
     143A      1.966719   144A      1.971363   145A      1.985879
     146A      2.002777   147A      2.008079   148A      2.017642
     149A      2.044104   150A      2.067319   151A      2.082909
     152A      2.100166   153A      2.118532   154A      2.140104
     155A      2.148592   156A      2.160452   157A      2.177960
     158A      2.184777   159A      2.199027   160A      2.250610
     161A      2.272579   162A      2.294608   163A      2.300082
     164A      2.308300   165A      2.321478   166A      2.346975
     167A      2.364083   168A      2.456776   169A      2.469197
     170A      2.477695   171A      2.485853   172A      2.528707
     173A      2.539864   174A      2.568899   175A      2.596994
     176A      2.643318   177A      2.730938   178A      2.755260
     179A      2.770807   180A      2.783249   181A      2.798254
     182A      2.814658   183A      2.815704   184A      2.846658
     185A      2.862339   186A      2.876181   187A      2.885047
     188A      2.966069   189A      2.969994   190A      2.998686
     191A      3.026042   192A      3.048201   193A      3.182794
     194A      3.217769   195A      3.311138   196A      3.992160

    Final Occupation by Irrep:
              A
    DOCC [    34 ]

  @RHF Final Energy:  -348.98996284475840

   => Energetics <=

    Nuclear Repulsion Energy =            417.7118743665047305
    One-Electron Energy =               -1298.1537295560340226
    Two-Electron Energy =                 531.4518923447708403
    Total Energy =                       -348.9899628447584519

Computation Completed

Properties will be evaluated at   0.000000,   0.000000,   0.000000 [a0]

Properties computed using the SCF density matrix

  Nuclear Dipole Moment: [e a0]
     X:    -0.1639      Y:    -2.1809      Z:     8.7000

  Electronic Dipole Moment: [e a0]
     X:     0.1505      Y:     2.0603      Z:    -8.8458

  Dipole Moment: [e a0]
     X:    -0.0134      Y:    -0.1205      Z:    -0.1458     Total:     0.1896

  Dipole Moment: [D]
     X:    -0.0340      Y:    -0.3064      Z:    -0.3705     Total:     0.4820

*** tstop() called on ds3 at Mon Apr 27 20:46:20 2020
Module time:
	user time   =      75.76 seconds =       1.26 minutes
	system time =      28.09 seconds =       0.47 minutes
	total time  =        102 seconds =       1.70 minutes
Total time:
	user time   =      75.76 seconds =       1.26 minutes
	system time =      28.09 seconds =       0.47 minutes
	total time  =        102 seconds =       1.70 minutes
                                     G D M A

                                 by Anthony Stone

                           version 2.2.06, 22 June 2011

               Distributed Multipoles from Gaussian wavefunctions

Starting at 20:46:20 on 27 Apr 2020

Using SCF density matrix from file ./SSI/SSI-146PHE-150LEU-2-dimer.test.17037.fchk

                         Distributed Multipole Analysis

Standard DMA

Positions and radii in angstrom
Multipole moments in atomic units, ea_0^k for rank k

C          x = -0.405258  y = -2.189736  z = -2.210602 angstrom
           Maximum rank =  0   Radius =  0.650 angstrom
                   Q00  =  -0.203627

C          x =  0.193742  y =  1.536264  z = -0.180602 angstrom
           Maximum rank =  0   Radius =  0.650 angstrom
                   Q00  =  -0.089664

C          x =  1.288742  y =  0.876264  z = -0.702602 angstrom
           Maximum rank =  0   Radius =  0.650 angstrom
                   Q00  =  -0.083272

C          x = -1.049258  y =  0.976264  z = -0.307602 angstrom
           Maximum rank =  0   Radius =  0.650 angstrom
                   Q00  =   0.014507

C          x =  1.104742  y = -0.353736  z = -1.389602 angstrom
           Maximum rank =  0   Radius =  0.650 angstrom
                   Q00  =  -0.109860

C          x = -1.230258  y = -0.221736  z = -0.983602 angstrom
           Maximum rank =  0   Radius =  0.650 angstrom
                   Q00  =  -0.042591

C          x = -0.169258  y = -0.896736  z = -1.523602 angstrom
           Maximum rank =  0   Radius =  0.650 angstrom
                   Q00  =  -0.085571

H          x =  0.318742  y =  2.474264  z =  0.344398 angstrom
           Maximum rank =  0   Radius =  0.325 angstrom
                   Q00  =   0.060870

H          x =  2.278742  y =  1.298264  z = -0.596602 angstrom
           Maximum rank =  0   Radius =  0.325 angstrom
                   Q00  =   0.067583

H          x = -1.906258  y =  1.480264  z =  0.116398 angstrom
           Maximum rank =  0   Radius =  0.325 angstrom
                   Q00  =   0.060589

H          x =  1.960742  y = -0.865736  z = -1.807602 angstrom
           Maximum rank =  0   Radius =  0.325 angstrom
                   Q00  =   0.058260

H          x = -2.226258  y = -0.630736  z = -1.068602 angstrom
           Maximum rank =  0   Radius =  0.325 angstrom
                   Q00  =   0.053791

H          x =  0.071742  y = -2.145736  z = -3.191602 angstrom
           Maximum rank =  0   Radius =  0.325 angstrom
                   Q00  =   0.098678

H          x = -1.472258  y = -2.348736  z = -2.367602 angstrom
           Maximum rank =  0   Radius =  0.325 angstrom
                   Q00  =   0.097663

H          x =  0.018292  y = -3.031707  z = -1.643422 angstrom
           Maximum rank =  0   Radius =  0.325 angstrom
                   Q00  =   0.103645

C          x =  0.570742  y =  0.819264  z =  3.488398 angstrom
           Maximum rank =  0   Radius =  0.650 angstrom
                   Q00  =  -0.234523

C          x = -0.289258  y = -0.350736  z =  3.030398 angstrom
           Maximum rank =  0   Radius =  0.650 angstrom
                   Q00  =  -0.228097

H          x =  1.593742  y =  0.515264  z =  3.690398 angstrom
           Maximum rank =  0   Radius =  0.325 angstrom
                   Q00  =   0.079575

H          x =  0.596742  y =  1.571264  z =  2.701398 angstrom
           Maximum rank =  0   Radius =  0.325 angstrom
                   Q00  =   0.077167

H          x =  0.106742  y =  1.254264  z =  4.365398 angstrom
           Maximum rank =  0   Radius =  0.325 angstrom
                   Q00  =   0.071866

H          x =  0.143742  y = -0.745736  z =  2.114398 angstrom
           Maximum rank =  0   Radius =  0.325 angstrom
                   Q00  =   0.087667

H          x = -0.342688  y = -1.135537  z =  3.799318 angstrom
           Maximum rank =  0   Radius =  0.325 angstrom
                   Q00  =   0.071865

H          x = -1.316568  y = -0.015993  z =  2.824068 angstrom
           Maximum rank =  0   Radius =  0.325 angstrom
                   Q00  =   0.073479

Total multipoles referred to origin at
           x =   0.000000,  y =    0.000000,  z =    0.000000 angstrom
                   Q00  =  -0.000000

Finished at 20:46:20 on 27 Apr 2020

  DMA results are available in the Python driver through the
	  variable('DMA DISTRIBUTED MULTIPOLES')
  and
	  variable('DMA TOTAL MULTIPOLES')
  commands.

    Psi4 stopped on: Monday, 27 April 2020 08:46PM
    Psi4 wall time for execution: 0:01:41.90

*** Psi4 exiting successfully. Buy a developer a beer!
