                               Psi4 1.3.2 release

  ==> Input File <==

--------------------------------------------------------------------------
import numpy as np
set {scf_type pk
basis cc-pvdz
d_convergence 10
gdma_switch   0
gdma_limit    0
gdma_origin   [ 0.0,  0.0,  0.0 ]
}
molecule test {
    units Angstrom
    0 1
    --
    0 1
    C               -1.572548365587416     0.153220999184246     2.655456618359341
    C               -1.182548365587416     0.170220999184246     4.131456618359341
    C               -2.898548365587416    -0.474779000815754     2.200456618359341
    H               -1.537548365587416     1.166220999184246     2.257456618359341
    H               -0.812548365587416    -0.401779000815754     2.132456618359341
    H               -1.254548365587416    -0.843779000815754     4.523456618359341
    H               -3.663548365587415    -0.257779000815754     2.944456618359341
    H               -1.869998365587416     0.809590999184246     4.704706618359341
    H               -0.135658365587416     0.489400999184246     4.241696618359342
    H               -3.272188365587416    -0.122409000815754     1.227714618359341
    H               -2.767328365587415    -1.564889000815754     2.133745618359341
    C                0.656451634412584    -1.897779000815754    -3.435543381640659
    C                0.795451634412584    -0.444779000815754     0.054456618359341
    C                0.761451634412584    -1.360779000815754    -0.997543381640659
    C                0.808451634412584     0.922220999184246    -0.199543381640659
    C                0.769451634412584    -0.901779000815754    -2.305543381640659
    C                0.790451634412584     1.402220999184246    -1.503543381640658
    C                0.800451634412584     0.482220999184246    -2.543543381640659
    O                0.793451634412584     1.822220999184246     0.843456618359341
    H                0.846451634412584    -0.811779000815754     1.061456618359341
    H                0.744451634412584    -2.422779000815754    -0.784543381640659
    H                0.835451634412584     1.379220999184246     1.708456618359341
    H                0.797451634412584     2.465220999184246    -1.697543381640658
    H                0.995451634412584    -2.877779000815754    -3.094543381640658
    H                1.303451634412584    -1.585779000815754    -4.256543381640659
    H                0.812451634412584     0.855220999184246    -3.559543381640659
    H               -0.381938365587416    -1.980279000815754    -3.789021381640659

}
e, wfn = energy('scf', return_wfn=True)
gdma(wfn)
dmavals = variable('DMA DISTRIBUTED MULTIPOLES')
charges = np.array(dmavals)
print(charges)
np.save('SSI-101LEU-125TYR-1-dimer.npy', np.array(charges))--------------------------------------------------------------------------

*** tstart() called on ds3
*** at Mon Apr 27 21:18:59 2020

   => Loading Basis Set <=

    Name: CC-PVDZ
    Role: ORBITAL
    Keyword: BASIS
    atoms 1-3, 12-18  entry C          line   138 file /theoryfs2/ds/metcalf/miniconda2/envs/tf2gpu/share/psi4/basis/cc-pvdz.gbs
    atoms 4-11, 20-27 entry H          line    22 file /theoryfs2/ds/metcalf/miniconda2/envs/tf2gpu/share/psi4/basis/cc-pvdz.gbs
    atoms 19          entry O          line   198 file /theoryfs2/ds/metcalf/miniconda2/envs/tf2gpu/share/psi4/basis/cc-pvdz.gbs

         ---------------------------------------------------------
                                   SCF
               by Justin Turney, Rob Parrish, Andy Simmonett
                          and Daniel G. A. Smith
                              RHF Reference
                        1 Threads,    500 MiB Core
         ---------------------------------------------------------

  ==> Geometry <==

    Molecular point group: c1
    Full point group: C1

    Geometry (in Angstrom), charge = 0, multiplicity = 1:

       Center              X                  Y                   Z               Mass
    ------------   -----------------  -----------------  -----------------  -----------------
         C           -1.572548365587     0.153220999184     2.655456618359    12.000000000000
         C           -1.182548365587     0.170220999184     4.131456618359    12.000000000000
         C           -2.898548365587    -0.474779000816     2.200456618359    12.000000000000
         H           -1.537548365587     1.166220999184     2.257456618359     1.007825032230
         H           -0.812548365587    -0.401779000816     2.132456618359     1.007825032230
         H           -1.254548365587    -0.843779000816     4.523456618359     1.007825032230
         H           -3.663548365587    -0.257779000816     2.944456618359     1.007825032230
         H           -1.869998365587     0.809590999184     4.704706618359     1.007825032230
         H           -0.135658365587     0.489400999184     4.241696618359     1.007825032230
         H           -3.272188365587    -0.122409000816     1.227714618359     1.007825032230
         H           -2.767328365587    -1.564889000816     2.133745618359     1.007825032230
         C            0.656451634413    -1.897779000816    -3.435543381641    12.000000000000
         C            0.795451634413    -0.444779000816     0.054456618359    12.000000000000
         C            0.761451634413    -1.360779000816    -0.997543381641    12.000000000000
         C            0.808451634413     0.922220999184    -0.199543381641    12.000000000000
         C            0.769451634413    -0.901779000816    -2.305543381641    12.000000000000
         C            0.790451634413     1.402220999184    -1.503543381641    12.000000000000
         C            0.800451634413     0.482220999184    -2.543543381641    12.000000000000
         O            0.793451634413     1.822220999184     0.843456618359    15.994914619570
         H            0.846451634413    -0.811779000816     1.061456618359     1.007825032230
         H            0.744451634413    -2.422779000816    -0.784543381641     1.007825032230
         H            0.835451634413     1.379220999184     1.708456618359     1.007825032230
         H            0.797451634413     2.465220999184    -1.697543381641     1.007825032230
         H            0.995451634413    -2.877779000816    -3.094543381641     1.007825032230
         H            1.303451634413    -1.585779000816    -4.256543381641     1.007825032230
         H            0.812451634413     0.855220999184    -3.559543381641     1.007825032230
         H           -0.381938365587    -1.980279000816    -3.789021381641     1.007825032230

  Running in c1 symmetry.

  Rotational constants: A =      0.05584  B =      0.01593  C =      0.01382 [cm^-1]
  Rotational constants: A =   1674.00770  B =    477.70363  C =    414.18151 [MHz]
  Nuclear repulsion =  580.967219324804432

  Charge       = 0
  Multiplicity = 1
  Electrons    = 84
  Nalpha       = 42
  Nbeta        = 42

  ==> Algorithm <==

  SCF Algorithm Type is PK.
  DIIS enabled.
  MOM disabled.
  Fractional occupation disabled.
  Guess Type is SAD.
  Energy threshold   = 1.00e-06
  Density threshold  = 1.00e-10
  Integral threshold = 0.00e+00

  ==> Primary Basis <==

  Basis Set: CC-PVDZ
    Blend: CC-PVDZ
    Number of shells: 114
    Number of basis function: 234
    Number of Cartesian functions: 245
    Spherical Harmonics?: true
    Max angular momentum: 2

  ==> Pre-Iterations <==

   -------------------------------------------------------
    Irrep   Nso     Nmo     Nalpha   Nbeta   Ndocc  Nsocc
   -------------------------------------------------------
     A        234     234       0       0       0       0
   -------------------------------------------------------
    Total     234     234      42      42      42       0
   -------------------------------------------------------

  ==> Integral Setup <==

  Using integral reordering PK algorithm.
  Sizing the integral batches needed.
  Building batch lookup table.
   Calculation information:
      Number of atoms:                  27
      Number of AO shells:             114
      Number of primitives:            322
      Number of atomic orbitals:       245
      Number of basis functions:       234

      Integral cutoff                 1.00e-12
      Number of threads:                 1

	Batch   1 pq = [       0,    9405] index = [             0,44231715] size =     44231715
	Batch   2 pq = [    9405,   13301] index = [      44231715,88464951] size =     44233236
	Batch   3 pq = [   13301,   16290] index = [      88464951,132690195] size =     44225244
	Batch   4 pq = [   16290,   18810] index = [     132690195,176917455] size =     44227260
	Batch   5 pq = [   18810,   21030] index = [     176917455,221140965] size =     44223510
	Batch   6 pq = [   21030,   23037] index = [     221140965,265363203] size =     44222238
	Batch   7 pq = [   23037,   24883] index = [     265363203,309594286] size =     44231083
	Batch   8 pq = [   24883,   26601] index = [     309594286,353819901] size =     44225615
	Batch   9 pq = [   26601,   27495] index = [     353819901,378001260] size =     24181359
  Task number: 35
  Buffer size: 11059200
  Buffer per thread: 2
  We computed 19302166 shell quartets total.
  Whereas there are 21487290 unique shell quartets.

  ==> DiskJK: Disk-Based J/K Matrices <==

    J tasked:                  Yes
    K tasked:                  Yes
    wK tasked:                  No
    Memory [MiB]:              375
    Schwarz Cutoff:          1E-12

    OpenMP threads:              1

  Minimum eigenvalue in the overlap matrix is 3.2416798507E-04.
  Using Symmetric Orthogonalization.

  SCF Guess: Superposition of Atomic Densities via on-the-fly atomic UHF.

  ==> Iterations <==

                        Total Energy        Delta E     RMS |[F,P]|

   @RHF iter SAD:  -461.68251081633929   -4.61683e+02   0.00000e+00
   @RHF iter   1:  -462.60117259820521   -9.18662e-01   2.80093e-03 DIIS
   @RHF iter   2:  -462.84224949878535   -2.41077e-01   1.18273e-03 DIIS
   @RHF iter   3:  -462.88095731654141   -3.87078e-02   2.70283e-04 DIIS
   @RHF iter   4:  -462.88423597117935   -3.27865e-03   1.06738e-04 DIIS
   @RHF iter   5:  -462.88459927048893   -3.63299e-04   2.02486e-05 DIIS
   @RHF iter   6:  -462.88461934230418   -2.00718e-05   6.43457e-06 DIIS
   @RHF iter   7:  -462.88462138996141   -2.04766e-06   1.92237e-06 DIIS
   @RHF iter   8:  -462.88462164415716   -2.54196e-07   7.28006e-07 DIIS
   @RHF iter   9:  -462.88462168027775   -3.61206e-08   2.64392e-07 DIIS
   @RHF iter  10:  -462.88462168642809   -6.15034e-09   9.56102e-08 DIIS
   @RHF iter  11:  -462.88462168805108   -1.62299e-09   4.47636e-08 DIIS
   @RHF iter  12:  -462.88462168840556   -3.54476e-10   2.04148e-08 DIIS
   @RHF iter  13:  -462.88462168847070   -6.51426e-11   8.00538e-09 DIIS
   @RHF iter  14:  -462.88462168848099   -1.02887e-11   1.72887e-09 DIIS
   @RHF iter  15:  -462.88462168848253   -1.53477e-12   6.14061e-10 DIIS
   @RHF iter  16:  -462.88462168848127    1.25056e-12   1.76821e-10 DIIS
   @RHF iter  17:  -462.88462168848048    7.95808e-13   7.17738e-11 DIIS
  Energy and wave function converged.

  ==> Post-Iterations <==

    Orbital Energies [Eh]
    ---------------------

    Doubly Occupied:

       1A    -20.581290     2A    -11.298348     3A    -11.238765
       4A    -11.237725     5A    -11.233651     6A    -11.231558
       7A    -11.231134     8A    -11.228386     9A    -11.226348
      10A    -11.219496    11A    -11.218917    12A     -1.389310
      13A     -1.150886    14A     -1.054463    15A     -1.037035
      16A     -1.018459    17A     -0.932052    18A     -0.924629
      19A     -0.844017    20A     -0.803379    21A     -0.797930
      22A     -0.727114    23A     -0.666520    24A     -0.643762
      25A     -0.626960    26A     -0.604051    27A     -0.599192
      28A     -0.588295    29A     -0.582020    30A     -0.569096
      31A     -0.564664    32A     -0.551187    33A     -0.538336
      34A     -0.527280    35A     -0.494817    36A     -0.490163
      37A     -0.488899    38A     -0.469942    39A     -0.460241
      40A     -0.458104    41A     -0.338745    42A     -0.301748

    Virtual:

      43A      0.129167    44A      0.155022    45A      0.159739
      46A      0.184068    47A      0.198112    48A      0.213458
      49A      0.217370    50A      0.234241    51A      0.245357
      52A      0.258531    53A      0.261910    54A      0.262849
      55A      0.273291    56A      0.282882    57A      0.287742
      58A      0.295182    59A      0.311150    60A      0.347309
      61A      0.369413    62A      0.378000    63A      0.400105
      64A      0.422318    65A      0.438950    66A      0.454829
      67A      0.482945    68A      0.493379    69A      0.508384
      70A      0.564460    71A      0.595424    72A      0.599593
      73A      0.612974    74A      0.624443    75A      0.635641
      76A      0.649292    77A      0.658319    78A      0.669717
      79A      0.681875    80A      0.704567    81A      0.708723
      82A      0.732964    83A      0.740685    84A      0.757930
      85A      0.766465    86A      0.775520    87A      0.776247
      88A      0.788149    89A      0.799197    90A      0.816288
      91A      0.831534    92A      0.845835    93A      0.860396
      94A      0.873489    95A      0.876422    96A      0.882720
      97A      0.884504    98A      0.886983    99A      0.893440
     100A      0.895183   101A      0.895461   102A      0.904551
     103A      0.916472   104A      0.926566   105A      0.936572
     106A      0.940548   107A      0.943525   108A      0.946473
     109A      0.966451   110A      0.979883   111A      1.012099
     112A      1.024957   113A      1.056066   114A      1.077766
     115A      1.094263   116A      1.124175   117A      1.131955
     118A      1.139734   119A      1.161589   120A      1.167875
     121A      1.208629   122A      1.229384   123A      1.237324
     124A      1.267043   125A      1.285651   126A      1.301514
     127A      1.310257   128A      1.320143   129A      1.325873
     130A      1.354221   131A      1.361293   132A      1.378770
     133A      1.395734   134A      1.472854   135A      1.480920
     136A      1.491711   137A      1.505822   138A      1.536081
     139A      1.541790   140A      1.564591   141A      1.600238
     142A      1.615654   143A      1.653964   144A      1.671950
     145A      1.679712   146A      1.699045   147A      1.705306
     148A      1.716082   149A      1.737358   150A      1.745883
     151A      1.775959   152A      1.797942   153A      1.812312
     154A      1.837139   155A      1.854672   156A      1.871294
     157A      1.884234   158A      1.896944   159A      1.904513
     160A      1.907339   161A      1.908399   162A      1.917018
     163A      1.922845   164A      1.931034   165A      1.935848
     166A      1.950638   167A      1.957691   168A      1.964729
     169A      1.970924   170A      1.984026   171A      1.987890
     172A      2.005577   173A      2.019866   174A      2.025331
     175A      2.036032   176A      2.052305   177A      2.062995
     178A      2.065204   179A      2.073731   180A      2.081942
     181A      2.134447   182A      2.152311   183A      2.157419
     184A      2.163766   185A      2.200166   186A      2.208534
     187A      2.228361   188A      2.254908   189A      2.262736
     190A      2.280660   191A      2.298887   192A      2.305855
     193A      2.325523   194A      2.332728   195A      2.345607
     196A      2.388525   197A      2.424317   198A      2.449938
     199A      2.471404   200A      2.478500   201A      2.491347
     202A      2.520890   203A      2.532074   204A      2.542960
     205A      2.590735   206A      2.605965   207A      2.632565
     208A      2.641957   209A      2.665099   210A      2.749543
     211A      2.755402   212A      2.758398   213A      2.769155
     214A      2.776303   215A      2.785203   216A      2.805186
     217A      2.807926   218A      2.834678   219A      2.905810
     220A      2.932054   221A      2.944901   222A      2.957106
     223A      2.970751   224A      3.002820   225A      3.084594
     226A      3.090841   227A      3.113201   228A      3.245730
     229A      3.277450   230A      3.350241   231A      3.563191
     232A      3.675651   233A      3.962261   234A      4.196003

    Final Occupation by Irrep:
              A
    DOCC [    42 ]

  @RHF Final Energy:  -462.88462168848048

   => Energetics <=

    Nuclear Repulsion Energy =            580.9672193248044323
    One-Electron Energy =               -1779.3258530383372999
    Two-Electron Energy =                 735.4740120250525024
    Total Energy =                       -462.8846216884804790

Computation Completed

Properties will be evaluated at   0.000000,   0.000000,   0.000000 [a0]

Properties computed using the SCF density matrix

  Nuclear Dipole Moment: [e a0]
     X:    -8.7710      Y:    -5.3387      Z:     9.1480

  Electronic Dipole Moment: [e a0]
     X:     8.7598      Y:     4.8153      Z:    -9.0310

  Dipole Moment: [e a0]
     X:    -0.0113      Y:    -0.5234      Z:     0.1170     Total:     0.5365

  Dipole Moment: [D]
     X:    -0.0286      Y:    -1.3304      Z:     0.2974     Total:     1.3635

*** tstop() called on ds3 at Mon Apr 27 21:22:12 2020
Module time:
	user time   =     143.44 seconds =       2.39 minutes
	system time =      57.65 seconds =       0.96 minutes
	total time  =        193 seconds =       3.22 minutes
Total time:
	user time   =     143.44 seconds =       2.39 minutes
	system time =      57.65 seconds =       0.96 minutes
	total time  =        193 seconds =       3.22 minutes
                                     G D M A

                                 by Anthony Stone

                           version 2.2.06, 22 June 2011

               Distributed Multipoles from Gaussian wavefunctions

Starting at 21:22:12 on 27 Apr 2020

Using SCF density matrix from file ./SSI/SSI-101LEU-125TYR-1-dimer.test.5951.fchk

                         Distributed Multipole Analysis

Standard DMA

Positions and radii in angstrom
Multipole moments in atomic units, ea_0^k for rank k

C          x = -1.572548  y =  0.153221  z =  2.655457 angstrom
           Maximum rank =  0   Radius =  0.650 angstrom
                   Q00  =  -0.106935

C          x = -1.182548  y =  0.170221  z =  4.131457 angstrom
           Maximum rank =  0   Radius =  0.650 angstrom
                   Q00  =  -0.232356

C          x = -2.898548  y = -0.474779  z =  2.200457 angstrom
           Maximum rank =  0   Radius =  0.650 angstrom
                   Q00  =  -0.239254

H          x = -1.537548  y =  1.166221  z =  2.257457 angstrom
           Maximum rank =  0   Radius =  0.325 angstrom
                   Q00  =   0.047286

H          x = -0.812548  y = -0.401779  z =  2.132457 angstrom
           Maximum rank =  0   Radius =  0.325 angstrom
                   Q00  =   0.031915

H          x = -1.254548  y = -0.843779  z =  4.523457 angstrom
           Maximum rank =  0   Radius =  0.325 angstrom
                   Q00  =   0.077263

H          x = -3.663548  y = -0.257779  z =  2.944457 angstrom
           Maximum rank =  0   Radius =  0.325 angstrom
                   Q00  =   0.073667

H          x = -1.869998  y =  0.809591  z =  4.704707 angstrom
           Maximum rank =  0   Radius =  0.325 angstrom
                   Q00  =   0.087223

H          x = -0.135658  y =  0.489401  z =  4.241697 angstrom
           Maximum rank =  0   Radius =  0.325 angstrom
                   Q00  =   0.075511

H          x = -3.272188  y = -0.122409  z =  1.227715 angstrom
           Maximum rank =  0   Radius =  0.325 angstrom
                   Q00  =   0.097057

H          x = -2.767328  y = -1.564889  z =  2.133746 angstrom
           Maximum rank =  0   Radius =  0.325 angstrom
                   Q00  =   0.079283

C          x =  0.656452  y = -1.897779  z = -3.435543 angstrom
           Maximum rank =  0   Radius =  0.650 angstrom
                   Q00  =  -0.194900

C          x =  0.795452  y = -0.444779  z =  0.054457 angstrom
           Maximum rank =  0   Radius =  0.650 angstrom
                   Q00  =  -0.166035

C          x =  0.761452  y = -1.360779  z = -0.997543 angstrom
           Maximum rank =  0   Radius =  0.650 angstrom
                   Q00  =  -0.065318

C          x =  0.808452  y =  0.922221  z = -0.199543 angstrom
           Maximum rank =  0   Radius =  0.650 angstrom
                   Q00  =   0.318567

C          x =  0.769452  y = -0.901779  z = -2.305543 angstrom
           Maximum rank =  0   Radius =  0.650 angstrom
                   Q00  =  -0.128974

C          x =  0.790452  y =  1.402221  z = -1.503543 angstrom
           Maximum rank =  0   Radius =  0.650 angstrom
                   Q00  =  -0.104926

C          x =  0.800452  y =  0.482221  z = -2.543543 angstrom
           Maximum rank =  0   Radius =  0.650 angstrom
                   Q00  =   0.043017

O          x =  0.793452  y =  1.822221  z =  0.843457 angstrom
           Maximum rank =  0   Radius =  0.650 angstrom
                   Q00  =  -0.689585

H          x =  0.846452  y = -0.811779  z =  1.061457 angstrom
           Maximum rank =  0   Radius =  0.325 angstrom
                   Q00  =   0.071143

H          x =  0.744452  y = -2.422779  z = -0.784543 angstrom
           Maximum rank =  0   Radius =  0.325 angstrom
                   Q00  =   0.070144

H          x =  0.835452  y =  1.379221  z =  1.708457 angstrom
           Maximum rank =  0   Radius =  0.325 angstrom
                   Q00  =   0.420044

H          x =  0.797452  y =  2.465221  z = -1.697543 angstrom
           Maximum rank =  0   Radius =  0.325 angstrom
                   Q00  =   0.083441

H          x =  0.995452  y = -2.877779  z = -3.094543 angstrom
           Maximum rank =  0   Radius =  0.325 angstrom
                   Q00  =   0.094643

H          x =  1.303452  y = -1.585779  z = -4.256543 angstrom
           Maximum rank =  0   Radius =  0.325 angstrom
                   Q00  =   0.096711

H          x =  0.812452  y =  0.855221  z = -3.559543 angstrom
           Maximum rank =  0   Radius =  0.325 angstrom
                   Q00  =   0.061679

H          x = -0.381938  y = -1.980279  z = -3.789021 angstrom
           Maximum rank =  0   Radius =  0.325 angstrom
                   Q00  =   0.099688

Total multipoles referred to origin at
           x =   0.000000,  y =    0.000000,  z =    0.000000 angstrom
                   Q00  =  -0.000000

Finished at 21:22:12 on 27 Apr 2020

  DMA results are available in the Python driver through the
	  variable('DMA DISTRIBUTED MULTIPOLES')
  and
	  variable('DMA TOTAL MULTIPOLES')
  commands.

    Psi4 stopped on: Monday, 27 April 2020 09:22PM
    Psi4 wall time for execution: 0:03:13.45

*** Psi4 exiting successfully. Buy a developer a beer!
