                               Psi4 1.3.2 release

  ==> Input File <==

--------------------------------------------------------------------------
import numpy as np
set {scf_type pk
basis cc-pvdz
d_convergence 10
gdma_switch   0
gdma_limit    0
gdma_origin   [ 0.0,  0.0,  0.0 ]
}
molecule test {
    units Angstrom
    0 1
    --
    0 1
    C                0.967926801593335     0.798625522708472    -3.442143136394600
    C               -0.985073198406665    -0.183374477291528     0.262856863605400
    C               -1.317073198406665     0.977625522708472    -0.409143136394600
    C               -0.032073198406665    -1.039374477291528    -0.262143136394600
    C               -0.687073198406665     1.305625522708472    -1.608143136394600
    C                0.586926801593335    -0.729374477291528    -1.474143136394600
    C                0.256926801593335     0.441625522708472    -2.165143136394601
    H               -1.471073198406665    -0.419374477291528     1.198856863605400
    H               -2.049073198406665     1.645625522708472     0.018856863605400
    H                0.236926801593335    -1.938374477291528     0.273856863605400
    H               -0.939073198406665     2.230625522708472    -2.105143136394600
    H                1.329926801593335    -1.405374477291528    -1.873143136394600
    H                1.880926801593335     0.218625522708472    -3.493143136394600
    H                1.163926801593335     1.867625522708472    -3.400143136394600
    H                0.411122801593335     0.608674522708472    -4.371599136394601
    C                0.641926801593335    -0.711374477291528     3.353856863605400
    C                0.281926801593335    -0.730374477291528     4.836856863605400
    H                1.703926801593335    -0.500374477291528     3.238856863605400
    H                0.419926801593335    -1.674374477291528     2.898856863605400
    H                0.071926801593335     0.067625522708472     2.850856863605400
    H                0.968926801593335    -1.419374477291528     5.325856863605400
    H               -0.746473198406665    -1.096890477291528     4.971245963605400
    H                0.419445801593335     0.271856522708472     5.268853163605400

}
e, wfn = energy('scf', return_wfn=True)
gdma(wfn)
dmavals = variable('DMA DISTRIBUTED MULTIPOLES')
charges = np.array(dmavals)
print(charges)
np.save('SSI-112PHE-121LEU-1-dimer.npy', np.array(charges))--------------------------------------------------------------------------

*** tstart() called on ds3
*** at Mon Apr 27 22:48:15 2020

   => Loading Basis Set <=

    Name: CC-PVDZ
    Role: ORBITAL
    Keyword: BASIS
    atoms 1-7, 16-17  entry C          line   138 file /theoryfs2/ds/metcalf/miniconda2/envs/tf2gpu/share/psi4/basis/cc-pvdz.gbs
    atoms 8-15, 18-23 entry H          line    22 file /theoryfs2/ds/metcalf/miniconda2/envs/tf2gpu/share/psi4/basis/cc-pvdz.gbs

         ---------------------------------------------------------
                                   SCF
               by Justin Turney, Rob Parrish, Andy Simmonett
                          and Daniel G. A. Smith
                              RHF Reference
                        1 Threads,    500 MiB Core
         ---------------------------------------------------------

  ==> Geometry <==

    Molecular point group: c1
    Full point group: C1

    Geometry (in Angstrom), charge = 0, multiplicity = 1:

       Center              X                  Y                   Z               Mass
    ------------   -----------------  -----------------  -----------------  -----------------
         C            0.967926801593     0.798625522708    -3.442143136395    12.000000000000
         C           -0.985073198407    -0.183374477292     0.262856863605    12.000000000000
         C           -1.317073198407     0.977625522708    -0.409143136395    12.000000000000
         C           -0.032073198407    -1.039374477292    -0.262143136395    12.000000000000
         C           -0.687073198407     1.305625522708    -1.608143136395    12.000000000000
         C            0.586926801593    -0.729374477292    -1.474143136395    12.000000000000
         C            0.256926801593     0.441625522708    -2.165143136395    12.000000000000
         H           -1.471073198407    -0.419374477292     1.198856863605     1.007825032230
         H           -2.049073198407     1.645625522708     0.018856863605     1.007825032230
         H            0.236926801593    -1.938374477292     0.273856863605     1.007825032230
         H           -0.939073198407     2.230625522708    -2.105143136395     1.007825032230
         H            1.329926801593    -1.405374477292    -1.873143136395     1.007825032230
         H            1.880926801593     0.218625522708    -3.493143136395     1.007825032230
         H            1.163926801593     1.867625522708    -3.400143136395     1.007825032230
         H            0.411122801593     0.608674522708    -4.371599136395     1.007825032230
         C            0.641926801593    -0.711374477292     3.353856863605    12.000000000000
         C            0.281926801593    -0.730374477292     4.836856863605    12.000000000000
         H            1.703926801593    -0.500374477292     3.238856863605     1.007825032230
         H            0.419926801593    -1.674374477292     2.898856863605     1.007825032230
         H            0.071926801593     0.067625522708     2.850856863605     1.007825032230
         H            0.968926801593    -1.419374477292     5.325856863605     1.007825032230
         H           -0.746473198407    -1.096890477292     4.971245963605     1.007825032230
         H            0.419445801593     0.271856522708     5.268853163605     1.007825032230

  Running in c1 symmetry.

  Rotational constants: A =      0.11717  B =      0.01855  C =      0.01729 [cm^-1]
  Rotational constants: A =   3512.60759  B =    556.09103  C =    518.39190 [MHz]
  Nuclear repulsion =  400.945937372207368

  Charge       = 0
  Multiplicity = 1
  Electrons    = 68
  Nalpha       = 34
  Nbeta        = 34

  ==> Algorithm <==

  SCF Algorithm Type is PK.
  DIIS enabled.
  MOM disabled.
  Fractional occupation disabled.
  Guess Type is SAD.
  Energy threshold   = 1.00e-06
  Density threshold  = 1.00e-10
  Integral threshold = 0.00e+00

  ==> Primary Basis <==

  Basis Set: CC-PVDZ
    Blend: CC-PVDZ
    Number of shells: 96
    Number of basis function: 196
    Number of Cartesian functions: 205
    Spherical Harmonics?: true
    Max angular momentum: 2

  ==> Pre-Iterations <==

   -------------------------------------------------------
    Irrep   Nso     Nmo     Nalpha   Nbeta   Ndocc  Nsocc
   -------------------------------------------------------
     A        196     196       0       0       0       0
   -------------------------------------------------------
    Total     196     196      34      34      34       0
   -------------------------------------------------------

  ==> Integral Setup <==

  Using integral reordering PK algorithm.
  Sizing the integral batches needed.
  Building batch lookup table.
   Calculation information:
      Number of atoms:                  23
      Number of AO shells:              96
      Number of primitives:            268
      Number of atomic orbitals:       205
      Number of basis functions:       196

      Integral cutoff                 1.00e-12
      Number of threads:                 1

	Batch   1 pq = [       0,    9405] index = [             0,44231715] size =     44231715
	Batch   2 pq = [    9405,   13301] index = [      44231715,88464951] size =     44233236
	Batch   3 pq = [   13301,   16290] index = [      88464951,132690195] size =     44225244
	Batch   4 pq = [   16290,   18810] index = [     132690195,176917455] size =     44227260
	Batch   5 pq = [   18810,   19306] index = [     176917455,186370471] size =      9453016
  Task number: 17
  Buffer size: 11059200
  Buffer per thread: 2
  We computed 8603850 shell quartets total.
  Whereas there are 10841496 unique shell quartets.

  ==> DiskJK: Disk-Based J/K Matrices <==

    J tasked:                  Yes
    K tasked:                  Yes
    wK tasked:                  No
    Memory [MiB]:              375
    Schwarz Cutoff:          1E-12

    OpenMP threads:              1

  Minimum eigenvalue in the overlap matrix is 3.1080536377E-04.
  Using Symmetric Orthogonalization.

  SCF Guess: Superposition of Atomic Densities via on-the-fly atomic UHF.

  ==> Iterations <==

                        Total Energy        Delta E     RMS |[F,P]|

   @RHF iter SAD:  -347.91138614848876   -3.47911e+02   0.00000e+00
   @RHF iter   1:  -348.76286168859627   -8.51476e-01   2.90508e-03 DIIS
   @RHF iter   2:  -348.95705811065267   -1.94196e-01   1.19871e-03 DIIS
   @RHF iter   3:  -348.98716467099183   -3.01066e-02   2.58297e-04 DIIS
   @RHF iter   4:  -348.98965502016080   -2.49035e-03   4.94677e-05 DIIS
   @RHF iter   5:  -348.98972293054720   -6.79104e-05   1.62451e-05 DIIS
   @RHF iter   6:  -348.98972960938704   -6.67884e-06   4.41675e-06 DIIS
   @RHF iter   7:  -348.98973017532978   -5.65943e-07   1.38279e-06 DIIS
   @RHF iter   8:  -348.98973023558608   -6.02563e-08   3.49128e-07 DIIS
   @RHF iter   9:  -348.98973024398600   -8.39992e-09   1.65462e-07 DIIS
   @RHF iter  10:  -348.98973024605243   -2.06643e-09   7.79349e-08 DIIS
   @RHF iter  11:  -348.98973024679731   -7.44876e-10   2.76321e-08 DIIS
   @RHF iter  12:  -348.98973024688070   -8.33893e-11   1.03757e-08 DIIS
   @RHF iter  13:  -348.98973024688928   -8.58336e-12   3.70771e-09 DIIS
   @RHF iter  14:  -348.98973024688712    2.16005e-12   6.93223e-10 DIIS
   @RHF iter  15:  -348.98973024688797   -8.52651e-13   2.17616e-10 DIIS
   @RHF iter  16:  -348.98973024688718    7.95808e-13   1.18192e-10 DIIS
   @RHF iter  17:  -348.98973024688746   -2.84217e-13   4.07872e-11 DIIS
  Energy and wave function converged.

  ==> Post-Iterations <==

    Orbital Energies [Eh]
    ---------------------

    Doubly Occupied:

       1A    -11.240696     2A    -11.233560     3A    -11.233125
       4A    -11.230510     5A    -11.229971     6A    -11.227961
       7A    -11.227460     8A    -11.217402     9A    -11.212817
      10A     -1.152182    11A     -1.045422    12A     -1.018050
      13A     -1.010062    14A     -0.931714    15A     -0.834242
      16A     -0.824702    17A     -0.793865    18A     -0.691061
      19A     -0.633184    20A     -0.629710    21A     -0.599350
      22A     -0.597627    23A     -0.581323    24A     -0.573180
      25A     -0.558594    26A     -0.541654    27A     -0.497454
      28A     -0.487698    29A     -0.486995    30A     -0.484554
      31A     -0.483666    32A     -0.474708    33A     -0.330687
      34A     -0.320967

    Virtual:

      35A      0.135376    36A      0.142363    37A      0.174703
      38A      0.192146    39A      0.208550    40A      0.213315
      41A      0.238013    42A      0.243827    43A      0.250415
      44A      0.262371    45A      0.265335    46A      0.279196
      47A      0.285790    48A      0.297146    49A      0.304302
      50A      0.330204    51A      0.369493    52A      0.375850
      53A      0.396644    54A      0.455486    55A      0.467719
      56A      0.481313    57A      0.496858    58A      0.565543
      59A      0.591606    60A      0.599447    61A      0.602451
      62A      0.615776    63A      0.629000    64A      0.671444
      65A      0.683290    66A      0.688987    67A      0.699988
      68A      0.720553    69A      0.729033    70A      0.740535
      71A      0.745348    72A      0.748410    73A      0.755991
      74A      0.764836    75A      0.778439    76A      0.814003
      77A      0.826115    78A      0.861924    79A      0.864503
      80A      0.872159    81A      0.877896    82A      0.892195
      83A      0.894627    84A      0.896678    85A      0.899922
      86A      0.914154    87A      0.918617    88A      0.925608
      89A      0.935766    90A      0.941932    91A      0.950158
      92A      0.967363    93A      0.976900    94A      1.000319
      95A      1.014656    96A      1.057081    97A      1.116645
      98A      1.127594    99A      1.142395   100A      1.145764
     101A      1.157706   102A      1.172848   103A      1.190202
     104A      1.230185   105A      1.243465   106A      1.251983
     107A      1.258313   108A      1.268762   109A      1.300431
     110A      1.312306   111A      1.325829   112A      1.332472
     113A      1.416074   114A      1.483321   115A      1.494677
     116A      1.507667   117A      1.520463   118A      1.549191
     119A      1.584553   120A      1.613466   121A      1.677388
     122A      1.683991   123A      1.690728   124A      1.699290
     125A      1.731877   126A      1.755620   127A      1.764447
     128A      1.788672   129A      1.810618   130A      1.860425
     131A      1.861017   132A      1.874067   133A      1.887765
     134A      1.902297   135A      1.912471   136A      1.915974
     137A      1.919068   138A      1.924672   139A      1.938297
     140A      1.944962   141A      1.951822   142A      1.959296
     143A      1.966303   144A      1.971455   145A      1.978452
     146A      1.994819   147A      2.002411   148A      2.021255
     149A      2.034500   150A      2.056814   151A      2.071238
     152A      2.101191   153A      2.114160   154A      2.147037
     155A      2.149099   156A      2.168433   157A      2.176571
     158A      2.183105   159A      2.202844   160A      2.246967
     161A      2.273269   162A      2.286088   163A      2.294121
     164A      2.303313   165A      2.314564   166A      2.329644
     167A      2.356245   168A      2.450997   169A      2.459022
     170A      2.475722   171A      2.479657   172A      2.513520
     173A      2.553848   174A      2.568629   175A      2.589554
     176A      2.617835   177A      2.740106   178A      2.756180
     179A      2.768318   180A      2.780374   181A      2.788604
     182A      2.803181   183A      2.812869   184A      2.841605
     185A      2.855849   186A      2.862072   187A      2.872000
     188A      2.951384   189A      2.976136   190A      2.985846
     191A      3.020111   192A      3.028836   193A      3.163755
     194A      3.203077   195A      3.303048   196A      3.973565

    Final Occupation by Irrep:
              A
    DOCC [    34 ]

  @RHF Final Energy:  -348.98973024688746

   => Energetics <=

    Nuclear Repulsion Energy =            400.9459373722073678
    One-Electron Energy =               -1264.5990285644345477
    Two-Electron Energy =                 514.6633609453397185
    Total Energy =                       -348.9897302468874614

Computation Completed

Properties will be evaluated at   0.000000,   0.000000,   0.000000 [a0]

Properties computed using the SCF density matrix

  Nuclear Dipole Moment: [e a0]
     X:     3.1886      Y:    -1.4470      Z:    10.1274

  Electronic Dipole Moment: [e a0]
     X:    -3.1066      Y:     1.4994      Z:   -10.2462

  Dipole Moment: [e a0]
     X:     0.0821      Y:     0.0525      Z:    -0.1188     Total:     0.1536

  Dipole Moment: [D]
     X:     0.2086      Y:     0.1334      Z:    -0.3020     Total:     0.3905

*** tstop() called on ds3 at Mon Apr 27 22:49:47 2020
Module time:
	user time   =      65.19 seconds =       1.09 minutes
	system time =      31.85 seconds =       0.53 minutes
	total time  =         92 seconds =       1.53 minutes
Total time:
	user time   =      65.19 seconds =       1.09 minutes
	system time =      31.85 seconds =       0.53 minutes
	total time  =         92 seconds =       1.53 minutes
                                     G D M A

                                 by Anthony Stone

                           version 2.2.06, 22 June 2011

               Distributed Multipoles from Gaussian wavefunctions

Starting at 22:49:47 on 27 Apr 2020

Using SCF density matrix from file ./SSI/SSI-112PHE-121LEU-1-dimer.test.7171.fchk

                         Distributed Multipole Analysis

Standard DMA

Positions and radii in angstrom
Multipole moments in atomic units, ea_0^k for rank k

C          x =  0.967927  y =  0.798626  z = -3.442143 angstrom
           Maximum rank =  0   Radius =  0.650 angstrom
                   Q00  =  -0.197800

C          x = -0.985073  y = -0.183374  z =  0.262857 angstrom
           Maximum rank =  0   Radius =  0.650 angstrom
                   Q00  =  -0.079082

C          x = -1.317073  y =  0.977626  z = -0.409143 angstrom
           Maximum rank =  0   Radius =  0.650 angstrom
                   Q00  =  -0.022746

C          x = -0.032073  y = -1.039374  z = -0.262143 angstrom
           Maximum rank =  0   Radius =  0.650 angstrom
                   Q00  =  -0.076993

C          x = -0.687073  y =  1.305626  z = -1.608143 angstrom
           Maximum rank =  0   Radius =  0.650 angstrom
                   Q00  =  -0.095519

C          x =  0.586927  y = -0.729374  z = -1.474143 angstrom
           Maximum rank =  0   Radius =  0.650 angstrom
                   Q00  =  -0.032569

C          x =  0.256927  y =  0.441626  z = -2.165143 angstrom
           Maximum rank =  0   Radius =  0.650 angstrom
                   Q00  =  -0.097005

H          x = -1.471073  y = -0.419374  z =  1.198857 angstrom
           Maximum rank =  0   Radius =  0.325 angstrom
                   Q00  =   0.060170

H          x = -2.049073  y =  1.645626  z =  0.018857 angstrom
           Maximum rank =  0   Radius =  0.325 angstrom
                   Q00  =   0.062463

H          x =  0.236927  y = -1.938374  z =  0.273857 angstrom
           Maximum rank =  0   Radius =  0.325 angstrom
                   Q00  =   0.065182

H          x = -0.939073  y =  2.230626  z = -2.105143 angstrom
           Maximum rank =  0   Radius =  0.325 angstrom
                   Q00  =   0.056337

H          x =  1.329927  y = -1.405374  z = -1.873143 angstrom
           Maximum rank =  0   Radius =  0.325 angstrom
                   Q00  =   0.057771

H          x =  1.880927  y =  0.218626  z = -3.493143 angstrom
           Maximum rank =  0   Radius =  0.325 angstrom
                   Q00  =   0.098551

H          x =  1.163927  y =  1.867626  z = -3.400143 angstrom
           Maximum rank =  0   Radius =  0.325 angstrom
                   Q00  =   0.097334

H          x =  0.411123  y =  0.608675  z = -4.371599 angstrom
           Maximum rank =  0   Radius =  0.325 angstrom
                   Q00  =   0.103069

C          x =  0.641927  y = -0.711374  z =  3.353857 angstrom
           Maximum rank =  0   Radius =  0.650 angstrom
                   Q00  =  -0.233126

C          x =  0.281927  y = -0.730374  z =  4.836857 angstrom
           Maximum rank =  0   Radius =  0.650 angstrom
                   Q00  =  -0.232248

H          x =  1.703927  y = -0.500374  z =  3.238857 angstrom
           Maximum rank =  0   Radius =  0.325 angstrom
                   Q00  =   0.080273

H          x =  0.419927  y = -1.674374  z =  2.898857 angstrom
           Maximum rank =  0   Radius =  0.325 angstrom
                   Q00  =   0.071773

H          x =  0.071927  y =  0.067626  z =  2.850857 angstrom
           Maximum rank =  0   Radius =  0.325 angstrom
                   Q00  =   0.081481

H          x =  0.968927  y = -1.419374  z =  5.325857 angstrom
           Maximum rank =  0   Radius =  0.325 angstrom
                   Q00  =   0.075677

H          x = -0.746473  y = -1.096890  z =  4.971246 angstrom
           Maximum rank =  0   Radius =  0.325 angstrom
                   Q00  =   0.077018

H          x =  0.419446  y =  0.271857  z =  5.268853 angstrom
           Maximum rank =  0   Radius =  0.325 angstrom
                   Q00  =   0.079987

Total multipoles referred to origin at
           x =   0.000000,  y =    0.000000,  z =    0.000000 angstrom
                   Q00  =  -0.000000

Finished at 22:49:47 on 27 Apr 2020

  DMA results are available in the Python driver through the
	  variable('DMA DISTRIBUTED MULTIPOLES')
  and
	  variable('DMA TOTAL MULTIPOLES')
  commands.

    Psi4 stopped on: Monday, 27 April 2020 10:49PM
    Psi4 wall time for execution: 0:01:32.72

*** Psi4 exiting successfully. Buy a developer a beer!
