                               Psi4 1.3.2 release

  ==> Input File <==

--------------------------------------------------------------------------
import numpy as np
set {scf_type pk
basis cc-pvdz
d_convergence 10
gdma_switch   0
gdma_limit    0
gdma_origin   [ 0.0,  0.0,  0.0 ]
}
molecule test {
    units Angstrom
    0 1
    --
    0 1
    C                0.295875634931385     2.922241813437901     0.582802793133670
    C               -0.404124365068615    -0.120758186562099    -1.589197206866330
    C               -1.802124365068615    -0.191758186562099    -1.554197206866330
    C                0.264875634931385     0.892241813437901    -0.891197206866330
    C               -0.447124365068615     1.839241813437901    -0.167197206866330
    C               -2.525124365068615     0.751241813437901    -0.828197206866330
    C               -1.847124365068615     1.768241813437901    -0.145197206866330
    H                0.158875634931385    -0.851758186562099    -2.152197206866330
    H               -2.317124365068616    -0.971758186562099    -2.098197206866330
    H                1.345875634931385     0.934241813437901    -0.920197206866330
    H               -3.604124365068615     0.710241813437901    -0.797197206866330
    H               -0.343124365068615     3.805241813437901     0.608802793133670
    H                1.187875634931385     3.203241813437901     0.024802793133670
    H               -2.418124365068616     2.509241813437901     0.394802793133670
    H                0.570695634931385     2.654541813437901     1.613732793133670
    C                1.490875634931385    -1.996758186562099     0.924802793133670
    C                0.947875634931385    -2.621758186562099     2.207802793133669
    O                2.848875634931385    -2.357758186562099     0.743802793133670
    H                0.898875634931385    -2.327758186562099     0.071802793133670
    H                1.424875634931385    -0.910758186562099     1.002802793133670
    H                0.827875634931385    -3.686758186562099     2.022802793133670
    H                3.311875634931384    -1.598758186562099     0.328802793133670
    H               -0.017564365068615    -2.167258186562099     2.474932793133669
    H                1.697825634931385    -2.486648186562099     3.001102793133669

}
e, wfn = energy('scf', return_wfn=True)
gdma(wfn)
dmavals = variable('DMA DISTRIBUTED MULTIPOLES')
charges = np.array(dmavals)
print(charges)
np.save('SSI-042PHE-056SER-1-dimer.npy', np.array(charges))--------------------------------------------------------------------------

*** tstart() called on ds3
*** at Sun Apr 26 20:04:24 2020

   => Loading Basis Set <=

    Name: CC-PVDZ
    Role: ORBITAL
    Keyword: BASIS
    atoms 1-7, 16-17  entry C          line   138 file /theoryfs2/ds/metcalf/miniconda2/envs/tf2gpu/share/psi4/basis/cc-pvdz.gbs
    atoms 8-15, 19-24 entry H          line    22 file /theoryfs2/ds/metcalf/miniconda2/envs/tf2gpu/share/psi4/basis/cc-pvdz.gbs
    atoms 18          entry O          line   198 file /theoryfs2/ds/metcalf/miniconda2/envs/tf2gpu/share/psi4/basis/cc-pvdz.gbs

         ---------------------------------------------------------
                                   SCF
               by Justin Turney, Rob Parrish, Andy Simmonett
                          and Daniel G. A. Smith
                              RHF Reference
                        1 Threads,    500 MiB Core
         ---------------------------------------------------------

  ==> Geometry <==

    Molecular point group: c1
    Full point group: C1

    Geometry (in Angstrom), charge = 0, multiplicity = 1:

       Center              X                  Y                   Z               Mass
    ------------   -----------------  -----------------  -----------------  -----------------
         C            0.295875634931     2.922241813438     0.582802793134    12.000000000000
         C           -0.404124365069    -0.120758186562    -1.589197206866    12.000000000000
         C           -1.802124365069    -0.191758186562    -1.554197206866    12.000000000000
         C            0.264875634931     0.892241813438    -0.891197206866    12.000000000000
         C           -0.447124365069     1.839241813438    -0.167197206866    12.000000000000
         C           -2.525124365069     0.751241813438    -0.828197206866    12.000000000000
         C           -1.847124365069     1.768241813438    -0.145197206866    12.000000000000
         H            0.158875634931    -0.851758186562    -2.152197206866     1.007825032230
         H           -2.317124365069    -0.971758186562    -2.098197206866     1.007825032230
         H            1.345875634931     0.934241813438    -0.920197206866     1.007825032230
         H           -3.604124365069     0.710241813438    -0.797197206866     1.007825032230
         H           -0.343124365069     3.805241813438     0.608802793134     1.007825032230
         H            1.187875634931     3.203241813438     0.024802793134     1.007825032230
         H           -2.418124365069     2.509241813438     0.394802793134     1.007825032230
         H            0.570695634931     2.654541813438     1.613732793134     1.007825032230
         C            1.490875634931    -1.996758186562     0.924802793134    12.000000000000
         C            0.947875634931    -2.621758186562     2.207802793134    12.000000000000
         O            2.848875634931    -2.357758186562     0.743802793134    15.994914619570
         H            0.898875634931    -2.327758186562     0.071802793134     1.007825032230
         H            1.424875634931    -0.910758186562     1.002802793134     1.007825032230
         H            0.827875634931    -3.686758186562     2.022802793134     1.007825032230
         H            3.311875634931    -1.598758186562     0.328802793134     1.007825032230
         H           -0.017564365069    -2.167258186562     2.474932793134     1.007825032230
         H            1.697825634931    -2.486648186562     3.001102793134     1.007825032230

  Running in c1 symmetry.

  Rotational constants: A =      0.05542  B =      0.01969  C =      0.01753 [cm^-1]
  Rotational constants: A =   1661.43309  B =    590.43429  C =    525.49803 [MHz]
  Nuclear repulsion =  487.162993864576379

  Charge       = 0
  Multiplicity = 1
  Electrons    = 76
  Nalpha       = 38
  Nbeta        = 38

  ==> Algorithm <==

  SCF Algorithm Type is PK.
  DIIS enabled.
  MOM disabled.
  Fractional occupation disabled.
  Guess Type is SAD.
  Energy threshold   = 1.00e-06
  Density threshold  = 1.00e-10
  Integral threshold = 0.00e+00

  ==> Primary Basis <==

  Basis Set: CC-PVDZ
    Blend: CC-PVDZ
    Number of shells: 102
    Number of basis function: 210
    Number of Cartesian functions: 220
    Spherical Harmonics?: true
    Max angular momentum: 2

  ==> Pre-Iterations <==

   -------------------------------------------------------
    Irrep   Nso     Nmo     Nalpha   Nbeta   Ndocc  Nsocc
   -------------------------------------------------------
     A        210     210       0       0       0       0
   -------------------------------------------------------
    Total     210     210      38      38      38       0
   -------------------------------------------------------

  ==> Integral Setup <==

  Using integral reordering PK algorithm.
  Sizing the integral batches needed.
  Building batch lookup table.
   Calculation information:
      Number of atoms:                  24
      Number of AO shells:             102
      Number of primitives:            290
      Number of atomic orbitals:       220
      Number of basis functions:       210

      Integral cutoff                 1.00e-12
      Number of threads:                 1

	Batch   1 pq = [       0,    9405] index = [             0,44231715] size =     44231715
	Batch   2 pq = [    9405,   13301] index = [      44231715,88464951] size =     44233236
	Batch   3 pq = [   13301,   16290] index = [      88464951,132690195] size =     44225244
	Batch   4 pq = [   16290,   18810] index = [     132690195,176917455] size =     44227260
	Batch   5 pq = [   18810,   21030] index = [     176917455,221140965] size =     44223510
	Batch   6 pq = [   21030,   22155] index = [     221140965,245433090] size =     24292125
  Task number: 23
  Buffer size: 11059200
  Buffer per thread: 2
  We computed 11952067 shell quartets total.
  Whereas there are 13799631 unique shell quartets.

  ==> DiskJK: Disk-Based J/K Matrices <==

    J tasked:                  Yes
    K tasked:                  Yes
    wK tasked:                  No
    Memory [MiB]:              375
    Schwarz Cutoff:          1E-12

    OpenMP threads:              1

  Minimum eigenvalue in the overlap matrix is 3.1785620256E-04.
  Using Symmetric Orthogonalization.

  SCF Guess: Superposition of Atomic Densities via on-the-fly atomic UHF.

  ==> Iterations <==

                        Total Energy        Delta E     RMS |[F,P]|

   @RHF iter SAD:  -422.52520259804089   -4.22525e+02   0.00000e+00
   @RHF iter   1:  -423.59951013097856   -1.07431e+00   2.94393e-03 DIIS
   @RHF iter   2:  -423.80710916315184   -2.07599e-01   1.32828e-03 DIIS
   @RHF iter   3:  -423.84294591802592   -3.58368e-02   2.81352e-04 DIIS
   @RHF iter   4:  -423.84573162235256   -2.78570e-03   8.51764e-05 DIIS
   @RHF iter   5:  -423.84590533941798   -1.73717e-04   1.72540e-05 DIIS
   @RHF iter   6:  -423.84591533882758   -9.99941e-06   4.63995e-06 DIIS
   @RHF iter   7:  -423.84591609533021   -7.56503e-07   1.66631e-06 DIIS
   @RHF iter   8:  -423.84591618790631   -9.25761e-08   4.72481e-07 DIIS
   @RHF iter   9:  -423.84591619888789   -1.09816e-08   1.86865e-07 DIIS
   @RHF iter  10:  -423.84591620062855   -1.74066e-09   5.39879e-08 DIIS
   @RHF iter  11:  -423.84591620096239   -3.33841e-10   2.34700e-08 DIIS
   @RHF iter  12:  -423.84591620103191   -6.95195e-11   1.26203e-08 DIIS
   @RHF iter  13:  -423.84591620105090   -1.89857e-11   5.23156e-09 DIIS
   @RHF iter  14:  -423.84591620105789   -6.99174e-12   1.66862e-09 DIIS
   @RHF iter  15:  -423.84591620105448    3.41061e-12   5.61891e-10 DIIS
   @RHF iter  16:  -423.84591620105630   -1.81899e-12   1.78588e-10 DIIS
   @RHF iter  17:  -423.84591620105641   -1.13687e-13   8.72779e-11 DIIS
  Energy and wave function converged.

  ==> Post-Iterations <==

    Orbital Energies [Eh]
    ---------------------

    Doubly Occupied:

       1A    -20.543360     2A    -11.265769     3A    -11.246922
       4A    -11.242339     5A    -11.241644     6A    -11.237750
       7A    -11.237414     8A    -11.236760     9A    -11.234636
      10A    -11.213438    11A     -1.343182    12A     -1.154944
      13A     -1.047607    14A     -1.014608    15A     -1.000098
      16A     -0.935504    17A     -0.829671    18A     -0.823774
      19A     -0.799764    20A     -0.695003    21A     -0.683856
      22A     -0.637392    23A     -0.633920    24A     -0.632102
      25A     -0.586935    26A     -0.582170    27A     -0.566675
      28A     -0.556313    29A     -0.538437    30A     -0.538323
      31A     -0.514248    32A     -0.492143    33A     -0.489990
      34A     -0.485694    35A     -0.464182    36A     -0.428138
      37A     -0.335254    38A     -0.327082

    Virtual:

      39A      0.126864    40A      0.134950    41A      0.159814
      42A      0.193794    43A      0.194348    44A      0.208143
      45A      0.222257    46A      0.239144    47A      0.247768
      48A      0.256089    49A      0.266591    50A      0.272880
      51A      0.282739    52A      0.285427    53A      0.296370
      54A      0.331926    55A      0.360486    56A      0.371333
      57A      0.389881    58A      0.400237    59A      0.446917
      60A      0.456500    61A      0.475041    62A      0.484208
      63A      0.556307    64A      0.581529    65A      0.606478
      66A      0.618501    67A      0.639534    68A      0.672641
      69A      0.677770    70A      0.683228    71A      0.696518
      72A      0.708279    73A      0.729761    74A      0.736012
      75A      0.740166    76A      0.745167    77A      0.751218
      78A      0.756454    79A      0.771286    80A      0.777048
      81A      0.808475    82A      0.822539    83A      0.841594
      84A      0.853931    85A      0.856321    86A      0.863338
      87A      0.871222    88A      0.888048    89A      0.893202
      90A      0.897497    91A      0.899722    92A      0.908406
      93A      0.918556    94A      0.924369    95A      0.934324
      96A      0.954815    97A      0.973218    98A      0.978400
      99A      0.994403   100A      1.007160   101A      1.047584
     102A      1.111507   103A      1.126766   104A      1.138273
     105A      1.144697   106A      1.148863   107A      1.156707
     108A      1.177208   109A      1.201328   110A      1.234034
     111A      1.237563   112A      1.246541   113A      1.249186
     114A      1.260396   115A      1.298856   116A      1.302657
     117A      1.310397   118A      1.324668   119A      1.333811
     120A      1.407972   121A      1.437505   122A      1.484220
     123A      1.491364   124A      1.515523   125A      1.523569
     126A      1.552386   127A      1.576836   128A      1.592468
     129A      1.657537   130A      1.676039   131A      1.683064
     132A      1.698493   133A      1.727366   134A      1.739515
     135A      1.750611   136A      1.775297   137A      1.789710
     138A      1.801100   139A      1.848312   140A      1.865762
     141A      1.877040   142A      1.889896   143A      1.890896
     144A      1.903068   145A      1.907855   146A      1.916402
     147A      1.923092   148A      1.929495   149A      1.944647
     150A      1.947359   151A      1.956545   152A      1.961333
     153A      1.983332   154A      1.988171   155A      1.998027
     156A      2.006767   157A      2.017060   158A      2.034301
     159A      2.056341   160A      2.059305   161A      2.101971
     162A      2.132702   163A      2.141084   164A      2.145432
     165A      2.150787   166A      2.166217   167A      2.173512
     168A      2.185723   169A      2.248291   170A      2.262406
     171A      2.268837   172A      2.284063   173A      2.291549
     174A      2.300779   175A      2.304707   176A      2.317713
     177A      2.334534   178A      2.449540   179A      2.464684
     180A      2.472126   181A      2.487697   182A      2.521753
     183A      2.531968   184A      2.549236   185A      2.574484
     186A      2.611259   187A      2.731337   188A      2.746192
     189A      2.760875   190A      2.766212   191A      2.776455
     192A      2.786800   193A      2.797827   194A      2.803648
     195A      2.843691   196A      2.864987   197A      2.901610
     198A      2.963831   199A      2.981199   200A      2.996864
     201A      3.016024   202A      3.139276   203A      3.185806
     204A      3.280182   205A      3.314460   206A      3.410835
     207A      3.470686   208A      3.620132   209A      3.944655
     210A      4.097592

    Final Occupation by Irrep:
              A
    DOCC [    38 ]

  @RHF Final Energy:  -423.84591620105641

   => Energetics <=

    Nuclear Repulsion Energy =            487.1629938645763787
    One-Electron Energy =               -1540.3437463526286137
    Two-Electron Energy =                 629.3348362869959374
    Total Energy =                       -423.8459162010564114

Computation Completed

Properties will be evaluated at   0.000000,   0.000000,   0.000000 [a0]

Properties computed using the SCF density matrix

  Nuclear Dipole Moment: [e a0]
     X:     2.5679      Y:    -1.1220      Z:     5.2315

  Electronic Dipole Moment: [e a0]
     X:    -2.8534      Y:     1.8817      Z:    -5.3766

  Dipole Moment: [e a0]
     X:    -0.2855      Y:     0.7597      Z:    -0.1451     Total:     0.8244

  Dipole Moment: [D]
     X:    -0.7256      Y:     1.9310      Z:    -0.3689     Total:     2.0955

*** tstop() called on ds3 at Sun Apr 26 20:06:21 2020
Module time:
	user time   =      83.82 seconds =       1.40 minutes
	system time =      37.92 seconds =       0.63 minutes
	total time  =        117 seconds =       1.95 minutes
Total time:
	user time   =      83.82 seconds =       1.40 minutes
	system time =      37.92 seconds =       0.63 minutes
	total time  =        117 seconds =       1.95 minutes
                                     G D M A

                                 by Anthony Stone

                           version 2.2.06, 22 June 2011

               Distributed Multipoles from Gaussian wavefunctions

Starting at 20:6:21 on 26 Apr 2020

Using SCF density matrix from file ./SSI/SSI-042PHE-056SER-1-dimer.test.10875.fchk

                         Distributed Multipole Analysis

Standard DMA

Positions and radii in angstrom
Multipole moments in atomic units, ea_0^k for rank k

C          x =  0.295876  y =  2.922242  z =  0.582803 angstrom
           Maximum rank =  0   Radius =  0.650 angstrom
                   Q00  =  -0.204238

C          x = -0.404124  y = -0.120758  z = -1.589197 angstrom
           Maximum rank =  0   Radius =  0.650 angstrom
                   Q00  =  -0.069388

C          x = -1.802124  y = -0.191758  z = -1.554197 angstrom
           Maximum rank =  0   Radius =  0.650 angstrom
                   Q00  =  -0.087556

C          x =  0.264876  y =  0.892242  z = -0.891197 angstrom
           Maximum rank =  0   Radius =  0.650 angstrom
                   Q00  =  -0.089952

C          x = -0.447124  y =  1.839242  z = -0.167197 angstrom
           Maximum rank =  0   Radius =  0.650 angstrom
                   Q00  =  -0.100895

C          x = -2.525124  y =  0.751242  z = -0.828197 angstrom
           Maximum rank =  0   Radius =  0.650 angstrom
                   Q00  =  -0.067427

C          x = -1.847124  y =  1.768242  z = -0.145197 angstrom
           Maximum rank =  0   Radius =  0.650 angstrom
                   Q00  =  -0.000459

H          x =  0.158876  y = -0.851758  z = -2.152197 angstrom
           Maximum rank =  0   Radius =  0.325 angstrom
                   Q00  =   0.069223

H          x = -2.317124  y = -0.971758  z = -2.098197 angstrom
           Maximum rank =  0   Radius =  0.325 angstrom
                   Q00  =   0.064937

H          x =  1.345876  y =  0.934242  z = -0.920197 angstrom
           Maximum rank =  0   Radius =  0.325 angstrom
                   Q00  =   0.051730

H          x = -3.604124  y =  0.710242  z = -0.797197 angstrom
           Maximum rank =  0   Radius =  0.325 angstrom
                   Q00  =   0.068585

H          x = -0.343124  y =  3.805242  z =  0.608803 angstrom
           Maximum rank =  0   Radius =  0.325 angstrom
                   Q00  =   0.098898

H          x =  1.187876  y =  3.203242  z =  0.024803 angstrom
           Maximum rank =  0   Radius =  0.325 angstrom
                   Q00  =   0.098709

H          x = -2.418124  y =  2.509242  z =  0.394803 angstrom
           Maximum rank =  0   Radius =  0.325 angstrom
                   Q00  =   0.059988

H          x =  0.570696  y =  2.654542  z =  1.613733 angstrom
           Maximum rank =  0   Radius =  0.325 angstrom
                   Q00  =   0.105931

C          x =  1.490876  y = -1.996758  z =  0.924803 angstrom
           Maximum rank =  0   Radius =  0.650 angstrom
                   Q00  =   0.105020

C          x =  0.947876  y = -2.621758  z =  2.207803 angstrom
           Maximum rank =  0   Radius =  0.650 angstrom
                   Q00  =  -0.240775

O          x =  2.848876  y = -2.357758  z =  0.743803 angstrom
           Maximum rank =  0   Radius =  0.650 angstrom
                   Q00  =  -0.609250

H          x =  0.898876  y = -2.327758  z =  0.071803 angstrom
           Maximum rank =  0   Radius =  0.325 angstrom
                   Q00  =   0.048212

H          x =  1.424876  y = -0.910758  z =  1.002803 angstrom
           Maximum rank =  0   Radius =  0.325 angstrom
                   Q00  =   0.039568

H          x =  0.827876  y = -3.686758  z =  2.022803 angstrom
           Maximum rank =  0   Radius =  0.325 angstrom
                   Q00  =   0.085855

H          x =  3.311876  y = -1.598758  z =  0.328803 angstrom
           Maximum rank =  0   Radius =  0.325 angstrom
                   Q00  =   0.398164

H          x = -0.017564  y = -2.167258  z =  2.474933 angstrom
           Maximum rank =  0   Radius =  0.325 angstrom
                   Q00  =   0.087095

H          x =  1.697826  y = -2.486648  z =  3.001103 angstrom
           Maximum rank =  0   Radius =  0.325 angstrom
                   Q00  =   0.088024

Total multipoles referred to origin at
           x =   0.000000,  y =    0.000000,  z =    0.000000 angstrom
                   Q00  =  -0.000000

Finished at 20:6:22 on 26 Apr 2020

  DMA results are available in the Python driver through the
	  variable('DMA DISTRIBUTED MULTIPOLES')
  and
	  variable('DMA TOTAL MULTIPOLES')
  commands.

    Psi4 stopped on: Sunday, 26 April 2020 08:06PM
    Psi4 wall time for execution: 0:01:57.39

*** Psi4 exiting successfully. Buy a developer a beer!
