                               Psi4 1.3.2 release

  ==> Input File <==

--------------------------------------------------------------------------
import numpy as np
set {scf_type pk
basis cc-pvdz
d_convergence 10
gdma_switch   0
gdma_limit    0
gdma_origin   [ 0.0,  0.0,  0.0 ]
}
molecule test {
    units Angstrom
    0 1
    --
    0 1
    C               -0.031423440783795     3.022448669330876     0.144365569587197
    C               -0.770423440783795    -0.567551330669124    -0.634634430412803
    C               -1.674423440783795    -0.484551330669124    -1.669634430412803
    C               -0.265423440783795     0.581448669330876    -0.037634430412803
    C               -0.619423440783795     1.821448669330876    -0.487634430412803
    C               -2.036423440783795     0.763448669330876    -2.146634430412803
    C               -1.479423440783795     1.925448669330876    -1.563634430412803
    H               -0.480423440783795    -1.540551330669124    -0.264634430412803
    H               -2.084423440783794    -1.379551330669124    -2.114634430412803
    H                0.409576559216205     0.491448669330876     0.799365569587197
    H               -2.742423440783794     0.835448669330876    -2.960634430412803
    H               -0.139423440783795     2.951448669330876     1.227365569587197
    H               -0.608423440783795     3.888448669330876    -0.179634430412803
    H               -1.756423440783795     2.899448669330876    -1.940634430412803
    H                1.027216559216205     3.174910669330875    -0.112604430412803
    C                1.670576559216205    -1.739551330669124     1.997365569587197
    C                1.987576559216205    -2.897551330669124     2.964365569587196
    C                2.371576559216205    -1.883551330669124     0.654365569587197
    H                0.594576559216205    -1.663551330669124     1.851365569587197
    H                2.016576559216205    -0.802551330669124     2.430365569587197
    H                3.051576559216205    -3.129551330669125     2.883365569587197
    H                1.947576559216205    -2.718551330669124     0.098365569587197
    H                2.240576559216205    -0.971551330669124     0.073365569587197
    H                3.437576559216205    -2.055551330669124     0.804365569587197
    H                1.766316559216205    -2.641175330669124     4.010935569587197
    H                1.407846559216205    -3.785957330669124     2.673435569587197

}
e, wfn = energy('scf', return_wfn=True)
gdma(wfn)
dmavals = variable('DMA DISTRIBUTED MULTIPOLES')
charges = np.array(dmavals)
print(charges)
np.save('SSI-071PHE-086ILE-1-dimer.npy', np.array(charges))--------------------------------------------------------------------------

*** tstart() called on ds3
*** at Tue Apr 28 05:34:28 2020

   => Loading Basis Set <=

    Name: CC-PVDZ
    Role: ORBITAL
    Keyword: BASIS
    atoms 1-7, 16-18  entry C          line   138 file /theoryfs2/ds/metcalf/miniconda2/envs/tf2gpu/share/psi4/basis/cc-pvdz.gbs
    atoms 8-15, 19-26 entry H          line    22 file /theoryfs2/ds/metcalf/miniconda2/envs/tf2gpu/share/psi4/basis/cc-pvdz.gbs

         ---------------------------------------------------------
                                   SCF
               by Justin Turney, Rob Parrish, Andy Simmonett
                          and Daniel G. A. Smith
                              RHF Reference
                        1 Threads,    500 MiB Core
         ---------------------------------------------------------

  ==> Geometry <==

    Molecular point group: c1
    Full point group: C1

    Geometry (in Angstrom), charge = 0, multiplicity = 1:

       Center              X                  Y                   Z               Mass
    ------------   -----------------  -----------------  -----------------  -----------------
         C           -0.031423440784     3.022448669331     0.144365569587    12.000000000000
         C           -0.770423440784    -0.567551330669    -0.634634430413    12.000000000000
         C           -1.674423440784    -0.484551330669    -1.669634430413    12.000000000000
         C           -0.265423440784     0.581448669331    -0.037634430413    12.000000000000
         C           -0.619423440784     1.821448669331    -0.487634430413    12.000000000000
         C           -2.036423440784     0.763448669331    -2.146634430413    12.000000000000
         C           -1.479423440784     1.925448669331    -1.563634430413    12.000000000000
         H           -0.480423440784    -1.540551330669    -0.264634430413     1.007825032230
         H           -2.084423440784    -1.379551330669    -2.114634430413     1.007825032230
         H            0.409576559216     0.491448669331     0.799365569587     1.007825032230
         H           -2.742423440784     0.835448669331    -2.960634430413     1.007825032230
         H           -0.139423440784     2.951448669331     1.227365569587     1.007825032230
         H           -0.608423440784     3.888448669331    -0.179634430413     1.007825032230
         H           -1.756423440784     2.899448669331    -1.940634430413     1.007825032230
         H            1.027216559216     3.174910669331    -0.112604430413     1.007825032230
         C            1.670576559216    -1.739551330669     1.997365569587    12.000000000000
         C            1.987576559216    -2.897551330669     2.964365569587    12.000000000000
         C            2.371576559216    -1.883551330669     0.654365569587    12.000000000000
         H            0.594576559216    -1.663551330669     1.851365569587     1.007825032230
         H            2.016576559216    -0.802551330669     2.430365569587     1.007825032230
         H            3.051576559216    -3.129551330669     2.883365569587     1.007825032230
         H            1.947576559216    -2.718551330669     0.098365569587     1.007825032230
         H            2.240576559216    -0.971551330669     0.073365569587     1.007825032230
         H            3.437576559216    -2.055551330669     0.804365569587     1.007825032230
         H            1.766316559216    -2.641175330669     4.010935569587     1.007825032230
         H            1.407846559216    -3.785957330669     2.673435569587     1.007825032230

  Running in c1 symmetry.

  Rotational constants: A =      0.07043  B =      0.01759  C =      0.01503 [cm^-1]
  Rotational constants: A =   2111.46492  B =    527.30304  C =    450.51864 [MHz]
  Nuclear repulsion =  486.394483260974823

  Charge       = 0
  Multiplicity = 1
  Electrons    = 76
  Nalpha       = 38
  Nbeta        = 38

  ==> Algorithm <==

  SCF Algorithm Type is PK.
  DIIS enabled.
  MOM disabled.
  Fractional occupation disabled.
  Guess Type is SAD.
  Energy threshold   = 1.00e-06
  Density threshold  = 1.00e-10
  Integral threshold = 0.00e+00

  ==> Primary Basis <==

  Basis Set: CC-PVDZ
    Blend: CC-PVDZ
    Number of shells: 108
    Number of basis function: 220
    Number of Cartesian functions: 230
    Spherical Harmonics?: true
    Max angular momentum: 2

  ==> Pre-Iterations <==

   -------------------------------------------------------
    Irrep   Nso     Nmo     Nalpha   Nbeta   Ndocc  Nsocc
   -------------------------------------------------------
     A        220     220       0       0       0       0
   -------------------------------------------------------
    Total     220     220      38      38      38       0
   -------------------------------------------------------

  ==> Integral Setup <==

  Using integral reordering PK algorithm.
  Sizing the integral batches needed.
  Building batch lookup table.
   Calculation information:
      Number of atoms:                  26
      Number of AO shells:             108
      Number of primitives:            300
      Number of atomic orbitals:       230
      Number of basis functions:       220

      Integral cutoff                 1.00e-12
      Number of threads:                 1

	Batch   1 pq = [       0,    9405] index = [             0,44231715] size =     44231715
	Batch   2 pq = [    9405,   13301] index = [      44231715,88464951] size =     44233236
	Batch   3 pq = [   13301,   16290] index = [      88464951,132690195] size =     44225244
	Batch   4 pq = [   16290,   18810] index = [     132690195,176917455] size =     44227260
	Batch   5 pq = [   18810,   21030] index = [     176917455,221140965] size =     44223510
	Batch   6 pq = [   21030,   23037] index = [     221140965,265363203] size =     44222238
	Batch   7 pq = [   23037,   24310] index = [     265363203,295500205] size =     30137002
  Task number: 27
  Buffer size: 11059200
  Buffer per thread: 2
  We computed 14627910 shell quartets total.
  Whereas there are 17325441 unique shell quartets.

  ==> DiskJK: Disk-Based J/K Matrices <==

    J tasked:                  Yes
    K tasked:                  Yes
    wK tasked:                  No
    Memory [MiB]:              375
    Schwarz Cutoff:          1E-12

    OpenMP threads:              1

  Minimum eigenvalue in the overlap matrix is 2.8609700696E-04.
  Using Symmetric Orthogonalization.

  SCF Guess: Superposition of Atomic Densities via on-the-fly atomic UHF.

  ==> Iterations <==

                        Total Energy        Delta E     RMS |[F,P]|

   @RHF iter SAD:  -387.05568886615100   -3.87056e+02   0.00000e+00
   @RHF iter   1:  -387.76409573969681   -7.08407e-01   2.77042e-03 DIIS
   @RHF iter   2:  -387.98619096357402   -2.22095e-01   1.16341e-03 DIIS
   @RHF iter   3:  -388.02181320148509   -3.56222e-02   2.54538e-04 DIIS
   @RHF iter   4:  -388.02473302339030   -2.91982e-03   6.07328e-05 DIIS
   @RHF iter   5:  -388.02484648235946   -1.13459e-04   1.91711e-05 DIIS
   @RHF iter   6:  -388.02485798261290   -1.15003e-05   5.11885e-06 DIIS
   @RHF iter   7:  -388.02485893653824   -9.53925e-07   1.09627e-06 DIIS
   @RHF iter   8:  -388.02485899295647   -5.64182e-08   2.84837e-07 DIIS
   @RHF iter   9:  -388.02485899979433   -6.83787e-09   1.19985e-07 DIIS
   @RHF iter  10:  -388.02485900122389   -1.42956e-09   5.92700e-08 DIIS
   @RHF iter  11:  -388.02485900172263   -4.98744e-10   2.50369e-08 DIIS
   @RHF iter  12:  -388.02485900182467   -1.02034e-10   1.03631e-08 DIIS
   @RHF iter  13:  -388.02485900183365   -8.98126e-12   3.66704e-09 DIIS
   @RHF iter  14:  -388.02485900183689   -3.24007e-12   8.97094e-10 DIIS
   @RHF iter  15:  -388.02485900183632    5.68434e-13   2.61164e-10 DIIS
   @RHF iter  16:  -388.02485900183837   -2.04636e-12   7.76594e-11 DIIS
  Energy and wave function converged.

  ==> Post-Iterations <==

    Orbital Energies [Eh]
    ---------------------

    Doubly Occupied:

       1A    -11.235933     2A    -11.232699     3A    -11.231580
       4A    -11.230281     5A    -11.227810     6A    -11.226252
       7A    -11.223675     8A    -11.221361     9A    -11.219664
      10A    -11.214342    11A     -1.158178    12A     -1.054920
      13A     -1.052422    14A     -1.008218    15A     -0.933512
      16A     -0.924893    17A     -0.829936    18A     -0.800247
      19A     -0.792274    20A     -0.692828    21A     -0.634510
      22A     -0.632786    23A     -0.625415    24A     -0.599279
      25A     -0.580777    26A     -0.576223    27A     -0.568308
      28A     -0.546358    29A     -0.533398    30A     -0.532233
      31A     -0.489432    32A     -0.484395    33A     -0.481912
      34A     -0.475482    35A     -0.471453    36A     -0.466269
      37A     -0.328018    38A     -0.326666

    Virtual:

      39A      0.134159    40A      0.144090    41A      0.175063
      42A      0.191753    43A      0.201597    44A      0.222167
      45A      0.225481    46A      0.233961    47A      0.242033
      48A      0.255511    49A      0.261393    50A      0.269788
      51A      0.286256    52A      0.289907    53A      0.299937
      54A      0.304073    55A      0.321101    56A      0.333720
      57A      0.370726    58A      0.377433    59A      0.396583
      60A      0.426933    61A      0.461326    62A      0.465227
      63A      0.481252    64A      0.508062    65A      0.561949
      66A      0.572057    67A      0.595220    68A      0.608776
      69A      0.621941    70A      0.636951    71A      0.646089
      72A      0.686064    73A      0.695252    74A      0.708210
      75A      0.720708    76A      0.726187    77A      0.744195
      78A      0.744706    79A      0.746798    80A      0.761441
      81A      0.777927    82A      0.781770    83A      0.787514
      84A      0.805205    85A      0.825282    86A      0.835201
      87A      0.854503    88A      0.867620    89A      0.872996
      90A      0.876772    91A      0.882789    92A      0.893053
      93A      0.894187    94A      0.898925    95A      0.906631
      96A      0.907248    97A      0.923160    98A      0.924161
      99A      0.934618   100A      0.938364   101A      0.942614
     102A      0.959933   103A      0.976480   104A      0.989687
     105A      1.017871   106A      1.027681   107A      1.033320
     108A      1.062266   109A      1.114410   110A      1.124631
     111A      1.135488   112A      1.157957   113A      1.166916
     114A      1.170019   115A      1.197612   116A      1.206951
     117A      1.246848   118A      1.254877   119A      1.259933
     120A      1.289402   121A      1.305822   122A      1.325736
     123A      1.329588   124A      1.343138   125A      1.392703
     126A      1.421926   127A      1.471205   128A      1.491136
     129A      1.524057   130A      1.542345   131A      1.549836
     132A      1.562722   133A      1.627089   134A      1.638650
     135A      1.662152   136A      1.681065   137A      1.695592
     138A      1.708370   139A      1.714458   140A      1.738999
     141A      1.754347   142A      1.767079   143A      1.797990
     144A      1.817199   145A      1.851904   146A      1.865626
     147A      1.875735   148A      1.884821   149A      1.897606
     150A      1.905032   151A      1.910699   152A      1.916262
     153A      1.922460   154A      1.931201   155A      1.941718
     156A      1.945869   157A      1.951594   158A      1.956941
     159A      1.964681   160A      1.983191   161A      1.991866
     162A      2.000895   163A      2.007097   164A      2.016444
     165A      2.031247   166A      2.039002   167A      2.054517
     168A      2.063976   169A      2.079833   170A      2.088729
     171A      2.115943   172A      2.130896   173A      2.135630
     174A      2.160864   175A      2.173964   176A      2.186387
     177A      2.210834   178A      2.231879   179A      2.262054
     180A      2.280652   181A      2.292552   182A      2.300288
     183A      2.313181   184A      2.320960   185A      2.338487
     186A      2.351498   187A      2.364221   188A      2.392436
     189A      2.463147   190A      2.471259   191A      2.503233
     192A      2.533250   193A      2.543877   194A      2.552798
     195A      2.575851   196A      2.615630   197A      2.644366
     198A      2.661216   199A      2.746438   200A      2.754863
     201A      2.767123   202A      2.772518   203A      2.780035
     204A      2.796388   205A      2.806081   206A      2.832075
     207A      2.846397   208A      2.856474   209A      2.889467
     210A      2.910216   211A      2.956134   212A      2.976476
     213A      2.995445   214A      3.031285   215A      3.041664
     216A      3.064608   217A      3.172500   218A      3.227685
     219A      3.323000   220A      3.997639

    Final Occupation by Irrep:
              A
    DOCC [    38 ]

  @RHF Final Energy:  -388.02485900183837

   => Energetics <=

    Nuclear Repulsion Energy =            486.3944832609748232
    One-Electron Energy =               -1487.1108081906475036
    Two-Electron Energy =                 612.6914659278344288
    Total Energy =                       -388.0248590018383084

Computation Completed

Properties will be evaluated at   0.000000,   0.000000,   0.000000 [a0]

Properties computed using the SCF density matrix

  Nuclear Dipole Moment: [e a0]
     X:     9.4571      Y:    -6.0442      Z:     8.6993

  Electronic Dipole Moment: [e a0]
     X:    -9.4172      Y:     6.1575      Z:    -8.6460

  Dipole Moment: [e a0]
     X:     0.0399      Y:     0.1132      Z:     0.0532     Total:     0.1313

  Dipole Moment: [D]
     X:     0.1013      Y:     0.2878      Z:     0.1353     Total:     0.3338

*** tstop() called on ds3 at Tue Apr 28 05:36:38 2020
Module time:
	user time   =      94.78 seconds =       1.58 minutes
	system time =      40.28 seconds =       0.67 minutes
	total time  =        130 seconds =       2.17 minutes
Total time:
	user time   =      94.78 seconds =       1.58 minutes
	system time =      40.28 seconds =       0.67 minutes
	total time  =        130 seconds =       2.17 minutes
                                     G D M A

                                 by Anthony Stone

                           version 2.2.06, 22 June 2011

               Distributed Multipoles from Gaussian wavefunctions

Starting at 5:36:38 on 28 Apr 2020

Using SCF density matrix from file ./SSI/SSI-071PHE-086ILE-1-dimer.test.31374.fchk

                         Distributed Multipole Analysis

Standard DMA

Positions and radii in angstrom
Multipole moments in atomic units, ea_0^k for rank k

C          x = -0.031423  y =  3.022449  z =  0.144366 angstrom
           Maximum rank =  0   Radius =  0.650 angstrom
                   Q00  =  -0.206949

C          x = -0.770423  y = -0.567551  z = -0.634634 angstrom
           Maximum rank =  0   Radius =  0.650 angstrom
                   Q00  =   0.010502

C          x = -1.674423  y = -0.484551  z = -1.669634 angstrom
           Maximum rank =  0   Radius =  0.650 angstrom
                   Q00  =  -0.084288

C          x = -0.265423  y =  0.581449  z = -0.037634 angstrom
           Maximum rank =  0   Radius =  0.650 angstrom
                   Q00  =  -0.056217

C          x = -0.619423  y =  1.821449  z = -0.487634 angstrom
           Maximum rank =  0   Radius =  0.650 angstrom
                   Q00  =  -0.078022

C          x = -2.036423  y =  0.763449  z = -2.146634 angstrom
           Maximum rank =  0   Radius =  0.650 angstrom
                   Q00  =  -0.082124

C          x = -1.479423  y =  1.925449  z = -1.563634 angstrom
           Maximum rank =  0   Radius =  0.650 angstrom
                   Q00  =  -0.100352

H          x = -0.480423  y = -1.540551  z = -0.264634 angstrom
           Maximum rank =  0   Radius =  0.325 angstrom
                   Q00  =   0.060606

H          x = -2.084423  y = -1.379551  z = -2.114634 angstrom
           Maximum rank =  0   Radius =  0.325 angstrom
                   Q00  =   0.059528

H          x =  0.409577  y =  0.491449  z =  0.799366 angstrom
           Maximum rank =  0   Radius =  0.325 angstrom
                   Q00  =   0.051984

H          x = -2.742423  y =  0.835449  z = -2.960634 angstrom
           Maximum rank =  0   Radius =  0.325 angstrom
                   Q00  =   0.066423

H          x = -0.139423  y =  2.951449  z =  1.227366 angstrom
           Maximum rank =  0   Radius =  0.325 angstrom
                   Q00  =   0.098970

H          x = -0.608423  y =  3.888449  z = -0.179634 angstrom
           Maximum rank =  0   Radius =  0.325 angstrom
                   Q00  =   0.094386

H          x = -1.756423  y =  2.899449  z = -1.940634 angstrom
           Maximum rank =  0   Radius =  0.325 angstrom
                   Q00  =   0.059560

H          x =  1.027217  y =  3.174911  z = -0.112604 angstrom
           Maximum rank =  0   Radius =  0.325 angstrom
                   Q00  =   0.104172

C          x =  1.670577  y = -1.739551  z =  1.997366 angstrom
           Maximum rank =  0   Radius =  0.650 angstrom
                   Q00  =  -0.098309

C          x =  1.987577  y = -2.897551  z =  2.964366 angstrom
           Maximum rank =  0   Radius =  0.650 angstrom
                   Q00  =  -0.232191

C          x =  2.371577  y = -1.883551  z =  0.654366 angstrom
           Maximum rank =  0   Radius =  0.650 angstrom
                   Q00  =  -0.241267

H          x =  0.594577  y = -1.663551  z =  1.851366 angstrom
           Maximum rank =  0   Radius =  0.325 angstrom
                   Q00  =   0.046946

H          x =  2.016577  y = -0.802551  z =  2.430366 angstrom
           Maximum rank =  0   Radius =  0.325 angstrom
                   Q00  =   0.041743

H          x =  3.051577  y = -3.129551  z =  2.883366 angstrom
           Maximum rank =  0   Radius =  0.325 angstrom
                   Q00  =   0.076327

H          x =  1.947577  y = -2.718551  z =  0.098366 angstrom
           Maximum rank =  0   Radius =  0.325 angstrom
                   Q00  =   0.073738

H          x =  2.240577  y = -0.971551  z =  0.073366 angstrom
           Maximum rank =  0   Radius =  0.325 angstrom
                   Q00  =   0.089417

H          x =  3.437577  y = -2.055551  z =  0.804366 angstrom
           Maximum rank =  0   Radius =  0.325 angstrom
                   Q00  =   0.078530

H          x =  1.766317  y = -2.641175  z =  4.010936 angstrom
           Maximum rank =  0   Radius =  0.325 angstrom
                   Q00  =   0.087387

H          x =  1.407847  y = -3.785957  z =  2.673436 angstrom
           Maximum rank =  0   Radius =  0.325 angstrom
                   Q00  =   0.079501

Total multipoles referred to origin at
           x =   0.000000,  y =    0.000000,  z =    0.000000 angstrom
                   Q00  =  -0.000000

Finished at 5:36:38 on 28 Apr 2020

  DMA results are available in the Python driver through the
	  variable('DMA DISTRIBUTED MULTIPOLES')
  and
	  variable('DMA TOTAL MULTIPOLES')
  commands.

    Psi4 stopped on: Tuesday, 28 April 2020 05:36AM
    Psi4 wall time for execution: 0:02:10.26

*** Psi4 exiting successfully. Buy a developer a beer!
