                               Psi4 1.3.2 release

  ==> Input File <==

--------------------------------------------------------------------------
import numpy as np
set {scf_type pk
basis cc-pvdz
d_convergence 10
gdma_switch   0
gdma_limit    0
gdma_origin   [ 0.0,  0.0,  0.0 ]
}
molecule test {
    units Angstrom
    -1 1
    --
    -1 1
    C               -3.921059708567106     2.277709820670925    -1.121147723079855
    C               -0.865059708567106     0.077709820670925    -0.377147723079856
    C                0.016940291432894     1.039709820670925     0.114852276920145
    C               -2.152059708567107     0.474709820670925    -0.767147723079855
    C               -2.553059708567106     1.817709820670925    -0.667147723079855
    C               -0.396059708567106     2.366709820670924     0.233852276920145
    C               -1.662059708567106     2.743709820670925    -0.141147723079855
    O                1.273940291432894     0.718709820670925     0.519852276920144
    H               -0.558059708567106    -0.952290179329075    -0.455147723079856
    H               -2.845059708567106    -0.257290179329075    -1.155147723079855
    H                0.282940291432894     3.107709820670924     0.630852276920145
    H                1.763940291432894     1.486709820670925     0.822852276920145
    H               -4.364059708567106     2.889709820670924    -0.337147723079855
    H               -4.561059708567107     1.406709820670925    -1.261147723079856
    H               -1.962059708567106     3.778709820670925    -0.041147723079856
    H               -3.902479708567106     2.847979820670925    -2.061596723079855
    C                1.684940291432894    -3.935290179329076     0.349852276920145
    C                2.306940291432893    -2.556290179329075     0.473852276920145
    O                1.915940291432894    -1.634290179329075    -0.278147723079855
    O                3.198940291432894    -2.407290179329075     1.357852276920144
    H                1.049940291432894    -4.084290179329075     1.227852276920144
    H                2.447940291432893    -4.705290179329075     0.412852276920145
    H                1.036680291432894    -4.057430179329075    -0.530396723079856

}
e, wfn = energy('scf', return_wfn=True)
gdma(wfn)
dmavals = variable('DMA DISTRIBUTED MULTIPOLES')
charges = np.array(dmavals)
print(charges)
np.save('SSI-009TYR-016GLU-1-dimer.npy', np.array(charges))--------------------------------------------------------------------------

*** tstart() called on ds3
*** at Mon Apr 27 20:52:50 2020

   => Loading Basis Set <=

    Name: CC-PVDZ
    Role: ORBITAL
    Keyword: BASIS
    atoms 1-7, 17-18  entry C          line   138 file /theoryfs2/ds/metcalf/miniconda2/envs/tf2gpu/share/psi4/basis/cc-pvdz.gbs
    atoms 8, 19-20    entry O          line   198 file /theoryfs2/ds/metcalf/miniconda2/envs/tf2gpu/share/psi4/basis/cc-pvdz.gbs
    atoms 9-16, 21-23 entry H          line    22 file /theoryfs2/ds/metcalf/miniconda2/envs/tf2gpu/share/psi4/basis/cc-pvdz.gbs

         ---------------------------------------------------------
                                   SCF
               by Justin Turney, Rob Parrish, Andy Simmonett
                          and Daniel G. A. Smith
                              RHF Reference
                        1 Threads,    500 MiB Core
         ---------------------------------------------------------

  ==> Geometry <==

    Molecular point group: c1
    Full point group: C1

    Geometry (in Angstrom), charge = -1, multiplicity = 1:

       Center              X                  Y                   Z               Mass
    ------------   -----------------  -----------------  -----------------  -----------------
         C           -3.921059708567     2.277709820671    -1.121147723080    12.000000000000
         C           -0.865059708567     0.077709820671    -0.377147723080    12.000000000000
         C            0.016940291433     1.039709820671     0.114852276920    12.000000000000
         C           -2.152059708567     0.474709820671    -0.767147723080    12.000000000000
         C           -2.553059708567     1.817709820671    -0.667147723080    12.000000000000
         C           -0.396059708567     2.366709820671     0.233852276920    12.000000000000
         C           -1.662059708567     2.743709820671    -0.141147723080    12.000000000000
         O            1.273940291433     0.718709820671     0.519852276920    15.994914619570
         H           -0.558059708567    -0.952290179329    -0.455147723080     1.007825032230
         H           -2.845059708567    -0.257290179329    -1.155147723080     1.007825032230
         H            0.282940291433     3.107709820671     0.630852276920     1.007825032230
         H            1.763940291433     1.486709820671     0.822852276920     1.007825032230
         H           -4.364059708567     2.889709820671    -0.337147723080     1.007825032230
         H           -4.561059708567     1.406709820671    -1.261147723080     1.007825032230
         H           -1.962059708567     3.778709820671    -0.041147723080     1.007825032230
         H           -3.902479708567     2.847979820671    -2.061596723080     1.007825032230
         C            1.684940291433    -3.935290179329     0.349852276920    12.000000000000
         C            2.306940291433    -2.556290179329     0.473852276920    12.000000000000
         O            1.915940291433    -1.634290179329    -0.278147723080    15.994914619570
         O            3.198940291433    -2.407290179329     1.357852276920    15.994914619570
         H            1.049940291433    -4.084290179329     1.227852276920     1.007825032230
         H            2.447940291433    -4.705290179329     0.412852276920     1.007825032230
         H            1.036680291433    -4.057430179329    -0.530396723080     1.007825032230

  Running in c1 symmetry.

  Rotational constants: A =      0.07665  B =      0.01164  C =      0.01030 [cm^-1]
  Rotational constants: A =   2298.01281  B =    348.83099  C =    308.76376 [MHz]
  Nuclear repulsion =  637.382272709620565

  Charge       = -1
  Multiplicity = 1
  Electrons    = 90
  Nalpha       = 45
  Nbeta        = 45

  ==> Algorithm <==

  SCF Algorithm Type is PK.
  DIIS enabled.
  MOM disabled.
  Fractional occupation disabled.
  Guess Type is SAD.
  Energy threshold   = 1.00e-06
  Density threshold  = 1.00e-10
  Integral threshold = 0.00e+00

  ==> Primary Basis <==

  Basis Set: CC-PVDZ
    Blend: CC-PVDZ
    Number of shells: 105
    Number of basis function: 223
    Number of Cartesian functions: 235
    Spherical Harmonics?: true
    Max angular momentum: 2

  ==> Pre-Iterations <==

   -------------------------------------------------------
    Irrep   Nso     Nmo     Nalpha   Nbeta   Ndocc  Nsocc
   -------------------------------------------------------
     A        223     223       0       0       0       0
   -------------------------------------------------------
    Total     223     223      45      45      45       0
   -------------------------------------------------------

  ==> Integral Setup <==

  Using integral reordering PK algorithm.
  Sizing the integral batches needed.
  Building batch lookup table.
   Calculation information:
      Number of atoms:                  23
      Number of AO shells:             105
      Number of primitives:            319
      Number of atomic orbitals:       235
      Number of basis functions:       223

      Integral cutoff                 1.00e-12
      Number of threads:                 1

	Batch   1 pq = [       0,    9405] index = [             0,44231715] size =     44231715
	Batch   2 pq = [    9405,   13301] index = [      44231715,88464951] size =     44233236
	Batch   3 pq = [   13301,   16290] index = [      88464951,132690195] size =     44225244
	Batch   4 pq = [   16290,   18810] index = [     132690195,176917455] size =     44227260
	Batch   5 pq = [   18810,   21030] index = [     176917455,221140965] size =     44223510
	Batch   6 pq = [   21030,   23037] index = [     221140965,265363203] size =     44222238
	Batch   7 pq = [   23037,   24976] index = [     265363203,311912776] size =     46549573
  Task number: 29
  Buffer size: 11059200
  Buffer per thread: 2
  We computed 11858872 shell quartets total.
  Whereas there are 15487395 unique shell quartets.

  ==> DiskJK: Disk-Based J/K Matrices <==

    J tasked:                  Yes
    K tasked:                  Yes
    wK tasked:                  No
    Memory [MiB]:              375
    Schwarz Cutoff:          1E-12

    OpenMP threads:              1

  Minimum eigenvalue in the overlap matrix is 3.1947732063E-04.
  Using Symmetric Orthogonalization.

  SCF Guess: Superposition of Atomic Densities via on-the-fly atomic UHF.

  ==> Iterations <==

                        Total Energy        Delta E     RMS |[F,P]|

   @RHF iter SAD:  -570.15916777422035   -5.70159e+02   0.00000e+00
   @RHF iter   1:  -571.47752634664130   -1.31836e+00   3.76660e-03 DIIS
   @RHF iter   2:  -571.76926515003606   -2.91739e-01   2.03490e-03 DIIS
   @RHF iter   3:  -571.84563648285143   -7.63713e-02   3.54336e-04 DIIS
   @RHF iter   4:  -571.84962995378510   -3.99347e-03   1.27956e-04 DIIS
   @RHF iter   5:  -571.85018460120273   -5.54647e-04   2.15427e-05 DIIS
   @RHF iter   6:  -571.85020660035445   -2.19992e-05   8.27481e-06 DIIS
   @RHF iter   7:  -571.85020931171857   -2.71136e-06   3.53481e-06 DIIS
   @RHF iter   8:  -571.85020987610801   -5.64389e-07   1.10002e-06 DIIS
   @RHF iter   9:  -571.85020997774825   -1.01640e-07   4.58059e-07 DIIS
   @RHF iter  10:  -571.85020999804522   -2.02970e-08   1.97552e-07 DIIS
   @RHF iter  11:  -571.85021000362894   -5.58373e-09   8.18356e-08 DIIS
   @RHF iter  12:  -571.85021000452821   -8.99263e-10   4.41954e-08 DIIS
   @RHF iter  13:  -571.85021000469544   -1.67233e-10   1.19294e-08 DIIS
   @RHF iter  14:  -571.85021000471352   -1.80762e-11   4.14736e-09 DIIS
   @RHF iter  15:  -571.85021000471170    1.81899e-12   1.62437e-09 DIIS
   @RHF iter  16:  -571.85021000471295   -1.25056e-12   7.10240e-10 DIIS
   @RHF iter  17:  -571.85021000471420   -1.25056e-12   3.32722e-10 DIIS
   @RHF iter  18:  -571.85021000471977   -5.57066e-12   1.19097e-10 DIIS
   @RHF iter  19:  -571.85021000471227    7.50333e-12   4.62390e-11 DIIS
  Energy and wave function converged.

  ==> Post-Iterations <==

    Orbital Energies [Eh]
    ---------------------

    Doubly Occupied:

       1A    -20.441326     2A    -20.256042     3A    -20.248660
       4A    -11.183877     5A    -11.145066     6A    -11.134783
       7A    -11.134234     8A    -11.131207     9A    -11.123288
      10A    -11.112779    11A    -11.111259    12A    -11.047176
      13A     -1.263687    14A     -1.137035    15A     -1.044545
      16A     -1.025660    17A     -0.933546    18A     -0.910898
      19A     -0.826438    20A     -0.793943    21A     -0.732949
      22A     -0.692235    23A     -0.612763    24A     -0.559058
      25A     -0.532235    26A     -0.501104    27A     -0.496689
      28A     -0.489918    29A     -0.478916    30A     -0.456892
      31A     -0.448660    32A     -0.418823    33A     -0.407562
      34A     -0.401471    35A     -0.395744    36A     -0.394476
      37A     -0.368467    38A     -0.356450    39A     -0.333421
      40A     -0.291275    41A     -0.233661    42A     -0.187560
      43A     -0.174510    44A     -0.164806    45A     -0.152262

    Virtual:

      46A      0.238243    47A      0.260324    48A      0.268930
      49A      0.288755    50A      0.312576    51A      0.320410
      52A      0.346415    53A      0.351946    54A      0.367832
      55A      0.374697    56A      0.399562    57A      0.408930
      58A      0.445168    59A      0.459565    60A      0.479725
      61A      0.491037    62A      0.545612    63A      0.567548
      64A      0.579037    65A      0.590308    66A      0.599437
      67A      0.614127    68A      0.700581    69A      0.712339
      70A      0.721416    71A      0.731957    72A      0.763230
      73A      0.771111    74A      0.792803    75A      0.797888
      76A      0.813346    77A      0.819821    78A      0.833583
      79A      0.842152    80A      0.845885    81A      0.870022
      82A      0.875757    83A      0.891766    84A      0.893331
      85A      0.902959    86A      0.925828    87A      0.948085
      88A      0.955995    89A      0.965512    90A      0.971530
      91A      0.978291    92A      0.983548    93A      0.995087
      94A      1.011869    95A      1.019962    96A      1.031756
      97A      1.036228    98A      1.040725    99A      1.044936
     100A      1.051553   101A      1.053997   102A      1.087178
     103A      1.131616   104A      1.137290   105A      1.153886
     106A      1.169679   107A      1.219817   108A      1.246235
     109A      1.250749   110A      1.266987   111A      1.272682
     112A      1.305230   113A      1.336413   114A      1.350202
     115A      1.352314   116A      1.353667   117A      1.383889
     118A      1.391869   119A      1.397298   120A      1.415372
     121A      1.426318   122A      1.463013   123A      1.470427
     124A      1.482965   125A      1.491489   126A      1.550618
     127A      1.563766   128A      1.591836   129A      1.602682
     130A      1.614809   131A      1.618656   132A      1.640703
     133A      1.648881   134A      1.679770   135A      1.732614
     136A      1.757210   137A      1.770375   138A      1.771754
     139A      1.786239   140A      1.839475   141A      1.844744
     142A      1.850127   143A      1.865224   144A      1.878751
     145A      1.900807   146A      1.915910   147A      1.954614
     148A      1.979070   149A      1.990950   150A      1.998179
     151A      2.019152   152A      2.021737   153A      2.037760
     154A      2.049361   155A      2.057040   156A      2.059202
     157A      2.071242   158A      2.082221   159A      2.106064
     160A      2.113514   161A      2.135860   162A      2.144651
     163A      2.158981   164A      2.173232   165A      2.179051
     166A      2.192487   167A      2.209186   168A      2.227322
     169A      2.264716   170A      2.284053   171A      2.292695
     172A      2.307383   173A      2.329361   174A      2.338497
     175A      2.357568   176A      2.381806   177A      2.404867
     178A      2.431899   179A      2.439395   180A      2.446012
     181A      2.498336   182A      2.507066   183A      2.571589
     184A      2.589175   185A      2.596316   186A      2.608583
     187A      2.623770   188A      2.661209   189A      2.683475
     190A      2.701320   191A      2.737405   192A      2.771882
     193A      2.777573   194A      2.846739   195A      2.859944
     196A      2.896823   197A      2.913121   198A      2.923036
     199A      2.930436   200A      2.986515   201A      2.993433
     202A      3.001202   203A      3.076261   204A      3.109466
     205A      3.191919   206A      3.214577   207A      3.258143
     208A      3.283809   209A      3.304212   210A      3.365134
     211A      3.395376   212A      3.397165   213A      3.490614
     214A      3.630777   215A      3.738540   216A      3.799361
     217A      3.812736   218A      3.834272   219A      4.054918
     220A      4.103565   221A      4.112611   222A      4.196168
     223A      4.346888

    Final Occupation by Irrep:
              A
    DOCC [    45 ]

  @RHF Final Energy:  -571.85021000471227

   => Energetics <=

    Nuclear Repulsion Energy =            637.3822727096205654
    One-Electron Energy =               -2059.8902536677064745
    Two-Electron Energy =                 850.6577709533736424
    Total Energy =                       -571.8502100047122667

Computation Completed

Properties will be evaluated at   0.000000,   0.000000,   0.000000 [a0]

Properties computed using the SCF density matrix

  Nuclear Dipole Moment: [e a0]
     X:   -10.8546      Y:     1.3536      Z:    -2.5678

  Electronic Dipole Moment: [e a0]
     X:     6.6995      Y:     2.1576      Z:     1.7311

  Dipole Moment: [e a0]
     X:    -4.1551      Y:     3.5112      Z:    -0.8367     Total:     5.5040

  Dipole Moment: [D]
     X:   -10.5612      Y:     8.9247      Z:    -2.1268     Total:    13.9897

*** tstop() called on ds3 at Mon Apr 27 20:57:47 2020
Module time:
	user time   =     102.60 seconds =       1.71 minutes
	system time =      46.94 seconds =       0.78 minutes
	total time  =        297 seconds =       4.95 minutes
Total time:
	user time   =     102.60 seconds =       1.71 minutes
	system time =      46.94 seconds =       0.78 minutes
	total time  =        297 seconds =       4.95 minutes
                                     G D M A

                                 by Anthony Stone

                           version 2.2.06, 22 June 2011

               Distributed Multipoles from Gaussian wavefunctions

Starting at 20:57:48 on 27 Apr 2020

Using SCF density matrix from file ./SSI/SSI-009TYR-016GLU-1-dimer.test.19613.fchk

                         Distributed Multipole Analysis

Standard DMA

Positions and radii in angstrom
Multipole moments in atomic units, ea_0^k for rank k

C          x = -3.921060  y =  2.277710  z = -1.121148 angstrom
           Maximum rank =  0   Radius =  0.650 angstrom
                   Q00  =  -0.198497

C          x = -0.865060  y =  0.077710  z = -0.377148 angstrom
           Maximum rank =  0   Radius =  0.650 angstrom
                   Q00  =  -0.087731

C          x =  0.016940  y =  1.039710  z =  0.114852 angstrom
           Maximum rank =  0   Radius =  0.650 angstrom
                   Q00  =   0.330763

C          x = -2.152060  y =  0.474710  z = -0.767148 angstrom
           Maximum rank =  0   Radius =  0.650 angstrom
                   Q00  =  -0.039737

C          x = -2.553060  y =  1.817710  z = -0.667148 angstrom
           Maximum rank =  0   Radius =  0.650 angstrom
                   Q00  =  -0.155047

C          x = -0.396060  y =  2.366710  z =  0.233852 angstrom
           Maximum rank =  0   Radius =  0.650 angstrom
                   Q00  =  -0.074356

C          x = -1.662060  y =  2.743710  z = -0.141148 angstrom
           Maximum rank =  0   Radius =  0.650 angstrom
                   Q00  =  -0.049832

O          x =  1.273940  y =  0.718710  z =  0.519852 angstrom
           Maximum rank =  0   Radius =  0.650 angstrom
                   Q00  =  -0.581636

H          x = -0.558060  y = -0.952290  z = -0.455148 angstrom
           Maximum rank =  0   Radius =  0.325 angstrom
                   Q00  =   0.093381

H          x = -2.845060  y = -0.257290  z = -1.155148 angstrom
           Maximum rank =  0   Radius =  0.325 angstrom
                   Q00  =   0.044232

H          x =  0.282940  y =  3.107710  z =  0.630852 angstrom
           Maximum rank =  0   Radius =  0.325 angstrom
                   Q00  =   0.048731

H          x =  1.763940  y =  1.486710  z =  0.822852 angstrom
           Maximum rank =  0   Radius =  0.325 angstrom
                   Q00  =   0.371678

H          x = -4.364060  y =  2.889710  z = -0.337148 angstrom
           Maximum rank =  0   Radius =  0.325 angstrom
                   Q00  =   0.080617

H          x = -4.561060  y =  1.406710  z = -1.261148 angstrom
           Maximum rank =  0   Radius =  0.325 angstrom
                   Q00  =   0.086621

H          x = -1.962060  y =  3.778710  z = -0.041148 angstrom
           Maximum rank =  0   Radius =  0.325 angstrom
                   Q00  =   0.036481

H          x = -3.902480  y =  2.847980  z = -2.061597 angstrom
           Maximum rank =  0   Radius =  0.325 angstrom
                   Q00  =   0.081921

C          x =  1.684940  y = -3.935290  z =  0.349852 angstrom
           Maximum rank =  0   Radius =  0.650 angstrom
                   Q00  =  -0.278730

C          x =  2.306940  y = -2.556290  z =  0.473852 angstrom
           Maximum rank =  0   Radius =  0.650 angstrom
                   Q00  =   0.960466

O          x =  1.915940  y = -1.634290  z = -0.278148 angstrom
           Maximum rank =  0   Radius =  0.650 angstrom
                   Q00  =  -0.904573

O          x =  3.198940  y = -2.407290  z =  1.357852 angstrom
           Maximum rank =  0   Radius =  0.650 angstrom
                   Q00  =  -0.941338

H          x =  1.049940  y = -4.084290  z =  1.227852 angstrom
           Maximum rank =  0   Radius =  0.325 angstrom
                   Q00  =   0.068855

H          x =  2.447940  y = -4.705290  z =  0.412852 angstrom
           Maximum rank =  0   Radius =  0.325 angstrom
                   Q00  =   0.063861

H          x =  1.036680  y = -4.057430  z = -0.530397 angstrom
           Maximum rank =  0   Radius =  0.325 angstrom
                   Q00  =   0.043870

Total multipoles referred to origin at
           x =   0.000000,  y =    0.000000,  z =    0.000000 angstrom
                   Q00  =  -1.000000

Finished at 20:57:48 on 27 Apr 2020

  DMA results are available in the Python driver through the
	  variable('DMA DISTRIBUTED MULTIPOLES')
  and
	  variable('DMA TOTAL MULTIPOLES')
  commands.

    Psi4 stopped on: Monday, 27 April 2020 08:57PM
    Psi4 wall time for execution: 0:04:57.62

*** Psi4 exiting successfully. Buy a developer a beer!
