                               Psi4 1.3.2 release

  ==> Input File <==

--------------------------------------------------------------------------
import numpy as np
set {scf_type pk
basis cc-pvdz
d_convergence 10
gdma_switch   0
gdma_limit    0
gdma_origin   [ 0.0,  0.0,  0.0 ]
}
molecule test {
    units Angstrom
    1 1
    --
    1 1
    C                0.716769541529011    -2.011278299674356     0.837448449960642
    C                0.859769541529010    -3.493278299674356     1.152448449960642
    H                0.365769541529010    -1.470278299674356     1.716448449960642
    H                1.683769541529011    -1.607278299674356     0.539448449960642
    H                0.019769541529010    -1.867278299674356     0.013448449960642
    H                1.049769541529010    -4.038278299674356     0.230448449960642
    H               -0.066750458470990    -3.879088299674356     1.602680449960642
    H                1.713669541529010    -3.650348299674356     1.827859449960642
    C               -1.741230458470990     0.673721700325644    -0.371551550039358
    C               -2.758230458470989     0.630721700325644     0.716448449960642
    C                0.684769541529010     1.095721700325644    -0.602551550039358
    N               -0.439230458470990     1.158721700325644     0.090448449960642
    N                0.735769541529010     0.471721700325644    -1.758551550039358
    N                1.796769541529010     1.591721700325644    -0.082551550039358
    H               -1.642230458470990    -0.335278299674356    -0.776551550039358
    H               -2.103230458470990     1.333721700325644    -1.163551550039358
    H               -2.830230458470989     1.618721700325644     1.172448449960642
    H               -2.407230458470989    -0.068278299674356     1.475448449960642
    H               -0.407230458470990     1.633721700325644     0.981448449960642
    H               -0.098230458470990     0.091721700325644    -2.170551550039358
    H                1.618769541529011     0.444721700325644    -2.257551550039358
    H                1.790769541529011     2.076721700325644     0.801448449960642
    H                2.632769541529011     1.572721700325644    -0.651551550039358
    H               -3.755790458470989     0.337621700325644     0.357327449960642

}
e, wfn = energy('scf', return_wfn=True)
gdma(wfn)
dmavals = variable('DMA DISTRIBUTED MULTIPOLES')
charges = np.array(dmavals)
print(charges)
np.save('SSI-133VAL-137ARG-1-dimer.npy', np.array(charges))--------------------------------------------------------------------------

*** tstart() called on ds3
*** at Mon Apr 27 12:38:20 2020

   => Loading Basis Set <=

    Name: CC-PVDZ
    Role: ORBITAL
    Keyword: BASIS
    atoms 1-2, 9-11  entry C          line   138 file /theoryfs2/ds/metcalf/miniconda2/envs/tf2gpu/share/psi4/basis/cc-pvdz.gbs
    atoms 3-8, 15-24 entry H          line    22 file /theoryfs2/ds/metcalf/miniconda2/envs/tf2gpu/share/psi4/basis/cc-pvdz.gbs
    atoms 12-14      entry N          line   168 file /theoryfs2/ds/metcalf/miniconda2/envs/tf2gpu/share/psi4/basis/cc-pvdz.gbs

         ---------------------------------------------------------
                                   SCF
               by Justin Turney, Rob Parrish, Andy Simmonett
                          and Daniel G. A. Smith
                              RHF Reference
                        1 Threads,    500 MiB Core
         ---------------------------------------------------------

  ==> Geometry <==

    Molecular point group: c1
    Full point group: C1

    Geometry (in Angstrom), charge = 1, multiplicity = 1:

       Center              X                  Y                   Z               Mass
    ------------   -----------------  -----------------  -----------------  -----------------
         C            0.716769541529    -2.011278299674     0.837448449961    12.000000000000
         C            0.859769541529    -3.493278299674     1.152448449961    12.000000000000
         H            0.365769541529    -1.470278299674     1.716448449961     1.007825032230
         H            1.683769541529    -1.607278299674     0.539448449961     1.007825032230
         H            0.019769541529    -1.867278299674     0.013448449961     1.007825032230
         H            1.049769541529    -4.038278299674     0.230448449961     1.007825032230
         H           -0.066750458471    -3.879088299674     1.602680449961     1.007825032230
         H            1.713669541529    -3.650348299674     1.827859449961     1.007825032230
         C           -1.741230458471     0.673721700326    -0.371551550039    12.000000000000
         C           -2.758230458471     0.630721700326     0.716448449961    12.000000000000
         C            0.684769541529     1.095721700326    -0.602551550039    12.000000000000
         N           -0.439230458471     1.158721700326     0.090448449961    14.003074004430
         N            0.735769541529     0.471721700326    -1.758551550039    14.003074004430
         N            1.796769541529     1.591721700326    -0.082551550039    14.003074004430
         H           -1.642230458471    -0.335278299674    -0.776551550039     1.007825032230
         H           -2.103230458471     1.333721700326    -1.163551550039     1.007825032230
         H           -2.830230458471     1.618721700326     1.172448449961     1.007825032230
         H           -2.407230458471    -0.068278299674     1.475448449961     1.007825032230
         H           -0.407230458471     1.633721700326     0.981448449961     1.007825032230
         H           -0.098230458471     0.091721700326    -2.170551550039     1.007825032230
         H            1.618769541529     0.444721700326    -2.257551550039     1.007825032230
         H            1.790769541529     2.076721700326     0.801448449961     1.007825032230
         H            2.632769541529     1.572721700326    -0.651551550039     1.007825032230
         H           -3.755790458471     0.337621700326     0.357327449961     1.007825032230

  Running in c1 symmetry.

  Rotational constants: A =      0.05356  B =      0.03700  C =      0.02588 [cm^-1]
  Rotational constants: A =   1605.68557  B =   1109.27526  C =    775.78058 [MHz]
  Nuclear repulsion =  406.273859993919416

  Charge       = 1
  Multiplicity = 1
  Electrons    = 66
  Nalpha       = 33
  Nbeta        = 33

  ==> Algorithm <==

  SCF Algorithm Type is PK.
  DIIS enabled.
  MOM disabled.
  Fractional occupation disabled.
  Guess Type is SAD.
  Energy threshold   = 1.00e-06
  Density threshold  = 1.00e-10
  Integral threshold = 0.00e+00

  ==> Primary Basis <==

  Basis Set: CC-PVDZ
    Blend: CC-PVDZ
    Number of shells: 96
    Number of basis function: 192
    Number of Cartesian functions: 200
    Spherical Harmonics?: true
    Max angular momentum: 2

  ==> Pre-Iterations <==

   -------------------------------------------------------
    Irrep   Nso     Nmo     Nalpha   Nbeta   Ndocc  Nsocc
   -------------------------------------------------------
     A        192     192       0       0       0       0
   -------------------------------------------------------
    Total     192     192      33      33      33       0
   -------------------------------------------------------

  ==> Integral Setup <==

  Using integral reordering PK algorithm.
  Sizing the integral batches needed.
  Building batch lookup table.
   Calculation information:
      Number of atoms:                  24
      Number of AO shells:              96
      Number of primitives:            256
      Number of atomic orbitals:       200
      Number of basis functions:       192

      Integral cutoff                 1.00e-12
      Number of threads:                 1

	Batch   1 pq = [       0,    9405] index = [             0,44231715] size =     44231715
	Batch   2 pq = [    9405,   13301] index = [      44231715,88464951] size =     44233236
	Batch   3 pq = [   13301,   16290] index = [      88464951,132690195] size =     44225244
	Batch   4 pq = [   16290,   18528] index = [     132690195,171652656] size =     38962461
  Task number: 16
  Buffer size: 11059200
  Buffer per thread: 2
  We computed 10033765 shell quartets total.
  Whereas there are 10841496 unique shell quartets.

  ==> DiskJK: Disk-Based J/K Matrices <==

    J tasked:                  Yes
    K tasked:                  Yes
    wK tasked:                  No
    Memory [MiB]:              375
    Schwarz Cutoff:          1E-12

    OpenMP threads:              1

  Minimum eigenvalue in the overlap matrix is 3.0772450388E-03.
  Using Symmetric Orthogonalization.

  SCF Guess: Superposition of Atomic Densities via on-the-fly atomic UHF.

  ==> Iterations <==

                        Total Energy        Delta E     RMS |[F,P]|

   @RHF iter SAD:  -361.22877726844888   -3.61229e+02   0.00000e+00
   @RHF iter   1:  -361.61878231781441   -3.90005e-01   3.23907e-03 DIIS
   @RHF iter   2:  -361.82262076924394   -2.03838e-01   1.28593e-03 DIIS
   @RHF iter   3:  -361.85316976051752   -3.05490e-02   3.01692e-04 DIIS
   @RHF iter   4:  -361.85599313066035   -2.82337e-03   5.39384e-05 DIIS
   @RHF iter   5:  -361.85607606630981   -8.29356e-05   1.97080e-05 DIIS
   @RHF iter   6:  -361.85608726242754   -1.11961e-05   3.63895e-06 DIIS
   @RHF iter   7:  -361.85608786815567   -6.05728e-07   1.15753e-06 DIIS
   @RHF iter   8:  -361.85608791287979   -4.47241e-08   3.15194e-07 DIIS
   @RHF iter   9:  -361.85608791627078   -3.39099e-09   8.22152e-08 DIIS
   @RHF iter  10:  -361.85608791650020   -2.29420e-10   2.28095e-08 DIIS
   @RHF iter  11:  -361.85608791651578   -1.55751e-11   6.98938e-09 DIIS
   @RHF iter  12:  -361.85608791651811   -2.33058e-12   1.77824e-09 DIIS
   @RHF iter  13:  -361.85608791651885   -7.38964e-13   6.56834e-10 DIIS
   @RHF iter  14:  -361.85608791651839    4.54747e-13   2.53593e-10 DIIS
   @RHF iter  15:  -361.85608791651839    0.00000e+00   6.19254e-11 DIIS
  Energy and wave function converged.

  ==> Post-Iterations <==

    Orbital Energies [Eh]
    ---------------------

    Doubly Occupied:

       1A    -15.786854     2A    -15.784271     3A    -15.778952
       4A    -11.584691     5A    -11.432018     6A    -11.367399
       7A    -11.333288     8A    -11.316960     9A     -1.543494
      10A     -1.402134    11A     -1.388433    12A     -1.194494
      13A     -1.128689    14A     -1.051331    15A     -1.014001
      16A     -0.974299    17A     -0.945246    18A     -0.926658
      19A     -0.858425    20A     -0.854384    21A     -0.830103
      22A     -0.792300    23A     -0.767230    24A     -0.708976
      25A     -0.707007    26A     -0.694953    27A     -0.662934
      28A     -0.656741    29A     -0.616363    30A     -0.609155
      31A     -0.592463    32A     -0.591579    33A     -0.575878

    Virtual:

      34A     -0.008818    35A      0.024129    36A      0.026852
      37A      0.040211    38A      0.059030    39A      0.068817
      40A      0.082759    41A      0.113977    42A      0.124556
      43A      0.128723    44A      0.135754    45A      0.141393
      46A      0.144437    47A      0.174767    48A      0.189473
      49A      0.189658    50A      0.198410    51A      0.243928
      52A      0.248719    53A      0.264470    54A      0.316992
      55A      0.346956    56A      0.358749    57A      0.435662
      58A      0.455643    59A      0.463070    60A      0.465191
      61A      0.488192    62A      0.501084    63A      0.518106
      64A      0.527601    65A      0.545356    66A      0.558898
      67A      0.560616    68A      0.570588    69A      0.602329
      70A      0.661328    71A      0.675296    72A      0.697853
      73A      0.717031    74A      0.729482    75A      0.741740
      76A      0.744598    77A      0.755314    78A      0.768435
      79A      0.772985    80A      0.780979    81A      0.794666
      82A      0.797257    83A      0.799014    84A      0.808070
      85A      0.820333    86A      0.822751    87A      0.842364
      88A      0.851345    89A      0.879461    90A      0.897495
      91A      0.913116    92A      0.932528    93A      0.939015
      94A      0.957643    95A      0.988849    96A      1.020205
      97A      1.024062    98A      1.052122    99A      1.106112
     100A      1.123950   101A      1.147323   102A      1.184828
     103A      1.195143   104A      1.208237   105A      1.231346
     106A      1.265167   107A      1.324739   108A      1.349549
     109A      1.367778   110A      1.377603   111A      1.448021
     112A      1.485005   113A      1.501094   114A      1.513647
     115A      1.548027   116A      1.551791   117A      1.560942
     118A      1.580447   119A      1.590050   120A      1.601016
     121A      1.625255   122A      1.671761   123A      1.696913
     124A      1.714762   125A      1.728411   126A      1.737190
     127A      1.757019   128A      1.765088   129A      1.778097
     130A      1.794060   131A      1.803448   132A      1.817577
     133A      1.820278   134A      1.829703   135A      1.835254
     136A      1.840767   137A      1.846767   138A      1.857490
     139A      1.870462   140A      1.881132   141A      1.898954
     142A      1.939565   143A      1.949193   144A      1.979963
     145A      2.000364   146A      2.010433   147A      2.017308
     148A      2.030641   149A      2.078048   150A      2.089402
     151A      2.145061   152A      2.182580   153A      2.192074
     154A      2.216158   155A      2.245909   156A      2.260441
     157A      2.292771   158A      2.307534   159A      2.342165
     160A      2.349754   161A      2.360769   162A      2.364274
     163A      2.367737   164A      2.388766   165A      2.416770
     166A      2.461583   167A      2.468737   168A      2.473156
     169A      2.496986   170A      2.562717   171A      2.618158
     172A      2.633164   173A      2.661945   174A      2.670565
     175A      2.683775   176A      2.684420   177A      2.703564
     178A      2.746618   179A      2.750157   180A      2.769086
     181A      2.801035   182A      2.828811   183A      2.850956
     184A      2.859596   185A      2.873476   186A      2.884482
     187A      2.933819   188A      3.098241   189A      3.119408
     190A      3.159289   191A      3.583833   192A      3.652248

    Final Occupation by Irrep:
              A
    DOCC [    33 ]

  @RHF Final Energy:  -361.85608791651839

   => Energetics <=

    Nuclear Repulsion Energy =            406.2738599939194160
    One-Electron Energy =               -1283.3164895372315186
    Two-Electron Energy =                 515.1865416267937690
    Total Energy =                       -361.8560879165183906

Computation Completed

Properties will be evaluated at   0.000000,   0.000000,   0.000000 [a0]

Properties computed using the SCF density matrix

  Nuclear Dipole Moment: [e a0]
     X:    -2.2896      Y:    -7.3277      Z:     3.4725

  Electronic Dipole Moment: [e a0]
     X:     3.0708      Y:     9.1631      Z:    -4.4424

  Dipole Moment: [e a0]
     X:     0.7812      Y:     1.8355      Z:    -0.9699     Total:     2.2181

  Dipole Moment: [D]
     X:     1.9856      Y:     4.6653      Z:    -2.4652     Total:     5.6378

*** tstop() called on ds3 at Mon Apr 27 12:39:50 2020
Module time:
	user time   =      63.95 seconds =       1.07 minutes
	system time =      24.61 seconds =       0.41 minutes
	total time  =         90 seconds =       1.50 minutes
Total time:
	user time   =      63.95 seconds =       1.07 minutes
	system time =      24.61 seconds =       0.41 minutes
	total time  =         90 seconds =       1.50 minutes
                                     G D M A

                                 by Anthony Stone

                           version 2.2.06, 22 June 2011

               Distributed Multipoles from Gaussian wavefunctions

Starting at 12:39:50 on 27 Apr 2020

Using SCF density matrix from file ./SSI/SSI-133VAL-137ARG-1-dimer.test.3581.fchk

                         Distributed Multipole Analysis

Standard DMA

Positions and radii in angstrom
Multipole moments in atomic units, ea_0^k for rank k

C          x =  0.716770  y = -2.011278  z =  0.837448 angstrom
           Maximum rank =  0   Radius =  0.650 angstrom
                   Q00  =  -0.278374

C          x =  0.859770  y = -3.493278  z =  1.152448 angstrom
           Maximum rank =  0   Radius =  0.650 angstrom
                   Q00  =  -0.203586

H          x =  0.365770  y = -1.470278  z =  1.716448 angstrom
           Maximum rank =  0   Radius =  0.325 angstrom
                   Q00  =   0.079333

H          x =  1.683770  y = -1.607278  z =  0.539448 angstrom
           Maximum rank =  0   Radius =  0.325 angstrom
                   Q00  =   0.068411

H          x =  0.019770  y = -1.867278  z =  0.013448 angstrom
           Maximum rank =  0   Radius =  0.325 angstrom
                   Q00  =   0.056090

H          x =  1.049770  y = -4.038278  z =  0.230448 angstrom
           Maximum rank =  0   Radius =  0.325 angstrom
                   Q00  =   0.087529

H          x = -0.066750  y = -3.879088  z =  1.602680 angstrom
           Maximum rank =  0   Radius =  0.325 angstrom
                   Q00  =   0.092414

H          x =  1.713670  y = -3.650348  z =  1.827859 angstrom
           Maximum rank =  0   Radius =  0.325 angstrom
                   Q00  =   0.094866

C          x = -1.741230  y =  0.673722  z = -0.371552 angstrom
           Maximum rank =  0   Radius =  0.650 angstrom
                   Q00  =  -0.035824

C          x = -2.758230  y =  0.630722  z =  0.716448 angstrom
           Maximum rank =  0   Radius =  0.650 angstrom
                   Q00  =  -0.192907

C          x =  0.684770  y =  1.095722  z = -0.602552 angstrom
           Maximum rank =  0   Radius =  0.650 angstrom
                   Q00  =   1.076677

N          x = -0.439230  y =  1.158722  z =  0.090448 angstrom
           Maximum rank =  0   Radius =  0.650 angstrom
                   Q00  =  -0.481057

N          x =  0.735770  y =  0.471722  z = -1.758552 angstrom
           Maximum rank =  0   Radius =  0.650 angstrom
                   Q00  =  -0.575670

N          x =  1.796770  y =  1.591722  z = -0.082552 angstrom
           Maximum rank =  0   Radius =  0.650 angstrom
                   Q00  =  -0.599547

H          x = -1.642230  y = -0.335278  z = -0.776552 angstrom
           Maximum rank =  0   Radius =  0.325 angstrom
                   Q00  =   0.081273

H          x = -2.103230  y =  1.333722  z = -1.163552 angstrom
           Maximum rank =  0   Radius =  0.325 angstrom
                   Q00  =   0.093593

H          x = -2.830230  y =  1.618722  z =  1.172448 angstrom
           Maximum rank =  0   Radius =  0.325 angstrom
                   Q00  =   0.093852

H          x = -2.407230  y = -0.068278  z =  1.475448 angstrom
           Maximum rank =  0   Radius =  0.325 angstrom
                   Q00  =   0.098278

H          x = -0.407230  y =  1.633722  z =  0.981448 angstrom
           Maximum rank =  0   Radius =  0.325 angstrom
                   Q00  =   0.228001

H          x = -0.098230  y =  0.091722  z = -2.170552 angstrom
           Maximum rank =  0   Radius =  0.325 angstrom
                   Q00  =   0.277664

H          x =  1.618770  y =  0.444722  z = -2.257552 angstrom
           Maximum rank =  0   Radius =  0.325 angstrom
                   Q00  =   0.266043

H          x =  1.790770  y =  2.076722  z =  0.801448 angstrom
           Maximum rank =  0   Radius =  0.325 angstrom
                   Q00  =   0.271061

H          x =  2.632770  y =  1.572722  z = -0.651552 angstrom
           Maximum rank =  0   Radius =  0.325 angstrom
                   Q00  =   0.259590

H          x = -3.755790  y =  0.337622  z =  0.357327 angstrom
           Maximum rank =  0   Radius =  0.325 angstrom
                   Q00  =   0.142290

Total multipoles referred to origin at
           x =   0.000000,  y =    0.000000,  z =    0.000000 angstrom
                   Q00  =   1.000000

Finished at 12:39:50 on 27 Apr 2020

  DMA results are available in the Python driver through the
	  variable('DMA DISTRIBUTED MULTIPOLES')
  and
	  variable('DMA TOTAL MULTIPOLES')
  commands.

    Psi4 stopped on: Monday, 27 April 2020 12:39PM
    Psi4 wall time for execution: 0:01:30.69

*** Psi4 exiting successfully. Buy a developer a beer!
