                               Psi4 1.3.2 release

  ==> Input File <==

--------------------------------------------------------------------------
import numpy as np
set {scf_type pk
basis cc-pvdz
d_convergence 10
gdma_switch   0
gdma_limit    0
gdma_origin   [ 0.0,  0.0,  0.0 ]
}
molecule test {
    units Angstrom
    1 1
    --
    1 1
    C                1.286882318729430    -0.261417377942070     0.421838415634008
    C                2.266882318729430     0.243582622057930    -0.642161584365992
    N                1.364882318729430    -1.737417377942070     0.647838415634008
    H                1.497882318729430     0.266582622057930     1.356838415634008
    H                0.272882318729430     0.003582622057930     0.113838415634008
    H                3.290882318729430     0.043582622057930    -0.323161584365992
    H                2.139882318729430     1.322582622057930    -0.748161584365992
    H                2.313882318729430    -2.033417377942070     0.837838415634008
    H                0.793882318729430    -2.008417377942070     1.438838415634008
    H                1.017882318729430    -2.277417377942069    -0.144161584365992
    H                2.079612318729430    -0.242610377942070    -1.610951584365992
    C               -2.997117681270570     0.707582622057930    -0.481161584365992
    O               -1.713117681270570     1.076582622057930    -0.016161584365992
    H               -1.793117681270570     1.912582622057930     0.470838415634008
    H               -3.405117681270570     1.507582622057930    -1.098161584365992
    H               -3.666117681270570     0.574582622057930     0.371838415634008
    H               -2.946067681270570    -0.227787377942070    -1.057771584365992

}
e, wfn = energy('scf', return_wfn=True)
gdma(wfn)
dmavals = variable('DMA DISTRIBUTED MULTIPOLES')
charges = np.array(dmavals)
print(charges)
np.save('SSI-116LYS-144SER-1-dimer.npy', np.array(charges))--------------------------------------------------------------------------

*** tstart() called on ds3
*** at Mon Apr 27 16:56:03 2020

   => Loading Basis Set <=

    Name: CC-PVDZ
    Role: ORBITAL
    Keyword: BASIS
    atoms 1-2, 12     entry C          line   138 file /theoryfs2/ds/metcalf/miniconda2/envs/tf2gpu/share/psi4/basis/cc-pvdz.gbs
    atoms 3           entry N          line   168 file /theoryfs2/ds/metcalf/miniconda2/envs/tf2gpu/share/psi4/basis/cc-pvdz.gbs
    atoms 4-11, 14-17 entry H          line    22 file /theoryfs2/ds/metcalf/miniconda2/envs/tf2gpu/share/psi4/basis/cc-pvdz.gbs
    atoms 13          entry O          line   198 file /theoryfs2/ds/metcalf/miniconda2/envs/tf2gpu/share/psi4/basis/cc-pvdz.gbs

         ---------------------------------------------------------
                                   SCF
               by Justin Turney, Rob Parrish, Andy Simmonett
                          and Daniel G. A. Smith
                              RHF Reference
                        1 Threads,    500 MiB Core
         ---------------------------------------------------------

  ==> Geometry <==

    Molecular point group: c1
    Full point group: C1

    Geometry (in Angstrom), charge = 1, multiplicity = 1:

       Center              X                  Y                   Z               Mass
    ------------   -----------------  -----------------  -----------------  -----------------
         C            1.286882318729    -0.261417377942     0.421838415634    12.000000000000
         C            2.266882318729     0.243582622058    -0.642161584366    12.000000000000
         N            1.364882318729    -1.737417377942     0.647838415634    14.003074004430
         H            1.497882318729     0.266582622058     1.356838415634     1.007825032230
         H            0.272882318729     0.003582622058     0.113838415634     1.007825032230
         H            3.290882318729     0.043582622058    -0.323161584366     1.007825032230
         H            2.139882318729     1.322582622058    -0.748161584366     1.007825032230
         H            2.313882318729    -2.033417377942     0.837838415634     1.007825032230
         H            0.793882318729    -2.008417377942     1.438838415634     1.007825032230
         H            1.017882318729    -2.277417377942    -0.144161584366     1.007825032230
         H            2.079612318729    -0.242610377942    -1.610951584366     1.007825032230
         C           -2.997117681271     0.707582622058    -0.481161584366    12.000000000000
         O           -1.713117681271     1.076582622058    -0.016161584366    15.994914619570
         H           -1.793117681271     1.912582622058     0.470838415634     1.007825032230
         H           -3.405117681271     1.507582622058    -1.098161584366     1.007825032230
         H           -3.666117681271     0.574582622058     0.371838415634     1.007825032230
         H           -2.946067681271    -0.227787377942    -1.057771584366     1.007825032230

  Running in c1 symmetry.

  Rotational constants: A =      0.22073  B =      0.04395  C =      0.03914 [cm^-1]
  Rotational constants: A =   6617.27118  B =   1317.44137  C =   1173.27662 [MHz]
  Nuclear repulsion =  188.411928623815243

  Charge       = 1
  Multiplicity = 1
  Electrons    = 44
  Nalpha       = 22
  Nbeta        = 22

  ==> Algorithm <==

  SCF Algorithm Type is PK.
  DIIS enabled.
  MOM disabled.
  Fractional occupation disabled.
  Guess Type is SAD.
  Energy threshold   = 1.00e-06
  Density threshold  = 1.00e-10
  Integral threshold = 0.00e+00

  ==> Primary Basis <==

  Basis Set: CC-PVDZ
    Blend: CC-PVDZ
    Number of shells: 66
    Number of basis function: 130
    Number of Cartesian functions: 135
    Spherical Harmonics?: true
    Max angular momentum: 2

  ==> Pre-Iterations <==

   -------------------------------------------------------
    Irrep   Nso     Nmo     Nalpha   Nbeta   Ndocc  Nsocc
   -------------------------------------------------------
     A        130     130       0       0       0       0
   -------------------------------------------------------
    Total     130     130      22      22      22       0
   -------------------------------------------------------

  ==> Integral Setup <==

  Using integral reordering PK algorithm.
  Sizing the integral batches needed.
  Building batch lookup table.
   Calculation information:
      Number of atoms:                  17
      Number of AO shells:              66
      Number of primitives:            170
      Number of atomic orbitals:       135
      Number of basis functions:       130

      Integral cutoff                 1.00e-12
      Number of threads:                 1

	Batch   1 pq = [       0,    8515] index = [             0,36256870] size =     36256870
  Task number: 4
  Buffer size: 11059200
  Buffer per thread: 2
  We computed 1925753 shell quartets total.
  Whereas there are 2445366 unique shell quartets.

  ==> DiskJK: Disk-Based J/K Matrices <==

    J tasked:                  Yes
    K tasked:                  Yes
    wK tasked:                  No
    Memory [MiB]:              375
    Schwarz Cutoff:          1E-12

    OpenMP threads:              1

  Minimum eigenvalue in the overlap matrix is 5.6140457233E-03.
  Using Symmetric Orthogonalization.

  SCF Guess: Superposition of Atomic Densities via on-the-fly atomic UHF.

  ==> Iterations <==

                        Total Energy        Delta E     RMS |[F,P]|

   @RHF iter SAD:  -248.88270491698958   -2.48883e+02   0.00000e+00
   @RHF iter   1:  -249.54098386904056   -6.58279e-01   3.80563e-03 DIIS
   @RHF iter   2:  -249.67122657684303   -1.30243e-01   1.63275e-03 DIIS
   @RHF iter   3:  -249.69063610202005   -1.94095e-02   4.43794e-04 DIIS
   @RHF iter   4:  -249.69282734741932   -2.19125e-03   1.05674e-04 DIIS
   @RHF iter   5:  -249.69294285576649   -1.15508e-04   2.67761e-05 DIIS
   @RHF iter   6:  -249.69295262076943   -9.76500e-06   5.67105e-06 DIIS
   @RHF iter   7:  -249.69295324898928   -6.28220e-07   1.40739e-06 DIIS
   @RHF iter   8:  -249.69295328832311   -3.93338e-08   3.62001e-07 DIIS
   @RHF iter   9:  -249.69295329020164   -1.87853e-09   9.64028e-08 DIIS
   @RHF iter  10:  -249.69295329033912   -1.37476e-10   2.12090e-08 DIIS
   @RHF iter  11:  -249.69295329034665   -7.53175e-12   6.19930e-09 DIIS
   @RHF iter  12:  -249.69295329034694   -2.84217e-13   1.95169e-09 DIIS
   @RHF iter  13:  -249.69295329034611    8.24230e-13   4.21692e-10 DIIS
   @RHF iter  14:  -249.69295329034694   -8.24230e-13   1.03387e-10 DIIS
   @RHF iter  15:  -249.69295329034696   -2.84217e-14   3.63785e-11 DIIS
  Energy and wave function converged.

  ==> Post-Iterations <==

    Orbital Energies [Eh]
    ---------------------

    Doubly Occupied:

       1A    -20.674955     2A    -15.895360     3A    -11.462577
       4A    -11.395159     5A    -11.383828     6A     -1.512287
       7A     -1.473187     8A     -1.205571     9A     -1.043734
      10A     -1.030837    11A     -0.969786    12A     -0.956449
      13A     -0.847843    14A     -0.802496    15A     -0.782368
      16A     -0.729022    17A     -0.712290    18A     -0.709882
      19A     -0.685910    20A     -0.672248    21A     -0.611569
      22A     -0.558763

    Virtual:

      23A     -0.041636    24A      0.023973    25A      0.029258
      26A      0.044510    27A      0.079165    28A      0.096267
      29A      0.109490    30A      0.128381    31A      0.130460
      32A      0.145892    33A      0.170371    34A      0.171167
      35A      0.190522    36A      0.219849    37A      0.264665
      38A      0.382589    39A      0.403327    40A      0.440968
      41A      0.450435    42A      0.466912    43A      0.524059
      44A      0.529391    45A      0.590971    46A      0.614730
      47A      0.635155    48A      0.647523    49A      0.666396
      50A      0.692573    51A      0.697758    52A      0.724843
      53A      0.727486    54A      0.748637    55A      0.757864
      56A      0.781839    57A      0.782997    58A      0.794353
      59A      0.802050    60A      0.839685    61A      0.842500
      62A      0.934234    63A      0.941257    64A      1.011188
      65A      1.039015    66A      1.049179    67A      1.085535
      68A      1.182509    69A      1.214110    70A      1.220608
      71A      1.276033    72A      1.311936    73A      1.381581
      74A      1.449783    75A      1.473497    76A      1.489428
      77A      1.501842    78A      1.519175    79A      1.550552
      80A      1.566495    81A      1.607628    82A      1.672956
      83A      1.693034    84A      1.719306    85A      1.740194
      86A      1.761780    87A      1.770885    88A      1.784201
      89A      1.792327    90A      1.802407    91A      1.806048
      92A      1.849245    93A      1.857530    94A      1.878104
      95A      1.909113    96A      1.913308    97A      1.938897
      98A      1.969164    99A      2.002712   100A      2.042533
     101A      2.064288   102A      2.123040   103A      2.175944
     104A      2.185217   105A      2.195235   106A      2.246678
     107A      2.251991   108A      2.297415   109A      2.332088
     110A      2.382796   111A      2.397766   112A      2.444477
     113A      2.533854   114A      2.548541   115A      2.602006
     116A      2.634091   117A      2.638698   118A      2.656642
     119A      2.662744   120A      2.682034   121A      2.745844
     122A      2.795429   123A      2.879561   124A      3.106518
     125A      3.128265   126A      3.174548   127A      3.261720
     128A      3.344821   129A      3.473043   130A      3.959733

    Final Occupation by Irrep:
              A
    DOCC [    22 ]

  @RHF Final Energy:  -249.69295329034696

   => Energetics <=

    Nuclear Repulsion Energy =            188.4119286238152426
    One-Electron Energy =                -703.9775276414129621
    Two-Electron Energy =                 265.8726457272507560
    Total Energy =                       -249.6929532903469635

Computation Completed

Properties will be evaluated at   0.000000,   0.000000,   0.000000 [a0]

Properties computed using the SCF density matrix

  Nuclear Dipole Moment: [e a0]
     X:     1.4844      Y:    -1.0759      Z:    -0.3698

  Electronic Dipole Moment: [e a0]
     X:     0.2093      Y:    -1.0241      Z:     1.4083

  Dipole Moment: [e a0]
     X:     1.6937      Y:    -2.1000      Z:     1.0385     Total:     2.8909

  Dipole Moment: [D]
     X:     4.3049      Y:    -5.3377      Z:     2.6396     Total:     7.3479

*** tstop() called on ds3 at Mon Apr 27 16:56:22 2020
Module time:
	user time   =      11.35 seconds =       0.19 minutes
	system time =       4.76 seconds =       0.08 minutes
	total time  =         19 seconds =       0.32 minutes
Total time:
	user time   =      11.35 seconds =       0.19 minutes
	system time =       4.76 seconds =       0.08 minutes
	total time  =         19 seconds =       0.32 minutes
                                     G D M A

                                 by Anthony Stone

                           version 2.2.06, 22 June 2011

               Distributed Multipoles from Gaussian wavefunctions

Starting at 16:56:22 on 27 Apr 2020

Using SCF density matrix from file ./SSI/SSI-116LYS-144SER-1-dimer.test.28562.fchk

                         Distributed Multipole Analysis

Standard DMA

Positions and radii in angstrom
Multipole moments in atomic units, ea_0^k for rank k

C          x =  1.286882  y = -0.261417  z =  0.421838 angstrom
           Maximum rank =  0   Radius =  0.650 angstrom
                   Q00  =  -0.027502

C          x =  2.266882  y =  0.243583  z = -0.642162 angstrom
           Maximum rank =  0   Radius =  0.650 angstrom
                   Q00  =  -0.232772

N          x =  1.364882  y = -1.737417  z =  0.647838 angstrom
           Maximum rank =  0   Radius =  0.650 angstrom
                   Q00  =  -0.140526

H          x =  1.497882  y =  0.266583  z =  1.356838 angstrom
           Maximum rank =  0   Radius =  0.325 angstrom
                   Q00  =   0.122674

H          x =  0.272882  y =  0.003583  z =  0.113838 angstrom
           Maximum rank =  0   Radius =  0.325 angstrom
                   Q00  =   0.136688

H          x =  3.290882  y =  0.043583  z = -0.323162 angstrom
           Maximum rank =  0   Radius =  0.325 angstrom
                   Q00  =   0.100498

H          x =  2.139882  y =  1.322583  z = -0.748162 angstrom
           Maximum rank =  0   Radius =  0.325 angstrom
                   Q00  =   0.152907

H          x =  2.313882  y = -2.033417  z =  0.837838 angstrom
           Maximum rank =  0   Radius =  0.325 angstrom
                   Q00  =   0.251561

H          x =  0.793882  y = -2.008417  z =  1.438838 angstrom
           Maximum rank =  0   Radius =  0.325 angstrom
                   Q00  =   0.255133

H          x =  1.017882  y = -2.277417  z = -0.144162 angstrom
           Maximum rank =  0   Radius =  0.325 angstrom
                   Q00  =   0.259897

H          x =  2.079612  y = -0.242610  z = -1.610952 angstrom
           Maximum rank =  0   Radius =  0.325 angstrom
                   Q00  =   0.105382

C          x = -2.997118  y =  0.707583  z = -0.481162 angstrom
           Maximum rank =  0   Radius =  0.650 angstrom
                   Q00  =  -0.056842

O          x = -1.713118  y =  1.076583  z = -0.016162 angstrom
           Maximum rank =  0   Radius =  0.650 angstrom
                   Q00  =  -0.623459

H          x = -1.793118  y =  1.912583  z =  0.470838 angstrom
           Maximum rank =  0   Radius =  0.325 angstrom
                   Q00  =   0.403307

H          x = -3.405118  y =  1.507583  z = -1.098162 angstrom
           Maximum rank =  0   Radius =  0.325 angstrom
                   Q00  =   0.096257

H          x = -3.666118  y =  0.574583  z =  0.371838 angstrom
           Maximum rank =  0   Radius =  0.325 angstrom
                   Q00  =   0.084973

H          x = -2.946068  y = -0.227787  z = -1.057772 angstrom
           Maximum rank =  0   Radius =  0.325 angstrom
                   Q00  =   0.111824

Total multipoles referred to origin at
           x =   0.000000,  y =    0.000000,  z =    0.000000 angstrom
                   Q00  =   1.000000

Finished at 16:56:22 on 27 Apr 2020

  DMA results are available in the Python driver through the
	  variable('DMA DISTRIBUTED MULTIPOLES')
  and
	  variable('DMA TOTAL MULTIPOLES')
  commands.

    Psi4 stopped on: Monday, 27 April 2020 04:56PM
    Psi4 wall time for execution: 0:00:19.21

*** Psi4 exiting successfully. Buy a developer a beer!
