                               Psi4 1.3.2 release

  ==> Input File <==

--------------------------------------------------------------------------
import numpy as np
set {scf_type pk
basis cc-pvdz
d_convergence 10
gdma_switch   0
gdma_limit    0
gdma_origin   [ 0.0,  0.0,  0.0 ]
}
molecule test {
    units Angstrom
    0 1
    --
    0 1
    C                0.360958183883044    -3.582305681856269    -0.573837846066840
    C               -1.068041816116956     0.422694318143731     0.051162153933160
    C               -0.875041816116956    -0.438305681856269     1.133162153933160
    C               -0.824041816116956    -0.039305681856269    -1.242837846066840
    C               -0.420041816116956    -1.727305681856269     0.929162153933160
    C               -0.342041816116956    -1.326305681856269    -1.429837846066840
    C               -0.139041816116956    -2.185305681856269    -0.351837846066840
    O               -1.555041816116956     1.682694318143731     0.284162153933160
    H               -1.066041816116956    -0.100305681856269     2.140162153933160
    H               -1.642041816116956     1.865694318143731     1.219162153933160
    H               -0.971041816116956     0.625694318143731    -2.080837846066840
    H               -0.263041816116956    -2.379305681856269     1.777162153933160
    H               -0.124041816116956    -1.666305681856269    -2.434837846066840
    H                1.244958183883044    -3.728305681856269     0.048162153933160
    H                0.664958183883044    -3.703305681856269    -1.614837846066840
    H               -0.382921816116956    -4.350695681856270    -0.316506846066840
    C                1.484958183883044     3.256694318143731     0.522162153933160
    C                2.985958183883044     2.943694318143731     0.441162153933160
    H                1.064958183883044     3.349694318143731    -0.477837846066840
    H                0.955958183883044     2.479694318143731     1.065162153933160
    H                1.307958183883044     4.167694318143731     1.085162153933160
    H                3.364958183883044     2.854694318143731     1.459162153933160
    H                3.522038183883044     3.747804318143731    -0.084219846066840
    H                3.147918183883044     1.991384318143731    -0.085021846066840

}
e, wfn = energy('scf', return_wfn=True)
gdma(wfn)
dmavals = variable('DMA DISTRIBUTED MULTIPOLES')
charges = np.array(dmavals)
print(charges)
np.save('SSI-165TYR-208ILE-1-dimer.npy', np.array(charges))--------------------------------------------------------------------------

*** tstart() called on ds3
*** at Mon Apr 27 23:28:49 2020

   => Loading Basis Set <=

    Name: CC-PVDZ
    Role: ORBITAL
    Keyword: BASIS
    atoms 1-7, 17-18  entry C          line   138 file /theoryfs2/ds/metcalf/miniconda2/envs/tf2gpu/share/psi4/basis/cc-pvdz.gbs
    atoms 8           entry O          line   198 file /theoryfs2/ds/metcalf/miniconda2/envs/tf2gpu/share/psi4/basis/cc-pvdz.gbs
    atoms 9-16, 19-24 entry H          line    22 file /theoryfs2/ds/metcalf/miniconda2/envs/tf2gpu/share/psi4/basis/cc-pvdz.gbs

         ---------------------------------------------------------
                                   SCF
               by Justin Turney, Rob Parrish, Andy Simmonett
                          and Daniel G. A. Smith
                              RHF Reference
                        1 Threads,    500 MiB Core
         ---------------------------------------------------------

  ==> Geometry <==

    Molecular point group: c1
    Full point group: C1

    Geometry (in Angstrom), charge = 0, multiplicity = 1:

       Center              X                  Y                   Z               Mass
    ------------   -----------------  -----------------  -----------------  -----------------
         C            0.360958183883    -3.582305681856    -0.573837846067    12.000000000000
         C           -1.068041816117     0.422694318144     0.051162153933    12.000000000000
         C           -0.875041816117    -0.438305681856     1.133162153933    12.000000000000
         C           -0.824041816117    -0.039305681856    -1.242837846067    12.000000000000
         C           -0.420041816117    -1.727305681856     0.929162153933    12.000000000000
         C           -0.342041816117    -1.326305681856    -1.429837846067    12.000000000000
         C           -0.139041816117    -2.185305681856    -0.351837846067    12.000000000000
         O           -1.555041816117     1.682694318144     0.284162153933    15.994914619570
         H           -1.066041816117    -0.100305681856     2.140162153933     1.007825032230
         H           -1.642041816117     1.865694318144     1.219162153933     1.007825032230
         H           -0.971041816117     0.625694318144    -2.080837846067     1.007825032230
         H           -0.263041816117    -2.379305681856     1.777162153933     1.007825032230
         H           -0.124041816117    -1.666305681856    -2.434837846067     1.007825032230
         H            1.244958183883    -3.728305681856     0.048162153933     1.007825032230
         H            0.664958183883    -3.703305681856    -1.614837846067     1.007825032230
         H           -0.382921816117    -4.350695681856    -0.316506846067     1.007825032230
         C            1.484958183883     3.256694318144     0.522162153933    12.000000000000
         C            2.985958183883     2.943694318144     0.441162153933    12.000000000000
         H            1.064958183883     3.349694318144    -0.477837846067     1.007825032230
         H            0.955958183883     2.479694318144     1.065162153933     1.007825032230
         H            1.307958183883     4.167694318144     1.085162153933     1.007825032230
         H            3.364958183883     2.854694318144     1.459162153933     1.007825032230
         H            3.522038183883     3.747804318144    -0.084219846067     1.007825032230
         H            3.147918183883     1.991384318144    -0.085021846067     1.007825032230

  Running in c1 symmetry.

  Rotational constants: A =      0.05709  B =      0.02033  C =      0.01796 [cm^-1]
  Rotational constants: A =   1711.52241  B =    609.46798  C =    538.56689 [MHz]
  Nuclear repulsion =  493.947974797796746

  Charge       = 0
  Multiplicity = 1
  Electrons    = 76
  Nalpha       = 38
  Nbeta        = 38

  ==> Algorithm <==

  SCF Algorithm Type is PK.
  DIIS enabled.
  MOM disabled.
  Fractional occupation disabled.
  Guess Type is SAD.
  Energy threshold   = 1.00e-06
  Density threshold  = 1.00e-10
  Integral threshold = 0.00e+00

  ==> Primary Basis <==

  Basis Set: CC-PVDZ
    Blend: CC-PVDZ
    Number of shells: 102
    Number of basis function: 210
    Number of Cartesian functions: 220
    Spherical Harmonics?: true
    Max angular momentum: 2

  ==> Pre-Iterations <==

   -------------------------------------------------------
    Irrep   Nso     Nmo     Nalpha   Nbeta   Ndocc  Nsocc
   -------------------------------------------------------
     A        210     210       0       0       0       0
   -------------------------------------------------------
    Total     210     210      38      38      38       0
   -------------------------------------------------------

  ==> Integral Setup <==

  Using integral reordering PK algorithm.
  Sizing the integral batches needed.
  Building batch lookup table.
   Calculation information:
      Number of atoms:                  24
      Number of AO shells:             102
      Number of primitives:            290
      Number of atomic orbitals:       220
      Number of basis functions:       210

      Integral cutoff                 1.00e-12
      Number of threads:                 1

	Batch   1 pq = [       0,    9405] index = [             0,44231715] size =     44231715
	Batch   2 pq = [    9405,   13301] index = [      44231715,88464951] size =     44233236
	Batch   3 pq = [   13301,   16290] index = [      88464951,132690195] size =     44225244
	Batch   4 pq = [   16290,   18810] index = [     132690195,176917455] size =     44227260
	Batch   5 pq = [   18810,   21030] index = [     176917455,221140965] size =     44223510
	Batch   6 pq = [   21030,   22155] index = [     221140965,245433090] size =     24292125
  Task number: 23
  Buffer size: 11059200
  Buffer per thread: 2
  We computed 11317272 shell quartets total.
  Whereas there are 13799631 unique shell quartets.

  ==> DiskJK: Disk-Based J/K Matrices <==

    J tasked:                  Yes
    K tasked:                  Yes
    wK tasked:                  No
    Memory [MiB]:              375
    Schwarz Cutoff:          1E-12

    OpenMP threads:              1

  Minimum eigenvalue in the overlap matrix is 3.1643052014E-04.
  Using Symmetric Orthogonalization.

  SCF Guess: Superposition of Atomic Densities via on-the-fly atomic UHF.

  ==> Iterations <==

                        Total Energy        Delta E     RMS |[F,P]|

   @RHF iter SAD:  -422.69446109679836   -4.22694e+02   0.00000e+00
   @RHF iter   1:  -423.59974391930990   -9.05283e-01   2.99699e-03 DIIS
   @RHF iter   2:  -423.81735173736666   -2.17608e-01   1.27827e-03 DIIS
   @RHF iter   3:  -423.85338202596074   -3.60303e-02   2.88432e-04 DIIS
   @RHF iter   4:  -423.85628990992939   -2.90788e-03   1.22988e-04 DIIS
   @RHF iter   5:  -423.85668077914340   -3.90869e-04   2.06391e-05 DIIS
   @RHF iter   6:  -423.85669837210196   -1.75930e-05   6.29591e-06 DIIS
   @RHF iter   7:  -423.85669997538150   -1.60328e-06   2.01175e-06 DIIS
   @RHF iter   8:  -423.85670018219145   -2.06810e-07   7.49382e-07 DIIS
   @RHF iter   9:  -423.85670021197251   -2.97811e-08   2.76377e-07 DIIS
   @RHF iter  10:  -423.85670021678652   -4.81401e-09   1.06949e-07 DIIS
   @RHF iter  11:  -423.85670021804663   -1.26010e-09   4.82570e-08 DIIS
   @RHF iter  12:  -423.85670021833891   -2.92289e-10   2.62444e-08 DIIS
   @RHF iter  13:  -423.85670021841202   -7.31006e-11   7.80422e-09 DIIS
   @RHF iter  14:  -423.85670021841770   -5.68434e-12   2.12523e-09 DIIS
   @RHF iter  15:  -423.85670021841395    3.75167e-12   7.16064e-10 DIIS
   @RHF iter  16:  -423.85670021841793   -3.97904e-12   2.49881e-10 DIIS
   @RHF iter  17:  -423.85670021841446    3.46745e-12   1.14127e-10 DIIS
   @RHF iter  18:  -423.85670021841560   -1.13687e-12   5.71108e-11 DIIS
  Energy and wave function converged.

  ==> Post-Iterations <==

    Orbital Energies [Eh]
    ---------------------

    Doubly Occupied:

       1A    -20.582738     2A    -11.300751     3A    -11.237607
       4A    -11.237145     5A    -11.233103     6A    -11.232272
       7A    -11.231322     8A    -11.227918     9A    -11.214516
      10A    -11.208858    11A     -1.397654    12A     -1.153547
      13A     -1.038812    14A     -1.020424    15A     -1.010318
      16A     -0.926673    17A     -0.843377    18A     -0.832475
      19A     -0.803944    20A     -0.732678    21A     -0.669294
      22A     -0.642096    23A     -0.608595    24A     -0.594210
      25A     -0.592378    26A     -0.588365    27A     -0.581174
      28A     -0.570559    29A     -0.565637    30A     -0.527473
      31A     -0.499972    32A     -0.494841    33A     -0.484106
      34A     -0.481182    35A     -0.477513    36A     -0.467802
      37A     -0.341178    38A     -0.301585

    Virtual:

      39A      0.130312    40A      0.155185    41A      0.172125
      42A      0.186549    43A      0.196966    44A      0.214267
      45A      0.220826    46A      0.244135    47A      0.253548
      48A      0.267233    49A      0.268539    50A      0.273794
      51A      0.278472    52A      0.288503    53A      0.297287
      54A      0.309998    55A      0.369725    56A      0.375125
      57A      0.397964    58A      0.427781    59A      0.453758
      60A      0.483341    61A      0.497898    62A      0.512407
      63A      0.589784    64A      0.599795    65A      0.611150
      66A      0.615884    67A      0.628241    68A      0.647552
      69A      0.653468    70A      0.675018    71A      0.688931
      72A      0.695188    73A      0.712845    74A      0.725741
      75A      0.728502    76A      0.736926    77A      0.742968
      78A      0.770676    79A      0.775202    80A      0.793298
      81A      0.805440    82A      0.827517    83A      0.841413
      84A      0.857709    85A      0.874940    86A      0.884759
      87A      0.888717    88A      0.894023    89A      0.897113
      90A      0.899725    91A      0.905442    92A      0.907234
      93A      0.920494    94A      0.927673    95A      0.932643
      96A      0.944334    97A      0.951895    98A      0.967371
      99A      0.989953   100A      1.013232   101A      1.031596
     102A      1.069885   103A      1.122353   104A      1.129777
     105A      1.145981   106A      1.149360   107A      1.151500
     108A      1.166984   109A      1.213355   110A      1.240041
     111A      1.244215   112A      1.248821   113A      1.273184
     114A      1.291263   115A      1.305750   116A      1.314055
     117A      1.320684   118A      1.353519   119A      1.365469
     120A      1.387780   121A      1.472365   122A      1.479926
     123A      1.492767   124A      1.512948   125A      1.528311
     126A      1.556491   127A      1.583454   128A      1.620125
     129A      1.631403   130A      1.680999   131A      1.685437
     132A      1.687036   133A      1.707614   134A      1.734558
     135A      1.748449   136A      1.784434   137A      1.806582
     138A      1.809731   139A      1.866951   140A      1.870339
     141A      1.878456   142A      1.891296   143A      1.900904
     144A      1.905872   145A      1.913494   146A      1.920484
     147A      1.925500   148A      1.946179   149A      1.949270
     150A      1.953929   151A      1.959889   152A      1.966845
     153A      1.967595   154A      1.975476   155A      1.997127
     156A      2.009927   157A      2.021684   158A      2.045349
     159A      2.067046   160A      2.072352   161A      2.075584
     162A      2.098108   163A      2.117020   164A      2.122406
     165A      2.145945   166A      2.188159   167A      2.200111
     168A      2.220017   169A      2.258294   170A      2.272971
     171A      2.300646   172A      2.303485   173A      2.331456
     174A      2.362009   175A      2.382354   176A      2.399152
     177A      2.457601   178A      2.460307   179A      2.473057
     180A      2.479861   181A      2.514021   182A      2.530124
     183A      2.546456   184A      2.580578   185A      2.598670
     186A      2.615411   187A      2.646119   188A      2.741202
     189A      2.767168   190A      2.770514   191A      2.795379
     192A      2.805973   193A      2.808128   194A      2.845714
     195A      2.856790   196A      2.874119   197A      2.894316
     198A      2.954640   199A      2.976305   200A      2.983567
     201A      3.002461   202A      3.090371   203A      3.131622
     204A      3.253269   205A      3.288448   206A      3.346624
     207A      3.574824   208A      3.665982   209A      3.984465
     210A      4.193466

    Final Occupation by Irrep:
              A
    DOCC [    38 ]

  @RHF Final Energy:  -423.85670021841560

   => Energetics <=

    Nuclear Repulsion Energy =            493.9479747977967463
    One-Electron Energy =               -1553.7011606009691604
    Two-Electron Energy =                 635.8964855847568742
    Total Energy =                       -423.8567002184156536

Computation Completed

Properties will be evaluated at   0.000000,   0.000000,   0.000000 [a0]

Properties computed using the SCF density matrix

  Nuclear Dipole Moment: [e a0]
     X:    10.1402      Y:     4.8399      Z:     1.5951

  Electronic Dipole Moment: [e a0]
     X:   -10.0784      Y:    -5.1600      Z:    -1.1119

  Dipole Moment: [e a0]
     X:     0.0619      Y:    -0.3200      Z:     0.4832     Total:     0.5828

  Dipole Moment: [D]
     X:     0.1572      Y:    -0.8134      Z:     1.2281     Total:     1.4814

*** tstop() called on ds3 at Mon Apr 27 23:31:03 2020
Module time:
	user time   =      94.20 seconds =       1.57 minutes
	system time =      47.12 seconds =       0.79 minutes
	total time  =        134 seconds =       2.23 minutes
Total time:
	user time   =      94.20 seconds =       1.57 minutes
	system time =      47.12 seconds =       0.79 minutes
	total time  =        134 seconds =       2.23 minutes
                                     G D M A

                                 by Anthony Stone

                           version 2.2.06, 22 June 2011

               Distributed Multipoles from Gaussian wavefunctions

Starting at 23:31:3 on 27 Apr 2020

Using SCF density matrix from file ./SSI/SSI-165TYR-208ILE-1-dimer.test.2962.fchk

                         Distributed Multipole Analysis

Standard DMA

Positions and radii in angstrom
Multipole moments in atomic units, ea_0^k for rank k

C          x =  0.360958  y = -3.582306  z = -0.573838 angstrom
           Maximum rank =  0   Radius =  0.650 angstrom
                   Q00  =  -0.191585

C          x = -1.068042  y =  0.422694  z =  0.051162 angstrom
           Maximum rank =  0   Radius =  0.650 angstrom
                   Q00  =   0.274104

C          x = -0.875042  y = -0.438306  z =  1.133162 angstrom
           Maximum rank =  0   Radius =  0.650 angstrom
                   Q00  =  -0.162390

C          x = -0.824042  y = -0.039306  z = -1.242838 angstrom
           Maximum rank =  0   Radius =  0.650 angstrom
                   Q00  =  -0.116087

C          x = -0.420042  y = -1.727306  z =  0.929162 angstrom
           Maximum rank =  0   Radius =  0.650 angstrom
                   Q00  =  -0.055703

C          x = -0.342042  y = -1.326306  z = -1.429838 angstrom
           Maximum rank =  0   Radius =  0.650 angstrom
                   Q00  =   0.062041

C          x = -0.139042  y = -2.185306  z = -0.351838 angstrom
           Maximum rank =  0   Radius =  0.650 angstrom
                   Q00  =  -0.141583

O          x = -1.555042  y =  1.682694  z =  0.284162 angstrom
           Maximum rank =  0   Radius =  0.650 angstrom
                   Q00  =  -0.642187

H          x = -1.066042  y = -0.100306  z =  2.140162 angstrom
           Maximum rank =  0   Radius =  0.325 angstrom
                   Q00  =   0.069259

H          x = -1.642042  y =  1.865694  z =  1.219162 angstrom
           Maximum rank =  0   Radius =  0.325 angstrom
                   Q00  =   0.407901

H          x = -0.971042  y =  0.625694  z = -2.080838 angstrom
           Maximum rank =  0   Radius =  0.325 angstrom
                   Q00  =   0.080764

H          x = -0.263042  y = -2.379306  z =  1.777162 angstrom
           Maximum rank =  0   Radius =  0.325 angstrom
                   Q00  =   0.066118

H          x = -0.124042  y = -1.666306  z = -2.434838 angstrom
           Maximum rank =  0   Radius =  0.325 angstrom
                   Q00  =   0.063746

H          x =  1.244958  y = -3.728306  z =  0.048162 angstrom
           Maximum rank =  0   Radius =  0.325 angstrom
                   Q00  =   0.094696

H          x =  0.664958  y = -3.703306  z = -1.614838 angstrom
           Maximum rank =  0   Radius =  0.325 angstrom
                   Q00  =   0.096648

H          x = -0.382922  y = -4.350696  z = -0.316507 angstrom
           Maximum rank =  0   Radius =  0.325 angstrom
                   Q00  =   0.098960

C          x =  1.484958  y =  3.256694  z =  0.522162 angstrom
           Maximum rank =  0   Radius =  0.650 angstrom
                   Q00  =  -0.229070

C          x =  2.985958  y =  2.943694  z =  0.441162 angstrom
           Maximum rank =  0   Radius =  0.650 angstrom
                   Q00  =  -0.240365

H          x =  1.064958  y =  3.349694  z = -0.477838 angstrom
           Maximum rank =  0   Radius =  0.325 angstrom
                   Q00  =   0.085262

H          x =  0.955958  y =  2.479694  z =  1.065162 angstrom
           Maximum rank =  0   Radius =  0.325 angstrom
                   Q00  =   0.071381

H          x =  1.307958  y =  4.167694  z =  1.085162 angstrom
           Maximum rank =  0   Radius =  0.325 angstrom
                   Q00  =   0.071853

H          x =  3.364958  y =  2.854694  z =  1.459162 angstrom
           Maximum rank =  0   Radius =  0.325 angstrom
                   Q00  =   0.075451

H          x =  3.522038  y =  3.747804  z = -0.084220 angstrom
           Maximum rank =  0   Radius =  0.325 angstrom
                   Q00  =   0.078614

H          x =  3.147918  y =  1.991384  z = -0.085022 angstrom
           Maximum rank =  0   Radius =  0.325 angstrom
                   Q00  =   0.082174

Total multipoles referred to origin at
           x =   0.000000,  y =    0.000000,  z =    0.000000 angstrom
                   Q00  =  -0.000000

Finished at 23:31:3 on 27 Apr 2020

  DMA results are available in the Python driver through the
	  variable('DMA DISTRIBUTED MULTIPOLES')
  and
	  variable('DMA TOTAL MULTIPOLES')
  commands.

    Psi4 stopped on: Monday, 27 April 2020 11:31PM
    Psi4 wall time for execution: 0:02:14.36

*** Psi4 exiting successfully. Buy a developer a beer!
