                               Psi4 1.3.2 release

  ==> Input File <==

--------------------------------------------------------------------------
import numpy as np
set {scf_type pk
basis cc-pvdz
d_convergence 10
gdma_switch   0
gdma_limit    0
gdma_origin   [ 0.0,  0.0,  0.0 ]
}
molecule test {
    units Angstrom
    0 1
    --
    0 1
    C                1.577373737425261    -2.941994331063312     1.610133984684430
    C               -0.312626262574739     0.301005668936688     1.338133984684430
    C               -1.391626262574739    -0.020994331063312     0.541133984684430
    C                0.627373737425261    -0.656994331063312     1.658133984684430
    C                0.496373737425261    -1.967994331063312     1.220133984684430
    C               -1.560626262574739    -1.330994331063312     0.100133984684430
    C               -0.608626262574739    -2.303994331063312     0.411133984684430
    O               -2.301626262574739     0.947005668936688     0.226133984684430
    H               -0.198626262574739     1.317005668936688     1.690133984684430
    H                1.473373737425261    -0.385994331063312     2.267133984684430
    H               -2.415626262574739    -1.590994331063312    -0.507866015315570
    H               -3.012626262574739     0.605005668936688    -0.329866015315570
    H                1.751373737425261    -2.850994331063312     2.684133984684430
    H                2.494373737425261    -2.627994331063312     1.113133984684430
    H               -0.753626262574739    -3.309994331063312     0.042133984684430
    H                1.395503737425261    -4.000715331063312     1.373418984684430
    C                0.584373737425261     2.343005668936688    -1.813866015315570
    C                1.976373737425261     2.116005668936688    -1.297866015315570
    C                0.810373737425261     2.682005668936688    -3.295866015315570
    H                0.073373737425261     3.147005668936688    -1.284866015315570
    H                0.015373737425261     1.415005668936688    -1.738866015315570
    H                2.439373737425261     3.063005668936688    -1.016866015315570
    H                1.945373737425261     1.433005668936688    -0.449866015315570
    H                0.994373737425261     3.752005668936688    -3.388866015315570
    H               -0.061626262574739     2.408005668936688    -3.891866015315570
    H                2.507543737425261     1.690315668936688    -2.161955015315570
    H                1.700583737425261     2.112045668936688    -3.600279015315570

}
e, wfn = energy('scf', return_wfn=True)
gdma(wfn)
dmavals = variable('DMA DISTRIBUTED MULTIPOLES')
charges = np.array(dmavals)
print(charges)
np.save('SSI-132TYR-136PRO-1-dimer.npy', np.array(charges))--------------------------------------------------------------------------

*** tstart() called on ds3
*** at Tue Apr 28 14:48:41 2020

   => Loading Basis Set <=

    Name: CC-PVDZ
    Role: ORBITAL
    Keyword: BASIS
    atoms 1-7, 17-19  entry C          line   138 file /theoryfs2/ds/metcalf/miniconda2/envs/tf2gpu/share/psi4/basis/cc-pvdz.gbs
    atoms 8           entry O          line   198 file /theoryfs2/ds/metcalf/miniconda2/envs/tf2gpu/share/psi4/basis/cc-pvdz.gbs
    atoms 9-16, 20-27 entry H          line    22 file /theoryfs2/ds/metcalf/miniconda2/envs/tf2gpu/share/psi4/basis/cc-pvdz.gbs

         ---------------------------------------------------------
                                   SCF
               by Justin Turney, Rob Parrish, Andy Simmonett
                          and Daniel G. A. Smith
                              RHF Reference
                        1 Threads,    500 MiB Core
         ---------------------------------------------------------

  ==> Geometry <==

    Molecular point group: c1
    Full point group: C1

    Geometry (in Angstrom), charge = 0, multiplicity = 1:

       Center              X                  Y                   Z               Mass
    ------------   -----------------  -----------------  -----------------  -----------------
         C            1.577373737425    -2.941994331063     1.610133984684    12.000000000000
         C           -0.312626262575     0.301005668937     1.338133984684    12.000000000000
         C           -1.391626262575    -0.020994331063     0.541133984684    12.000000000000
         C            0.627373737425    -0.656994331063     1.658133984684    12.000000000000
         C            0.496373737425    -1.967994331063     1.220133984684    12.000000000000
         C           -1.560626262575    -1.330994331063     0.100133984684    12.000000000000
         C           -0.608626262575    -2.303994331063     0.411133984684    12.000000000000
         O           -2.301626262575     0.947005668937     0.226133984684    15.994914619570
         H           -0.198626262575     1.317005668937     1.690133984684     1.007825032230
         H            1.473373737425    -0.385994331063     2.267133984684     1.007825032230
         H           -2.415626262575    -1.590994331063    -0.507866015316     1.007825032230
         H           -3.012626262575     0.605005668937    -0.329866015316     1.007825032230
         H            1.751373737425    -2.850994331063     2.684133984684     1.007825032230
         H            2.494373737425    -2.627994331063     1.113133984684     1.007825032230
         H           -0.753626262575    -3.309994331063     0.042133984684     1.007825032230
         H            1.395503737425    -4.000715331063     1.373418984684     1.007825032230
         C            0.584373737425     2.343005668937    -1.813866015316    12.000000000000
         C            1.976373737425     2.116005668937    -1.297866015316    12.000000000000
         C            0.810373737425     2.682005668937    -3.295866015316    12.000000000000
         H            0.073373737425     3.147005668937    -1.284866015316     1.007825032230
         H            0.015373737425     1.415005668937    -1.738866015316     1.007825032230
         H            2.439373737425     3.063005668937    -1.016866015316     1.007825032230
         H            1.945373737425     1.433005668937    -0.449866015316     1.007825032230
         H            0.994373737425     3.752005668937    -3.388866015316     1.007825032230
         H           -0.061626262575     2.408005668937    -3.891866015316     1.007825032230
         H            2.507543737425     1.690315668937    -2.161955015316     1.007825032230
         H            1.700583737425     2.112045668937    -3.600279015316     1.007825032230

  Running in c1 symmetry.

  Rotational constants: A =      0.04419  B =      0.01806  C =      0.01504 [cm^-1]
  Rotational constants: A =   1324.75860  B =    541.44388  C =    450.99324 [MHz]
  Nuclear repulsion =  584.475234723018502

  Charge       = 0
  Multiplicity = 1
  Electrons    = 84
  Nalpha       = 42
  Nbeta        = 42

  ==> Algorithm <==

  SCF Algorithm Type is PK.
  DIIS enabled.
  MOM disabled.
  Fractional occupation disabled.
  Guess Type is SAD.
  Energy threshold   = 1.00e-06
  Density threshold  = 1.00e-10
  Integral threshold = 0.00e+00

  ==> Primary Basis <==

  Basis Set: CC-PVDZ
    Blend: CC-PVDZ
    Number of shells: 114
    Number of basis function: 234
    Number of Cartesian functions: 245
    Spherical Harmonics?: true
    Max angular momentum: 2

  ==> Pre-Iterations <==

   -------------------------------------------------------
    Irrep   Nso     Nmo     Nalpha   Nbeta   Ndocc  Nsocc
   -------------------------------------------------------
     A        234     234       0       0       0       0
   -------------------------------------------------------
    Total     234     234      42      42      42       0
   -------------------------------------------------------

  ==> Integral Setup <==

  Using integral reordering PK algorithm.
  Sizing the integral batches needed.
  Building batch lookup table.
   Calculation information:
      Number of atoms:                  27
      Number of AO shells:             114
      Number of primitives:            322
      Number of atomic orbitals:       245
      Number of basis functions:       234

      Integral cutoff                 1.00e-12
      Number of threads:                 1

	Batch   1 pq = [       0,    9405] index = [             0,44231715] size =     44231715
	Batch   2 pq = [    9405,   13301] index = [      44231715,88464951] size =     44233236
	Batch   3 pq = [   13301,   16290] index = [      88464951,132690195] size =     44225244
	Batch   4 pq = [   16290,   18810] index = [     132690195,176917455] size =     44227260
	Batch   5 pq = [   18810,   21030] index = [     176917455,221140965] size =     44223510
	Batch   6 pq = [   21030,   23037] index = [     221140965,265363203] size =     44222238
	Batch   7 pq = [   23037,   24883] index = [     265363203,309594286] size =     44231083
	Batch   8 pq = [   24883,   26601] index = [     309594286,353819901] size =     44225615
	Batch   9 pq = [   26601,   27495] index = [     353819901,378001260] size =     24181359
  Task number: 35
  Buffer size: 11059200
  Buffer per thread: 2
  We computed 19397935 shell quartets total.
  Whereas there are 21487290 unique shell quartets.

  ==> DiskJK: Disk-Based J/K Matrices <==

    J tasked:                  Yes
    K tasked:                  Yes
    wK tasked:                  No
    Memory [MiB]:              375
    Schwarz Cutoff:          1E-12

    OpenMP threads:              1

  Minimum eigenvalue in the overlap matrix is 3.2330511864E-04.
  Using Symmetric Orthogonalization.

  SCF Guess: Superposition of Atomic Densities via on-the-fly atomic UHF.

  ==> Iterations <==

                        Total Energy        Delta E     RMS |[F,P]|

   @RHF iter SAD:  -461.83785574519044   -4.61838e+02   0.00000e+00
   @RHF iter   1:  -462.58337587133354   -7.45520e-01   2.85715e-03 DIIS
   @RHF iter   2:  -462.82941947320728   -2.46044e-01   1.22828e-03 DIIS
   @RHF iter   3:  -462.87094411384538   -4.15246e-02   2.67848e-04 DIIS
   @RHF iter   4:  -462.87419345546198   -3.24934e-03   1.00060e-04 DIIS
   @RHF iter   5:  -462.87451333199647   -3.19877e-04   2.08916e-05 DIIS
   @RHF iter   6:  -462.87453318827789   -1.98563e-05   6.49047e-06 DIIS
   @RHF iter   7:  -462.87453527138598   -2.08311e-06   1.86864e-06 DIIS
   @RHF iter   8:  -462.87453552124589   -2.49860e-07   7.21219e-07 DIIS
   @RHF iter   9:  -462.87453556194873   -4.07028e-08   3.05386e-07 DIIS
   @RHF iter  10:  -462.87453557023093   -8.28220e-09   1.21466e-07 DIIS
   @RHF iter  11:  -462.87453557277377   -2.54283e-09   5.50061e-08 DIIS
   @RHF iter  12:  -462.87453557328257   -5.08805e-10   2.48262e-08 DIIS
   @RHF iter  13:  -462.87453557336153   -7.89555e-11   8.43133e-09 DIIS
   @RHF iter  14:  -462.87453557337074   -9.20863e-12   2.00206e-09 DIIS
   @RHF iter  15:  -462.87453557336875    1.98952e-12   8.19021e-10 DIIS
   @RHF iter  16:  -462.87453557336835    3.97904e-13   3.33339e-10 DIIS
   @RHF iter  17:  -462.87453557337301   -4.66116e-12   1.59783e-10 DIIS
   @RHF iter  18:  -462.87453557336801    5.00222e-12   7.91681e-11 DIIS
  Energy and wave function converged.

  ==> Post-Iterations <==

    Orbital Energies [Eh]
    ---------------------

    Doubly Occupied:

       1A    -20.583417     2A    -11.297400     3A    -11.242293
       4A    -11.236715     5A    -11.234695     6A    -11.234598
       7A    -11.228884     8A    -11.228133     9A    -11.207303
      10A    -11.205217    11A    -11.202204    12A     -1.398247
      13A     -1.152622    14A     -1.057852    15A     -1.038948
      16A     -1.019959    17A     -0.927248    18A     -0.906318
      19A     -0.844489    20A     -0.803013    21A     -0.789604
      22A     -0.732683    23A     -0.665549    24A     -0.643012
      25A     -0.628340    26A     -0.609694    27A     -0.605157
      28A     -0.588089    29A     -0.585753    30A     -0.569896
      31A     -0.565883    32A     -0.534808    33A     -0.530825
      34A     -0.506629    35A     -0.498019    36A     -0.485923
      37A     -0.477516    38A     -0.467373    39A     -0.459813
      40A     -0.445709    41A     -0.340381    42A     -0.301076

    Virtual:

      43A      0.129873    44A      0.154268    45A      0.175000
      46A      0.182661    47A      0.195613    48A      0.214570
      49A      0.216807    50A      0.232881    51A      0.242274
      52A      0.253062    53A      0.258535    54A      0.265805
      55A      0.273405    56A      0.282674    57A      0.291643
      58A      0.305904    59A      0.328376    60A      0.339026
      61A      0.371042    62A      0.373100    63A      0.383531
      64A      0.423490    65A      0.447652    66A      0.456757
      67A      0.478671    68A      0.494017    69A      0.513144
      70A      0.568334    71A      0.599761    72A      0.609122
      73A      0.619644    74A      0.623404    75A      0.636087
      76A      0.656921    77A      0.664213    78A      0.677025
      79A      0.687799    80A      0.707442    81A      0.719642
      82A      0.731174    83A      0.737350    84A      0.766585
      85A      0.769804    86A      0.783615    87A      0.792569
      88A      0.804693    89A      0.810994    90A      0.819841
      91A      0.830028    92A      0.852183    93A      0.862625
      94A      0.871212    95A      0.877793    96A      0.884481
      97A      0.885907    98A      0.892636    99A      0.897779
     100A      0.906827   101A      0.909618   102A      0.913866
     103A      0.926008   104A      0.931368   105A      0.939234
     106A      0.943327   107A      0.951937   108A      0.961583
     109A      0.967982   110A      0.991892   111A      1.015058
     112A      1.021469   113A      1.052067   114A      1.054755
     115A      1.102950   116A      1.122560   117A      1.127571
     118A      1.150698   119A      1.157418   120A      1.177136
     121A      1.209960   122A      1.219724   123A      1.247617
     124A      1.248156   125A      1.256067   126A      1.279188
     127A      1.288802   128A      1.308971   129A      1.320152
     130A      1.354443   131A      1.365115   132A      1.398821
     133A      1.431180   134A      1.465640   135A      1.484169
     136A      1.499111   137A      1.502390   138A      1.536710
     139A      1.568842   140A      1.611351   141A      1.615415
     142A      1.628469   143A      1.633653   144A      1.639579
     145A      1.679396   146A      1.689769   147A      1.729216
     148A      1.735265   149A      1.745292   150A      1.751978
     151A      1.789845   152A      1.799140   153A      1.809888
     154A      1.821059   155A      1.849585   156A      1.873266
     157A      1.886184   158A      1.890616   159A      1.902118
     160A      1.911129   161A      1.915778   162A      1.921578
     163A      1.929408   164A      1.940670   165A      1.949961
     166A      1.953212   167A      1.958821   168A      1.965530
     169A      1.967893   170A      1.990662   171A      1.993249
     172A      2.018751   173A      2.027656   174A      2.036748
     175A      2.055678   176A      2.055911   177A      2.067912
     178A      2.077005   179A      2.097451   180A      2.115627
     181A      2.122984   182A      2.149563   183A      2.157596
     184A      2.166358   185A      2.190789   186A      2.209994
     187A      2.223001   188A      2.240105   189A      2.267792
     190A      2.273059   191A      2.301845   192A      2.325855
     193A      2.362733   194A      2.376100   195A      2.388416
     196A      2.408484   197A      2.454208   198A      2.459214
     199A      2.463907   200A      2.470820   201A      2.494234
     202A      2.510087   203A      2.521833   204A      2.563445
     205A      2.582450   206A      2.623267   207A      2.640481
     208A      2.651816   209A      2.705375   210A      2.740644
     211A      2.762878   212A      2.768110   213A      2.772823
     214A      2.797094   215A      2.806619   216A      2.812106
     217A      2.839315   218A      2.842226   219A      2.886410
     220A      2.894675   221A      2.933592   222A      2.961807
     223A      2.979871   224A      2.997237   225A      3.068968
     226A      3.093726   227A      3.136456   228A      3.249583
     229A      3.288494   230A      3.346772   231A      3.576626
     232A      3.683877   233A      3.966809   234A      4.196917

    Final Occupation by Irrep:
              A
    DOCC [    42 ]

  @RHF Final Energy:  -462.87453557336801

   => Energetics <=

    Nuclear Repulsion Energy =            584.4752347230185023
    One-Electron Energy =               -1786.5369676357440767
    Two-Electron Energy =                 739.1871973393575672
    Total Energy =                       -462.8745355733680071

Computation Completed

Properties will be evaluated at   0.000000,   0.000000,   0.000000 [a0]

Properties computed using the SCF density matrix

  Nuclear Dipole Moment: [e a0]
     X:     9.6903      Y:     5.7941      Z:    -8.6246

  Electronic Dipole Moment: [e a0]
     X:    -9.8922      Y:    -6.3223      Z:     8.4757

  Dipole Moment: [e a0]
     X:    -0.2019      Y:    -0.5282      Z:    -0.1490     Total:     0.5847

  Dipole Moment: [D]
     X:    -0.5131      Y:    -1.3425      Z:    -0.3786     Total:     1.4862

*** tstop() called on ds3 at Tue Apr 28 14:53:33 2020
Module time:
	user time   =     142.76 seconds =       2.38 minutes
	system time =      52.73 seconds =       0.88 minutes
	total time  =        292 seconds =       4.87 minutes
Total time:
	user time   =     142.76 seconds =       2.38 minutes
	system time =      52.73 seconds =       0.88 minutes
	total time  =        292 seconds =       4.87 minutes
                                     G D M A

                                 by Anthony Stone

                           version 2.2.06, 22 June 2011

               Distributed Multipoles from Gaussian wavefunctions

Starting at 14:53:33 on 28 Apr 2020

Using SCF density matrix from file ./SSI/SSI-132TYR-136PRO-1-dimer.test.14149.fchk

                         Distributed Multipole Analysis

Standard DMA

Positions and radii in angstrom
Multipole moments in atomic units, ea_0^k for rank k

C          x =  1.577374  y = -2.941994  z =  1.610134 angstrom
           Maximum rank =  0   Radius =  0.650 angstrom
                   Q00  =  -0.201827

C          x = -0.312626  y =  0.301006  z =  1.338134 angstrom
           Maximum rank =  0   Radius =  0.650 angstrom
                   Q00  =  -0.065534

C          x = -1.391626  y = -0.020994  z =  0.541134 angstrom
           Maximum rank =  0   Radius =  0.650 angstrom
                   Q00  =   0.318755

C          x =  0.627374  y = -0.656994  z =  1.658134 angstrom
           Maximum rank =  0   Radius =  0.650 angstrom
                   Q00  =   0.025588

C          x =  0.496374  y = -1.967994  z =  1.220134 angstrom
           Maximum rank =  0   Radius =  0.650 angstrom
                   Q00  =  -0.122908

C          x = -1.560626  y = -1.330994  z =  0.100134 angstrom
           Maximum rank =  0   Radius =  0.650 angstrom
                   Q00  =  -0.195749

C          x = -0.608626  y = -2.303994  z =  0.411134 angstrom
           Maximum rank =  0   Radius =  0.650 angstrom
                   Q00  =  -0.063966

O          x = -2.301626  y =  0.947006  z =  0.226134 angstrom
           Maximum rank =  0   Radius =  0.650 angstrom
                   Q00  =  -0.672428

H          x = -0.198626  y =  1.317006  z =  1.690134 angstrom
           Maximum rank =  0   Radius =  0.325 angstrom
                   Q00  =   0.079622

H          x =  1.473374  y = -0.385994  z =  2.267134 angstrom
           Maximum rank =  0   Radius =  0.325 angstrom
                   Q00  =   0.058913

H          x = -2.415626  y = -1.590994  z = -0.507866 angstrom
           Maximum rank =  0   Radius =  0.325 angstrom
                   Q00  =   0.071854

H          x = -3.012626  y =  0.605006  z = -0.329866 angstrom
           Maximum rank =  0   Radius =  0.325 angstrom
                   Q00  =   0.406409

H          x =  1.751374  y = -2.850994  z =  2.684134 angstrom
           Maximum rank =  0   Radius =  0.325 angstrom
                   Q00  =   0.095137

H          x =  2.494374  y = -2.627994  z =  1.113134 angstrom
           Maximum rank =  0   Radius =  0.325 angstrom
                   Q00  =   0.097566

H          x = -0.753626  y = -3.309994  z =  0.042134 angstrom
           Maximum rank =  0   Radius =  0.325 angstrom
                   Q00  =   0.072170

H          x =  1.395504  y = -4.000715  z =  1.373419 angstrom
           Maximum rank =  0   Radius =  0.325 angstrom
                   Q00  =   0.100604

C          x =  0.584374  y =  2.343006  z = -1.813866 angstrom
           Maximum rank =  0   Radius =  0.650 angstrom
                   Q00  =  -0.100934

C          x =  1.976374  y =  2.116006  z = -1.297866 angstrom
           Maximum rank =  0   Radius =  0.650 angstrom
                   Q00  =  -0.220537

C          x =  0.810374  y =  2.682006  z = -3.295866 angstrom
           Maximum rank =  0   Radius =  0.650 angstrom
                   Q00  =  -0.218074

H          x =  0.073374  y =  3.147006  z = -1.284866 angstrom
           Maximum rank =  0   Radius =  0.325 angstrom
                   Q00  =   0.056628

H          x =  0.015374  y =  1.415006  z = -1.738866 angstrom
           Maximum rank =  0   Radius =  0.325 angstrom
                   Q00  =   0.058550

H          x =  2.439374  y =  3.063006  z = -1.016866 angstrom
           Maximum rank =  0   Radius =  0.325 angstrom
                   Q00  =   0.071451

H          x =  1.945374  y =  1.433006  z = -0.449866 angstrom
           Maximum rank =  0   Radius =  0.325 angstrom
                   Q00  =   0.084017

H          x =  0.994374  y =  3.752006  z = -3.388866 angstrom
           Maximum rank =  0   Radius =  0.325 angstrom
                   Q00  =   0.076518

H          x = -0.061626  y =  2.408006  z = -3.891866 angstrom
           Maximum rank =  0   Radius =  0.325 angstrom
                   Q00  =   0.077275

H          x =  2.507544  y =  1.690316  z = -2.161955 angstrom
           Maximum rank =  0   Radius =  0.325 angstrom
                   Q00  =   0.056453

H          x =  1.700584  y =  2.112046  z = -3.600279 angstrom
           Maximum rank =  0   Radius =  0.325 angstrom
                   Q00  =   0.054448

Total multipoles referred to origin at
           x =   0.000000,  y =    0.000000,  z =    0.000000 angstrom
                   Q00  =  -0.000000

Finished at 14:53:34 on 28 Apr 2020

  DMA results are available in the Python driver through the
	  variable('DMA DISTRIBUTED MULTIPOLES')
  and
	  variable('DMA TOTAL MULTIPOLES')
  commands.

    Psi4 stopped on: Tuesday, 28 April 2020 02:53PM
    Psi4 wall time for execution: 0:04:52.37

*** Psi4 exiting successfully. Buy a developer a beer!
