                               Psi4 1.3.2 release

  ==> Input File <==

--------------------------------------------------------------------------
import numpy as np
set {scf_type pk
basis cc-pvdz
d_convergence 10
gdma_switch   0
gdma_limit    0
gdma_origin   [ 0.0,  0.0,  0.0 ]
}
molecule test {
    units Angstrom
    0 1
    --
    0 1
    C                0.311070686362762     1.394672136834224    -0.940133379043197
    C                0.053070686362762     2.686672136834225    -1.703133379043197
    C                2.403070686362762     0.320672136834224    -0.257133379043197
    N                1.700070686362762     0.949672136834224    -1.163133379043197
    N                1.837070686362762    -0.133327863165776     0.866866620956803
    N                3.680070686362762     0.126672136834224    -0.520133379043197
    H                0.119070686362762     1.584672136834224     0.117866620956803
    H               -0.380929313637238     0.633672136834224    -1.300133379043197
    H               -0.983929313637238     2.989672136834224    -1.555133379043197
    H                0.202070686362762     2.484672136834225    -2.763133379043196
    H                2.182070686362763     1.287672136834224    -1.999133379043196
    H                0.826070686362762    -0.056327863165776     1.019866620956803
    H                2.390070686362762    -0.619327863165776     1.549866620956803
    H                4.073070686362763     0.498672136834224    -1.392133379043197
    H                4.274070686362762    -0.356327863165776     0.130866620956803
    H                0.722130686362762     3.496512136834224    -1.376783379043196
    C               -1.709929313637238    -1.690327863165776    -0.094133379043197
    C               -2.888929313637238    -1.323327863165776    -1.018133379043197
    C               -1.807929313637238    -0.986327863165776     1.246866620956803
    O               -2.887929313637238    -1.010327863165776     1.872866620956803
    O               -0.790929313637238    -0.370327863165776     1.659866620956803
    H               -1.700929313637238    -2.764327863165776     0.060866620956803
    H               -0.768929313637238    -1.433327863165776    -0.585133379043197
    H               -2.808929313637238    -0.268327863165776    -1.288133379043197
    H               -3.829929313637237    -1.498327863165776    -0.494133379043197
    H               -2.871559313637237    -1.956777863165776    -1.917263379043197

}
e, wfn = energy('scf', return_wfn=True)
gdma(wfn)
dmavals = variable('DMA DISTRIBUTED MULTIPOLES')
charges = np.array(dmavals)
print(charges)
np.save('SSI-241ARG-272GLU-1-dimer.npy', np.array(charges))--------------------------------------------------------------------------

*** tstart() called on ds3
*** at Tue Apr 28 19:55:24 2020

   => Loading Basis Set <=

    Name: CC-PVDZ
    Role: ORBITAL
    Keyword: BASIS
    atoms 1-3, 17-19  entry C          line   138 file /theoryfs2/ds/metcalf/miniconda2/envs/tf2gpu/share/psi4/basis/cc-pvdz.gbs
    atoms 4-6         entry N          line   168 file /theoryfs2/ds/metcalf/miniconda2/envs/tf2gpu/share/psi4/basis/cc-pvdz.gbs
    atoms 7-16, 22-26 entry H          line    22 file /theoryfs2/ds/metcalf/miniconda2/envs/tf2gpu/share/psi4/basis/cc-pvdz.gbs
    atoms 20-21       entry O          line   198 file /theoryfs2/ds/metcalf/miniconda2/envs/tf2gpu/share/psi4/basis/cc-pvdz.gbs

         ---------------------------------------------------------
                                   SCF
               by Justin Turney, Rob Parrish, Andy Simmonett
                          and Daniel G. A. Smith
                              RHF Reference
                        1 Threads,    500 MiB Core
         ---------------------------------------------------------

  ==> Geometry <==

    Molecular point group: c1
    Full point group: C1

    Geometry (in Angstrom), charge = 0, multiplicity = 1:

       Center              X                  Y                   Z               Mass
    ------------   -----------------  -----------------  -----------------  -----------------
         C            0.311070686363     1.394672136834    -0.940133379043    12.000000000000
         C            0.053070686363     2.686672136834    -1.703133379043    12.000000000000
         C            2.403070686363     0.320672136834    -0.257133379043    12.000000000000
         N            1.700070686363     0.949672136834    -1.163133379043    14.003074004430
         N            1.837070686363    -0.133327863166     0.866866620957    14.003074004430
         N            3.680070686363     0.126672136834    -0.520133379043    14.003074004430
         H            0.119070686363     1.584672136834     0.117866620957     1.007825032230
         H           -0.380929313637     0.633672136834    -1.300133379043     1.007825032230
         H           -0.983929313637     2.989672136834    -1.555133379043     1.007825032230
         H            0.202070686363     2.484672136834    -2.763133379043     1.007825032230
         H            2.182070686363     1.287672136834    -1.999133379043     1.007825032230
         H            0.826070686363    -0.056327863166     1.019866620957     1.007825032230
         H            2.390070686363    -0.619327863166     1.549866620957     1.007825032230
         H            4.073070686363     0.498672136834    -1.392133379043     1.007825032230
         H            4.274070686363    -0.356327863166     0.130866620957     1.007825032230
         H            0.722130686363     3.496512136834    -1.376783379043     1.007825032230
         C           -1.709929313637    -1.690327863166    -0.094133379043    12.000000000000
         C           -2.888929313637    -1.323327863166    -1.018133379043    12.000000000000
         C           -1.807929313637    -0.986327863166     1.246866620957    12.000000000000
         O           -2.887929313637    -1.010327863166     1.872866620957    15.994914619570
         O           -0.790929313637    -0.370327863166     1.659866620957    15.994914619570
         H           -1.700929313637    -2.764327863166     0.060866620957     1.007825032230
         H           -0.768929313637    -1.433327863166    -0.585133379043     1.007825032230
         H           -2.808929313637    -0.268327863166    -1.288133379043     1.007825032230
         H           -3.829929313637    -1.498327863166    -0.494133379043     1.007825032230
         H           -2.871559313637    -1.956777863166    -1.917263379043     1.007825032230

  Running in c1 symmetry.

  Rotational constants: A =      0.04577  B =      0.01720  C =      0.01471 [cm^-1]
  Rotational constants: A =   1372.17284  B =    515.68770  C =    441.04949 [MHz]
  Nuclear repulsion =  643.465201695813334

  Charge       = 0
  Multiplicity = 1
  Electrons    = 88
  Nalpha       = 44
  Nbeta        = 44

  ==> Algorithm <==

  SCF Algorithm Type is PK.
  DIIS enabled.
  MOM disabled.
  Fractional occupation disabled.
  Guess Type is SAD.
  Energy threshold   = 1.00e-06
  Density threshold  = 1.00e-10
  Integral threshold = 0.00e+00

  ==> Primary Basis <==

  Basis Set: CC-PVDZ
    Blend: CC-PVDZ
    Number of shells: 111
    Number of basis function: 229
    Number of Cartesian functions: 240
    Spherical Harmonics?: true
    Max angular momentum: 2

  ==> Pre-Iterations <==

   -------------------------------------------------------
    Irrep   Nso     Nmo     Nalpha   Nbeta   Ndocc  Nsocc
   -------------------------------------------------------
     A        229     229       0       0       0       0
   -------------------------------------------------------
    Total     229     229      44      44      44       0
   -------------------------------------------------------

  ==> Integral Setup <==

  Using integral reordering PK algorithm.
  Sizing the integral batches needed.
  Building batch lookup table.
   Calculation information:
      Number of atoms:                  26
      Number of AO shells:             111
      Number of primitives:            317
      Number of atomic orbitals:       240
      Number of basis functions:       229

      Integral cutoff                 1.00e-12
      Number of threads:                 1

	Batch   1 pq = [       0,    9405] index = [             0,44231715] size =     44231715
	Batch   2 pq = [    9405,   13301] index = [      44231715,88464951] size =     44233236
	Batch   3 pq = [   13301,   16290] index = [      88464951,132690195] size =     44225244
	Batch   4 pq = [   16290,   18810] index = [     132690195,176917455] size =     44227260
	Batch   5 pq = [   18810,   21030] index = [     176917455,221140965] size =     44223510
	Batch   6 pq = [   21030,   23037] index = [     221140965,265363203] size =     44222238
	Batch   7 pq = [   23037,   24883] index = [     265363203,309594286] size =     44231083
	Batch   8 pq = [   24883,   26335] index = [     309594286,346779280] size =     37184994
  Task number: 32
  Buffer size: 11059200
  Buffer per thread: 2
  We computed 18133515 shell quartets total.
  Whereas there are 19322436 unique shell quartets.

  ==> DiskJK: Disk-Based J/K Matrices <==

    J tasked:                  Yes
    K tasked:                  Yes
    wK tasked:                  No
    Memory [MiB]:              375
    Schwarz Cutoff:          1E-12

    OpenMP threads:              1

  Minimum eigenvalue in the overlap matrix is 3.6383521404E-03.
  Using Symmetric Orthogonalization.

  SCF Guess: Superposition of Atomic Densities via on-the-fly atomic UHF.

  ==> Iterations <==

                        Total Energy        Delta E     RMS |[F,P]|

   @RHF iter SAD:  -547.70529086359431   -5.47705e+02   0.00000e+00
   @RHF iter   1:  -548.68601991575429   -9.80729e-01   3.60454e-03 DIIS
   @RHF iter   2:  -548.96861115604361   -2.82591e-01   1.86389e-03 DIIS
   @RHF iter   3:  -549.03746822373921   -6.88571e-02   3.59909e-04 DIIS
   @RHF iter   4:  -549.04177555778938   -4.30733e-03   1.35794e-04 DIIS
   @RHF iter   5:  -549.04233523699611   -5.59679e-04   2.56167e-05 DIIS
   @RHF iter   6:  -549.04236437661962   -2.91396e-05   1.24028e-05 DIIS
   @RHF iter   7:  -549.04236918031643   -4.80370e-06   3.17978e-06 DIIS
   @RHF iter   8:  -549.04236987489435   -6.94578e-07   1.49838e-06 DIIS
   @RHF iter   9:  -549.04237000526484   -1.30370e-07   5.56404e-07 DIIS
   @RHF iter  10:  -549.04237003064907   -2.53842e-08   2.00707e-07 DIIS
   @RHF iter  11:  -549.04237003361879   -2.96973e-09   5.50860e-08 DIIS
   @RHF iter  12:  -549.04237003381024   -1.91449e-10   1.92216e-08 DIIS
   @RHF iter  13:  -549.04237003382741   -1.71667e-11   5.07619e-09 DIIS
   @RHF iter  14:  -549.04237003383253   -5.11591e-12   1.30713e-09 DIIS
   @RHF iter  15:  -549.04237003382639    6.13909e-12   5.38096e-10 DIIS
   @RHF iter  16:  -549.04237003382650   -1.13687e-13   2.38766e-10 DIIS
   @RHF iter  17:  -549.04237003383173   -5.22959e-12   1.15955e-10 DIIS
   @RHF iter  18:  -549.04237003382866    3.06954e-12   4.16484e-11 DIIS
  Energy and wave function converged.

  ==> Post-Iterations <==

    Orbital Energies [Eh]
    ---------------------

    Doubly Occupied:

       1A    -20.411845     2A    -20.391550     3A    -15.669862
       4A    -15.656063     5A    -15.625269     6A    -11.452773
       7A    -11.301813     8A    -11.259643     9A    -11.250145
      10A    -11.183306    11A    -11.174323    12A     -1.413563
      13A     -1.288996    14A     -1.274261    15A     -1.243250
      16A     -1.175790    17A     -1.067135    18A     -0.986288
      19A     -0.925873    20A     -0.886077    21A     -0.835432
      22A     -0.820481    23A     -0.806769    24A     -0.726989
      25A     -0.708560    26A     -0.701118    27A     -0.663811
      28A     -0.639467    29A     -0.635180    30A     -0.577970
      31A     -0.574138    32A     -0.560723    33A     -0.550385
      34A     -0.536040    35A     -0.514290    36A     -0.491660
      37A     -0.480510    38A     -0.477296    39A     -0.452088
      40A     -0.443148    41A     -0.427599    42A     -0.324745
      43A     -0.306388    44A     -0.301195

    Virtual:

      45A      0.098617    46A      0.138943    47A      0.158548
      48A      0.160066    49A      0.184713    50A      0.207477
      51A      0.214305    52A      0.238846    53A      0.242800
      54A      0.250439    55A      0.272205    56A      0.281423
      57A      0.297279    58A      0.312967    59A      0.324086
      60A      0.353532    61A      0.362282    62A      0.366385
      63A      0.395553    64A      0.420752    65A      0.439876
      66A      0.469040    67A      0.481073    68A      0.502269
      69A      0.558502    70A      0.571796    71A      0.576621
      72A      0.601593    73A      0.621416    74A      0.647338
      75A      0.651245    76A      0.656901    77A      0.661393
      78A      0.686569    79A      0.693297    80A      0.696695
      81A      0.698413    82A      0.722909    83A      0.773107
      84A      0.808181    85A      0.831495    86A      0.846891
      87A      0.848586    88A      0.853884    89A      0.860744
      90A      0.872091    91A      0.883526    92A      0.888433
      93A      0.896158    94A      0.899295    95A      0.910902
      96A      0.916926    97A      0.920507    98A      0.932881
      99A      0.942995   100A      0.949443   101A      0.959028
     102A      0.979544   103A      0.987926   104A      0.993939
     105A      0.994749   106A      1.024836   107A      1.043289
     108A      1.049207   109A      1.078576   110A      1.111411
     111A      1.134759   112A      1.156394   113A      1.183564
     114A      1.184204   115A      1.191949   116A      1.250403
     117A      1.252710   118A      1.266834   119A      1.317515
     120A      1.328873   121A      1.337944   122A      1.368494
     123A      1.383727   124A      1.392136   125A      1.421598
     126A      1.434336   127A      1.457266   128A      1.488906
     129A      1.492887   130A      1.537623   131A      1.544937
     132A      1.551566   133A      1.559706   134A      1.614201
     135A      1.620553   136A      1.624246   137A      1.641914
     138A      1.655373   139A      1.700278   140A      1.718406
     141A      1.729302   142A      1.735508   143A      1.747852
     144A      1.773252   145A      1.781671   146A      1.828527
     147A      1.838308   148A      1.845458   149A      1.866009
     150A      1.877615   151A      1.883508   152A      1.906883
     153A      1.916270   154A      1.920619   155A      1.937808
     156A      1.942452   157A      1.952185   158A      1.958003
     159A      1.976247   160A      1.997771   161A      2.010619
     162A      2.022418   163A      2.027213   164A      2.035500
     165A      2.037965   166A      2.063338   167A      2.080315
     168A      2.100229   169A      2.106238   170A      2.139196
     171A      2.149337   172A      2.179898   173A      2.189718
     174A      2.204740   175A      2.238011   176A      2.260651
     177A      2.294296   178A      2.328776   179A      2.345134
     180A      2.348007   181A      2.372373   182A      2.394452
     183A      2.399635   184A      2.418099   185A      2.422355
     186A      2.461140   187A      2.481086   188A      2.491158
     189A      2.502293   190A      2.516561   191A      2.535621
     192A      2.562918   193A      2.586312   194A      2.609895
     195A      2.617161   196A      2.642871   197A      2.676289
     198A      2.733411   199A      2.745505   200A      2.772800
     201A      2.796968   202A      2.811395   203A      2.817170
     204A      2.860035   205A      2.875941   206A      2.881737
     207A      2.904965   208A      2.930192   209A      2.939895
     210A      2.944032   211A      2.963031   212A      2.992688
     213A      3.022661   214A      3.082020   215A      3.107699
     216A      3.127816   217A      3.163751   218A      3.200181
     219A      3.216801   220A      3.243195   221A      3.362966
     222A      3.492609   223A      3.659116   224A      3.686373
     225A      3.729006   226A      3.763629   227A      3.939020
     228A      3.979799   229A      4.060579

    Final Occupation by Irrep:
              A
    DOCC [    44 ]

  @RHF Final Energy:  -549.04237003382866

   => Energetics <=

    Nuclear Repulsion Energy =            643.4652016958133345
    One-Electron Energy =               -2026.6275331792237466
    Two-Electron Energy =                 834.1199614495818651
    Total Energy =                       -549.0423700338286608

Computation Completed

Properties will be evaluated at   0.000000,   0.000000,   0.000000 [a0]

Properties computed using the SCF density matrix

  Nuclear Dipole Moment: [e a0]
     X:     1.3146      Y:     3.7616      Z:   -11.0351

  Electronic Dipole Moment: [e a0]
     X:     4.9836      Y:    -2.2231      Z:     7.5926

  Dipole Moment: [e a0]
     X:     6.2982      Y:     1.5384      Z:    -3.4425     Total:     7.3406

  Dipole Moment: [D]
     X:    16.0084      Y:     3.9103      Z:    -8.7500     Total:    18.6580

*** tstop() called on ds3 at Tue Apr 28 19:58:22 2020
Module time:
	user time   =     129.83 seconds =       2.16 minutes
	system time =      55.67 seconds =       0.93 minutes
	total time  =        178 seconds =       2.97 minutes
Total time:
	user time   =     129.83 seconds =       2.16 minutes
	system time =      55.67 seconds =       0.93 minutes
	total time  =        178 seconds =       2.97 minutes
                                     G D M A

                                 by Anthony Stone

                           version 2.2.06, 22 June 2011

               Distributed Multipoles from Gaussian wavefunctions

Starting at 19:58:22 on 28 Apr 2020

Using SCF density matrix from file ./SSI/SSI-241ARG-272GLU-1-dimer.test.14214.fchk

                         Distributed Multipole Analysis

Standard DMA

Positions and radii in angstrom
Multipole moments in atomic units, ea_0^k for rank k

C          x =  0.311071  y =  1.394672  z = -0.940133 angstrom
           Maximum rank =  0   Radius =  0.650 angstrom
                   Q00  =   0.033051

C          x =  0.053071  y =  2.686672  z = -1.703133 angstrom
           Maximum rank =  0   Radius =  0.650 angstrom
                   Q00  =  -0.227129

C          x =  2.403071  y =  0.320672  z = -0.257133 angstrom
           Maximum rank =  0   Radius =  0.650 angstrom
                   Q00  =   1.072870

N          x =  1.700071  y =  0.949672  z = -1.163133 angstrom
           Maximum rank =  0   Radius =  0.650 angstrom
                   Q00  =  -0.494358

N          x =  1.837071  y = -0.133328  z =  0.866867 angstrom
           Maximum rank =  0   Radius =  0.650 angstrom
                   Q00  =  -0.623455

N          x =  3.680071  y =  0.126672  z = -0.520133 angstrom
           Maximum rank =  0   Radius =  0.650 angstrom
                   Q00  =  -0.593811

H          x =  0.119071  y =  1.584672  z =  0.117867 angstrom
           Maximum rank =  0   Radius =  0.325 angstrom
                   Q00  =   0.101243

H          x = -0.380929  y =  0.633672  z = -1.300133 angstrom
           Maximum rank =  0   Radius =  0.325 angstrom
                   Q00  =   0.108663

H          x = -0.983929  y =  2.989672  z = -1.555133 angstrom
           Maximum rank =  0   Radius =  0.325 angstrom
                   Q00  =   0.131530

H          x =  0.202071  y =  2.484672  z = -2.763133 angstrom
           Maximum rank =  0   Radius =  0.325 angstrom
                   Q00  =   0.074657

H          x =  2.182071  y =  1.287672  z = -1.999133 angstrom
           Maximum rank =  0   Radius =  0.325 angstrom
                   Q00  =   0.204153

H          x =  0.826071  y = -0.056328  z =  1.019867 angstrom
           Maximum rank =  0   Radius =  0.325 angstrom
                   Q00  =   0.379000

H          x =  2.390071  y = -0.619328  z =  1.549867 angstrom
           Maximum rank =  0   Radius =  0.325 angstrom
                   Q00  =   0.237669

H          x =  4.073071  y =  0.498672  z = -1.392133 angstrom
           Maximum rank =  0   Radius =  0.325 angstrom
                   Q00  =   0.243169

H          x =  4.274071  y = -0.356328  z =  0.130867 angstrom
           Maximum rank =  0   Radius =  0.325 angstrom
                   Q00  =   0.247276

H          x =  0.722131  y =  3.496512  z = -1.376783 angstrom
           Maximum rank =  0   Radius =  0.325 angstrom
                   Q00  =   0.083321

C          x = -1.709929  y = -1.690328  z = -0.094133 angstrom
           Maximum rank =  0   Radius =  0.650 angstrom
                   Q00  =  -0.152593

C          x = -2.888929  y = -1.323328  z = -1.018133 angstrom
           Maximum rank =  0   Radius =  0.650 angstrom
                   Q00  =  -0.202844

C          x = -1.807929  y = -0.986328  z =  1.246867 angstrom
           Maximum rank =  0   Radius =  0.650 angstrom
                   Q00  =   0.931091

O          x = -2.887929  y = -1.010328  z =  1.872867 angstrom
           Maximum rank =  0   Radius =  0.650 angstrom
                   Q00  =  -0.877058

O          x = -0.790929  y = -0.370328  z =  1.659867 angstrom
           Maximum rank =  0   Radius =  0.650 angstrom
                   Q00  =  -0.968616

H          x = -1.700929  y = -2.764328  z =  0.060867 angstrom
           Maximum rank =  0   Radius =  0.325 angstrom
                   Q00  =   0.083735

H          x = -0.768929  y = -1.433328  z = -0.585133 angstrom
           Maximum rank =  0   Radius =  0.325 angstrom
                   Q00  =  -0.009766

H          x = -2.808929  y = -0.268328  z = -1.288133 angstrom
           Maximum rank =  0   Radius =  0.325 angstrom
                   Q00  =   0.053196

H          x = -3.829929  y = -1.498328  z = -0.494133 angstrom
           Maximum rank =  0   Radius =  0.325 angstrom
                   Q00  =   0.116745

H          x = -2.871559  y = -1.956778  z = -1.917263 angstrom
           Maximum rank =  0   Radius =  0.325 angstrom
                   Q00  =   0.048264

Total multipoles referred to origin at
           x =   0.000000,  y =    0.000000,  z =    0.000000 angstrom
                   Q00  =  -0.000000

Finished at 19:58:23 on 28 Apr 2020

  DMA results are available in the Python driver through the
	  variable('DMA DISTRIBUTED MULTIPOLES')
  and
	  variable('DMA TOTAL MULTIPOLES')
  commands.

    Psi4 stopped on: Tuesday, 28 April 2020 07:58PM
    Psi4 wall time for execution: 0:02:58.91

*** Psi4 exiting successfully. Buy a developer a beer!
