                               Psi4 1.3.2 release

  ==> Input File <==

--------------------------------------------------------------------------
import numpy as np
set {scf_type pk
basis cc-pvdz
d_convergence 10
gdma_switch   0
gdma_limit    0
gdma_origin   [ 0.0,  0.0,  0.0 ]
}
molecule test {
    units Angstrom
    0 1
    --
    0 1
    C                1.845952125725220    -2.293772848935869     2.056316562275921
    C               -0.595047874274779    -0.557772848935870    -0.271683437724079
    C                0.589952125725220    -1.058772848935870     0.266316562275921
    C               -1.803047874274780    -0.753772848935870     0.397316562275921
    C                0.576952125725221    -1.751772848935870     1.476316562275921
    C               -1.823047874274779    -1.448772848935870     1.605316562275921
    C               -0.634047874274779    -1.947772848935870     2.140316562275921
    H               -0.582047874274779    -0.028772848935870    -1.211683437724079
    H                1.516952125725221    -0.907772848935870    -0.267683437724079
    H               -2.723047874274779    -0.368772848935870    -0.021683437724079
    H               -2.755047874274780    -1.594772848935869     2.132316562275921
    H                2.368952125725220    -2.860772848935870     1.294316562275921
    H                1.578952125725221    -3.002772848935870     2.843316562275921
    H               -0.658047874274779    -2.496772848935869     3.069316562275921
    H                2.509640125725220    -1.528472848935870     2.485083562275921
    C                0.510952125725221     2.405227151064130    -2.313683437724079
    C                1.045952125725221     3.257227151064130    -3.476683437724079
    C               -0.137047874274779     3.200227151064130    -1.190683437724079
    H               -0.224047874274779     1.703227151064131    -2.701683437724079
    H                1.321952125725221     1.835227151064130    -1.860683437724079
    H                1.741952125725220     3.988227151064130    -3.066683437724079
    H               -1.054047874274779     3.678227151064130    -1.533683437724079
    H               -0.390047874274779     2.525227151064131    -0.372683437724079
    H                0.558952125725221     3.951227151064130    -0.821683437724079
    H                1.590212125725221     2.621667151064131    -4.190713437724079
    H                0.229152125725221     3.794107151064130    -3.981262437724079

}
e, wfn = energy('scf', return_wfn=True)
gdma(wfn)
dmavals = variable('DMA DISTRIBUTED MULTIPOLES')
charges = np.array(dmavals)
print(charges)
np.save('SSI-057PHE-163ILE-1-dimer.npy', np.array(charges))--------------------------------------------------------------------------

*** tstart() called on ds3
*** at Tue Apr 28 21:27:45 2020

   => Loading Basis Set <=

    Name: CC-PVDZ
    Role: ORBITAL
    Keyword: BASIS
    atoms 1-7, 16-18  entry C          line   138 file /theoryfs2/ds/metcalf/miniconda2/envs/tf2gpu/share/psi4/basis/cc-pvdz.gbs
    atoms 8-15, 19-26 entry H          line    22 file /theoryfs2/ds/metcalf/miniconda2/envs/tf2gpu/share/psi4/basis/cc-pvdz.gbs

         ---------------------------------------------------------
                                   SCF
               by Justin Turney, Rob Parrish, Andy Simmonett
                          and Daniel G. A. Smith
                              RHF Reference
                        1 Threads,    500 MiB Core
         ---------------------------------------------------------

  ==> Geometry <==

    Molecular point group: c1
    Full point group: C1

    Geometry (in Angstrom), charge = 0, multiplicity = 1:

       Center              X                  Y                   Z               Mass
    ------------   -----------------  -----------------  -----------------  -----------------
         C            1.845952125725    -2.293772848936     2.056316562276    12.000000000000
         C           -0.595047874275    -0.557772848936    -0.271683437724    12.000000000000
         C            0.589952125725    -1.058772848936     0.266316562276    12.000000000000
         C           -1.803047874275    -0.753772848936     0.397316562276    12.000000000000
         C            0.576952125725    -1.751772848936     1.476316562276    12.000000000000
         C           -1.823047874275    -1.448772848936     1.605316562276    12.000000000000
         C           -0.634047874275    -1.947772848936     2.140316562276    12.000000000000
         H           -0.582047874275    -0.028772848936    -1.211683437724     1.007825032230
         H            1.516952125725    -0.907772848936    -0.267683437724     1.007825032230
         H           -2.723047874275    -0.368772848936    -0.021683437724     1.007825032230
         H           -2.755047874275    -1.594772848936     2.132316562276     1.007825032230
         H            2.368952125725    -2.860772848936     1.294316562276     1.007825032230
         H            1.578952125725    -3.002772848936     2.843316562276     1.007825032230
         H           -0.658047874275    -2.496772848936     3.069316562276     1.007825032230
         H            2.509640125725    -1.528472848936     2.485083562276     1.007825032230
         C            0.510952125725     2.405227151064    -2.313683437724    12.000000000000
         C            1.045952125725     3.257227151064    -3.476683437724    12.000000000000
         C           -0.137047874275     3.200227151064    -1.190683437724    12.000000000000
         H           -0.224047874275     1.703227151064    -2.701683437724     1.007825032230
         H            1.321952125725     1.835227151064    -1.860683437724     1.007825032230
         H            1.741952125725     3.988227151064    -3.066683437724     1.007825032230
         H           -1.054047874275     3.678227151064    -1.533683437724     1.007825032230
         H           -0.390047874275     2.525227151064    -0.372683437724     1.007825032230
         H            0.558952125725     3.951227151064    -0.821683437724     1.007825032230
         H            1.590212125725     2.621667151064    -4.190713437724     1.007825032230
         H            0.229152125725     3.794107151064    -3.981262437724     1.007825032230

  Running in c1 symmetry.

  Rotational constants: A =      0.07234  B =      0.01518  C =      0.01341 [cm^-1]
  Rotational constants: A =   2168.56672  B =    455.20290  C =    401.94599 [MHz]
  Nuclear repulsion =  475.125585555153293

  Charge       = 0
  Multiplicity = 1
  Electrons    = 76
  Nalpha       = 38
  Nbeta        = 38

  ==> Algorithm <==

  SCF Algorithm Type is PK.
  DIIS enabled.
  MOM disabled.
  Fractional occupation disabled.
  Guess Type is SAD.
  Energy threshold   = 1.00e-06
  Density threshold  = 1.00e-10
  Integral threshold = 0.00e+00

  ==> Primary Basis <==

  Basis Set: CC-PVDZ
    Blend: CC-PVDZ
    Number of shells: 108
    Number of basis function: 220
    Number of Cartesian functions: 230
    Spherical Harmonics?: true
    Max angular momentum: 2

  ==> Pre-Iterations <==

   -------------------------------------------------------
    Irrep   Nso     Nmo     Nalpha   Nbeta   Ndocc  Nsocc
   -------------------------------------------------------
     A        220     220       0       0       0       0
   -------------------------------------------------------
    Total     220     220      38      38      38       0
   -------------------------------------------------------

  ==> Integral Setup <==

  Using integral reordering PK algorithm.
  Sizing the integral batches needed.
  Building batch lookup table.
   Calculation information:
      Number of atoms:                  26
      Number of AO shells:             108
      Number of primitives:            300
      Number of atomic orbitals:       230
      Number of basis functions:       220

      Integral cutoff                 1.00e-12
      Number of threads:                 1

	Batch   1 pq = [       0,    9405] index = [             0,44231715] size =     44231715
	Batch   2 pq = [    9405,   13301] index = [      44231715,88464951] size =     44233236
	Batch   3 pq = [   13301,   16290] index = [      88464951,132690195] size =     44225244
	Batch   4 pq = [   16290,   18810] index = [     132690195,176917455] size =     44227260
	Batch   5 pq = [   18810,   21030] index = [     176917455,221140965] size =     44223510
	Batch   6 pq = [   21030,   23037] index = [     221140965,265363203] size =     44222238
	Batch   7 pq = [   23037,   24310] index = [     265363203,295500205] size =     30137002
  Task number: 27
  Buffer size: 11059200
  Buffer per thread: 2
  We computed 13369891 shell quartets total.
  Whereas there are 17325441 unique shell quartets.

  ==> DiskJK: Disk-Based J/K Matrices <==

    J tasked:                  Yes
    K tasked:                  Yes
    wK tasked:                  No
    Memory [MiB]:              375
    Schwarz Cutoff:          1E-12

    OpenMP threads:              1

  Minimum eigenvalue in the overlap matrix is 3.0713492758E-04.
  Using Symmetric Orthogonalization.

  SCF Guess: Superposition of Atomic Densities via on-the-fly atomic UHF.

  ==> Iterations <==

                        Total Energy        Delta E     RMS |[F,P]|

   @RHF iter SAD:  -386.88163382067199   -3.86882e+02   0.00000e+00
   @RHF iter   1:  -387.77293899675283   -8.91305e-01   2.74708e-03 DIIS
   @RHF iter   2:  -387.99192336983214   -2.18984e-01   1.14783e-03 DIIS
   @RHF iter   3:  -388.02665037418632   -3.47270e-02   2.50408e-04 DIIS
   @RHF iter   4:  -388.02953045426625   -2.88008e-03   5.47186e-05 DIIS
   @RHF iter   5:  -388.02962620597498   -9.57517e-05   1.75016e-05 DIIS
   @RHF iter   6:  -388.02963573754806   -9.53157e-06   5.02578e-06 DIIS
   @RHF iter   7:  -388.02963664657841   -9.09030e-07   1.17415e-06 DIIS
   @RHF iter   8:  -388.02963670894803   -6.23696e-08   3.02892e-07 DIIS
   @RHF iter   9:  -388.02963671719010   -8.24207e-09   1.20834e-07 DIIS
   @RHF iter  10:  -388.02963671905417   -1.86407e-09   6.26357e-08 DIIS
   @RHF iter  11:  -388.02963671963778   -5.83611e-10   2.36689e-08 DIIS
   @RHF iter  12:  -388.02963671973481   -9.70317e-11   7.70676e-09 DIIS
   @RHF iter  13:  -388.02963671974305   -8.24230e-12   2.89777e-09 DIIS
   @RHF iter  14:  -388.02963671974226    7.95808e-13   6.61115e-10 DIIS
   @RHF iter  15:  -388.02963671974072    1.53477e-12   2.71017e-10 DIIS
   @RHF iter  16:  -388.02963671974209   -1.36424e-12   1.40980e-10 DIIS
   @RHF iter  17:  -388.02963671974578   -3.69482e-12   6.63638e-11 DIIS
  Energy and wave function converged.

  ==> Post-Iterations <==

    Orbital Energies [Eh]
    ---------------------

    Doubly Occupied:

       1A    -11.239963     2A    -11.235870     3A    -11.235006
       4A    -11.231477     5A    -11.230651     6A    -11.230330
       7A    -11.227722     8A    -11.220161     9A    -11.218990
      10A    -11.211870    11A     -1.151504    12A     -1.053343
      13A     -1.044784    14A     -1.010778    15A     -0.930767
      16A     -0.925362    17A     -0.824874    18A     -0.797626
      19A     -0.793395    20A     -0.690169    21A     -0.633090
      22A     -0.629753    23A     -0.626580    24A     -0.594734
      25A     -0.581463    26A     -0.579212    27A     -0.562633
      28A     -0.549185    29A     -0.533161    30A     -0.531969
      31A     -0.486854    32A     -0.484705    33A     -0.481813
      34A     -0.471877    35A     -0.468961    36A     -0.466256
      37A     -0.331334    38A     -0.321413

    Virtual:

      39A      0.134249    40A      0.140950    41A      0.173060
      42A      0.191658    43A      0.203497    44A      0.211399
      45A      0.223079    46A      0.232496    47A      0.244533
      48A      0.254861    49A      0.262900    50A      0.264633
      51A      0.272282    52A      0.291702    53A      0.298905
      54A      0.304149    55A      0.309024    56A      0.343089
      57A      0.361551    58A      0.380379    59A      0.385496
      60A      0.425507    61A      0.459912    62A      0.464962
      63A      0.476483    64A      0.501790    65A      0.565194
      66A      0.573243    67A      0.597381    68A      0.605985
      69A      0.615077    70A      0.622848    71A      0.634921
      72A      0.667533    73A      0.684703    74A      0.700314
      75A      0.710296    76A      0.716816    77A      0.735795
      78A      0.742963    79A      0.752110    80A      0.758110
      81A      0.765306    82A      0.778359    83A      0.782026
      84A      0.794857    85A      0.811835    86A      0.824589
      87A      0.846299    88A      0.862789    89A      0.868092
      90A      0.879725    91A      0.883845    92A      0.893629
      93A      0.895532    94A      0.898209    95A      0.903168
      96A      0.909712    97A      0.915645    98A      0.917895
      99A      0.926541   100A      0.934991   101A      0.937570
     102A      0.949433   103A      0.970685   104A      0.980635
     105A      0.997953   106A      1.004629   107A      1.053140
     108A      1.073495   109A      1.109709   110A      1.125180
     111A      1.132561   112A      1.153280   113A      1.161019
     114A      1.170432   115A      1.195796   116A      1.204730
     117A      1.233665   118A      1.247943   119A      1.250671
     120A      1.271794   121A      1.300941   122A      1.306390
     123A      1.320589   124A      1.329374   125A      1.383354
     126A      1.416055   127A      1.473116   128A      1.491672
     129A      1.519875   130A      1.526255   131A      1.536052
     132A      1.556631   133A      1.606935   134A      1.627547
     135A      1.671821   136A      1.684672   137A      1.688015
     138A      1.694048   139A      1.699023   140A      1.738580
     141A      1.743831   142A      1.759506   143A      1.789916
     144A      1.815382   145A      1.860240   146A      1.865742
     147A      1.880769   148A      1.882862   149A      1.888836
     150A      1.895304   151A      1.904626   152A      1.909492
     153A      1.917846   154A      1.922350   155A      1.933974
     156A      1.936121   157A      1.949971   158A      1.953648
     159A      1.961716   160A      1.973213   161A      1.981071
     162A      1.988561   163A      1.990149   164A      1.999887
     165A      2.013641   166A      2.030765   167A      2.047138
     168A      2.049229   169A      2.056456   170A      2.075772
     171A      2.105703   172A      2.127824   173A      2.139363
     174A      2.153992   175A      2.157457   176A      2.166710
     177A      2.186889   178A      2.199205   179A      2.243181
     180A      2.276190   181A      2.287666   182A      2.297008
     183A      2.306228   184A      2.314257   185A      2.326697
     186A      2.339539   187A      2.341346   188A      2.366631
     189A      2.459803   190A      2.475876   191A      2.489395
     192A      2.520231   193A      2.535885   194A      2.538580
     195A      2.590275   196A      2.615443   197A      2.630385
     198A      2.633612   199A      2.737569   200A      2.752000
     201A      2.762031   202A      2.771760   203A      2.775751
     204A      2.786315   205A      2.791389   206A      2.824645
     207A      2.828515   208A      2.854647   209A      2.874738
     210A      2.913988   211A      2.970062   212A      2.977608
     213A      2.982323   214A      3.006666   215A      3.026340
     216A      3.065669   217A      3.155657   218A      3.200378
     219A      3.300637   220A      3.965911

    Final Occupation by Irrep:
              A
    DOCC [    38 ]

  @RHF Final Energy:  -388.02963671974578

   => Energetics <=

    Nuclear Repulsion Energy =            475.1255855551532932
    One-Electron Energy =               -1464.6311703317001047
    Two-Electron Energy =                 601.4759480568010304
    Total Energy =                       -388.0296367197457812

Computation Completed

Properties will be evaluated at   0.000000,   0.000000,   0.000000 [a0]

Properties computed using the SCF density matrix

  Nuclear Dipole Moment: [e a0]
     X:     4.7158      Y:    10.6011      Z:    -7.6927

  Electronic Dipole Moment: [e a0]
     X:    -4.6079      Y:   -10.6830      Z:     7.7572

  Dipole Moment: [e a0]
     X:     0.1079      Y:    -0.0819      Z:     0.0645     Total:     0.1500

  Dipole Moment: [D]
     X:     0.2742      Y:    -0.2082      Z:     0.1640     Total:     0.3813

*** tstop() called on ds3 at Tue Apr 28 21:30:01 2020
Module time:
	user time   =      93.88 seconds =       1.56 minutes
	system time =      47.58 seconds =       0.79 minutes
	total time  =        136 seconds =       2.27 minutes
Total time:
	user time   =      93.88 seconds =       1.56 minutes
	system time =      47.58 seconds =       0.79 minutes
	total time  =        136 seconds =       2.27 minutes
                                     G D M A

                                 by Anthony Stone

                           version 2.2.06, 22 June 2011

               Distributed Multipoles from Gaussian wavefunctions

Starting at 21:30:1 on 28 Apr 2020

Using SCF density matrix from file ./SSI/SSI-057PHE-163ILE-1-dimer.test.27423.fchk

                         Distributed Multipole Analysis

Standard DMA

Positions and radii in angstrom
Multipole moments in atomic units, ea_0^k for rank k

C          x =  1.845952  y = -2.293773  z =  2.056317 angstrom
           Maximum rank =  0   Radius =  0.650 angstrom
                   Q00  =  -0.203750

C          x = -0.595048  y = -0.557773  z = -0.271683 angstrom
           Maximum rank =  0   Radius =  0.650 angstrom
                   Q00  =  -0.076319

C          x =  0.589952  y = -1.058773  z =  0.266317 angstrom
           Maximum rank =  0   Radius =  0.650 angstrom
                   Q00  =  -0.059668

C          x = -1.803048  y = -0.753773  z =  0.397317 angstrom
           Maximum rank =  0   Radius =  0.650 angstrom
                   Q00  =  -0.089621

C          x =  0.576952  y = -1.751773  z =  1.476317 angstrom
           Maximum rank =  0   Radius =  0.650 angstrom
                   Q00  =  -0.094592

C          x = -1.823048  y = -1.448773  z =  1.605317 angstrom
           Maximum rank =  0   Radius =  0.650 angstrom
                   Q00  =  -0.069270

C          x = -0.634048  y = -1.947773  z =  2.140317 angstrom
           Maximum rank =  0   Radius =  0.650 angstrom
                   Q00  =  -0.013642

H          x = -0.582048  y = -0.028773  z = -1.211683 angstrom
           Maximum rank =  0   Radius =  0.325 angstrom
                   Q00  =   0.066888

H          x =  1.516952  y = -0.907773  z = -0.267683 angstrom
           Maximum rank =  0   Radius =  0.325 angstrom
                   Q00  =   0.054378

H          x = -2.723048  y = -0.368773  z = -0.021683 angstrom
           Maximum rank =  0   Radius =  0.325 angstrom
                   Q00  =   0.060071

H          x = -2.755048  y = -1.594773  z =  2.132317 angstrom
           Maximum rank =  0   Radius =  0.325 angstrom
                   Q00  =   0.065927

H          x =  2.368952  y = -2.860773  z =  1.294317 angstrom
           Maximum rank =  0   Radius =  0.325 angstrom
                   Q00  =   0.101081

H          x =  1.578952  y = -3.002773  z =  2.843317 angstrom
           Maximum rank =  0   Radius =  0.325 angstrom
                   Q00  =   0.093195

H          x = -0.658048  y = -2.496773  z =  3.069317 angstrom
           Maximum rank =  0   Radius =  0.325 angstrom
                   Q00  =   0.058980

H          x =  2.509640  y = -1.528473  z =  2.485084 angstrom
           Maximum rank =  0   Radius =  0.325 angstrom
                   Q00  =   0.104737

C          x =  0.510952  y =  2.405227  z = -2.313683 angstrom
           Maximum rank =  0   Radius =  0.650 angstrom
                   Q00  =  -0.085235

C          x =  1.045952  y =  3.257227  z = -3.476683 angstrom
           Maximum rank =  0   Radius =  0.650 angstrom
                   Q00  =  -0.232342

C          x = -0.137048  y =  3.200227  z = -1.190683 angstrom
           Maximum rank =  0   Radius =  0.650 angstrom
                   Q00  =  -0.249752

H          x = -0.224048  y =  1.703227  z = -2.701683 angstrom
           Maximum rank =  0   Radius =  0.325 angstrom
                   Q00  =   0.039734

H          x =  1.321952  y =  1.835227  z = -1.860683 angstrom
           Maximum rank =  0   Radius =  0.325 angstrom
                   Q00  =   0.043895

H          x =  1.741952  y =  3.988227  z = -3.066683 angstrom
           Maximum rank =  0   Radius =  0.325 angstrom
                   Q00  =   0.077038

H          x = -1.054048  y =  3.678227  z = -1.533683 angstrom
           Maximum rank =  0   Radius =  0.325 angstrom
                   Q00  =   0.073905

H          x = -0.390048  y =  2.525227  z = -0.372683 angstrom
           Maximum rank =  0   Radius =  0.325 angstrom
                   Q00  =   0.092290

H          x =  0.558952  y =  3.951227  z = -0.821683 angstrom
           Maximum rank =  0   Radius =  0.325 angstrom
                   Q00  =   0.076167

H          x =  1.590212  y =  2.621667  z = -4.190713 angstrom
           Maximum rank =  0   Radius =  0.325 angstrom
                   Q00  =   0.085814

H          x =  0.229152  y =  3.794107  z = -3.981262 angstrom
           Maximum rank =  0   Radius =  0.325 angstrom
                   Q00  =   0.080090

Total multipoles referred to origin at
           x =   0.000000,  y =    0.000000,  z =    0.000000 angstrom
                   Q00  =  -0.000000

Finished at 21:30:1 on 28 Apr 2020

  DMA results are available in the Python driver through the
	  variable('DMA DISTRIBUTED MULTIPOLES')
  and
	  variable('DMA TOTAL MULTIPOLES')
  commands.

    Psi4 stopped on: Tuesday, 28 April 2020 09:30PM
    Psi4 wall time for execution: 0:02:16.19

*** Psi4 exiting successfully. Buy a developer a beer!
