                               Psi4 1.3.2 release

  ==> Input File <==

--------------------------------------------------------------------------
import numpy as np
set {scf_type pk
basis cc-pvdz
d_convergence 10
gdma_switch   0
gdma_limit    0
gdma_origin   [ 0.0,  0.0,  0.0 ]
}
molecule test {
    units Angstrom
    0 1
    --
    0 1
    C                0.288782640669466    -1.377415472362975    -2.516604730169347
    C               -0.907217359330534    -1.157415472362975    -3.462604730169347
    H                0.408782640669466    -2.429415472362976    -2.271604730169347
    H                1.201782640669466    -1.024415472362975    -2.991604730169346
    H                0.130782640669466    -0.824415472362976    -1.600604730169347
    H               -0.717217359330534    -1.702415472362975    -4.384604730169347
    H               -1.833737359330534    -1.543225472362975    -3.012372730169347
    H               -1.010577359330534    -0.086215472362975    -3.690289730169347
    C                2.773782640669466     1.365584527637025     0.138395269830653
    C               -0.856217359330534     0.507584527637025     0.535395269830653
    C                0.513782640669466     0.207584527637025     0.743395269830653
    C                1.284782640669466     1.227584527637025     0.100395269830653
    C                0.391782640669466     2.071584527637025    -0.460604730169347
    C               -1.873217359330534    -0.284415472362975     1.034395269830653
    C               -1.525217359330534    -1.430415472362975     1.729395269830653
    C                0.846782640669466    -0.949415472362976     1.452395269830653
    C               -0.178217359330534    -1.759415472362975     1.940395269830653
    N               -0.886217359330534     1.654584527637025    -0.207604730169347
    H               -1.716217359330534     2.163584527637024    -0.486604730169347
    H               -2.885217359330534     0.019584527637025     0.908395269830653
    H                0.659782640669466     2.979584527637025    -0.990604730169347
    H               -2.301217359330534    -2.063415472362975     2.137395269830654
    H                1.881782640669466    -1.215415472362975     1.611395269830653
    H                3.097782640669466     2.120584527637024    -0.579604730169347
    H                3.229782640669466     0.408584527637025    -0.117604730169347
    H                0.062782640669466    -2.655415472362976     2.496395269830654
    H                3.059802640669466     1.658814527637025     1.159282269830653

}
e, wfn = energy('scf', return_wfn=True)
gdma(wfn)
dmavals = variable('DMA DISTRIBUTED MULTIPOLES')
charges = np.array(dmavals)
print(charges)
np.save('SSI-133VAL-146TRP-1-dimer.npy', np.array(charges))--------------------------------------------------------------------------

*** tstart() called on ds3
*** at Tue Apr 28 11:25:32 2020

   => Loading Basis Set <=

    Name: CC-PVDZ
    Role: ORBITAL
    Keyword: BASIS
    atoms 1-2, 9-17  entry C          line   138 file /theoryfs2/ds/metcalf/miniconda2/envs/tf2gpu/share/psi4/basis/cc-pvdz.gbs
    atoms 3-8, 19-27 entry H          line    22 file /theoryfs2/ds/metcalf/miniconda2/envs/tf2gpu/share/psi4/basis/cc-pvdz.gbs
    atoms 18         entry N          line   168 file /theoryfs2/ds/metcalf/miniconda2/envs/tf2gpu/share/psi4/basis/cc-pvdz.gbs

         ---------------------------------------------------------
                                   SCF
               by Justin Turney, Rob Parrish, Andy Simmonett
                          and Daniel G. A. Smith
                              RHF Reference
                        1 Threads,    500 MiB Core
         ---------------------------------------------------------

  ==> Geometry <==

    Molecular point group: c1
    Full point group: C1

    Geometry (in Angstrom), charge = 0, multiplicity = 1:

       Center              X                  Y                   Z               Mass
    ------------   -----------------  -----------------  -----------------  -----------------
         C            0.288782640669    -1.377415472363    -2.516604730169    12.000000000000
         C           -0.907217359331    -1.157415472363    -3.462604730169    12.000000000000
         H            0.408782640669    -2.429415472363    -2.271604730169     1.007825032230
         H            1.201782640669    -1.024415472363    -2.991604730169     1.007825032230
         H            0.130782640669    -0.824415472363    -1.600604730169     1.007825032230
         H           -0.717217359331    -1.702415472363    -4.384604730169     1.007825032230
         H           -1.833737359331    -1.543225472363    -3.012372730169     1.007825032230
         H           -1.010577359331    -0.086215472363    -3.690289730169     1.007825032230
         C            2.773782640669     1.365584527637     0.138395269831    12.000000000000
         C           -0.856217359331     0.507584527637     0.535395269831    12.000000000000
         C            0.513782640669     0.207584527637     0.743395269831    12.000000000000
         C            1.284782640669     1.227584527637     0.100395269831    12.000000000000
         C            0.391782640669     2.071584527637    -0.460604730169    12.000000000000
         C           -1.873217359331    -0.284415472363     1.034395269831    12.000000000000
         C           -1.525217359331    -1.430415472363     1.729395269831    12.000000000000
         C            0.846782640669    -0.949415472363     1.452395269831    12.000000000000
         C           -0.178217359331    -1.759415472363     1.940395269831    12.000000000000
         N           -0.886217359331     1.654584527637    -0.207604730169    14.003074004430
         H           -1.716217359331     2.163584527637    -0.486604730169     1.007825032230
         H           -2.885217359331     0.019584527637     0.908395269831     1.007825032230
         H            0.659782640669     2.979584527637    -0.990604730169     1.007825032230
         H           -2.301217359331    -2.063415472363     2.137395269831     1.007825032230
         H            1.881782640669    -1.215415472363     1.611395269831     1.007825032230
         H            3.097782640669     2.120584527637    -0.579604730169     1.007825032230
         H            3.229782640669     0.408584527637    -0.117604730169     1.007825032230
         H            0.062782640669    -2.655415472363     2.496395269831     1.007825032230
         H            3.059802640669     1.658814527637     1.159282269831     1.007825032230

  Running in c1 symmetry.

  Rotational constants: A =      0.02925  B =      0.02726  C =      0.02063 [cm^-1]
  Rotational constants: A =    876.80962  B =    817.18643  C =    618.45351 [MHz]
  Nuclear repulsion =  676.006025499290786

  Charge       = 0
  Multiplicity = 1
  Electrons    = 88
  Nalpha       = 44
  Nbeta        = 44

  ==> Algorithm <==

  SCF Algorithm Type is PK.
  DIIS enabled.
  MOM disabled.
  Fractional occupation disabled.
  Guess Type is SAD.
  Energy threshold   = 1.00e-06
  Density threshold  = 1.00e-10
  Integral threshold = 0.00e+00

  ==> Primary Basis <==

  Basis Set: CC-PVDZ
    Blend: CC-PVDZ
    Number of shells: 117
    Number of basis function: 243
    Number of Cartesian functions: 255
    Spherical Harmonics?: true
    Max angular momentum: 2

  ==> Pre-Iterations <==

   -------------------------------------------------------
    Irrep   Nso     Nmo     Nalpha   Nbeta   Ndocc  Nsocc
   -------------------------------------------------------
     A        243     243       0       0       0       0
   -------------------------------------------------------
    Total     243     243      44      44      44       0
   -------------------------------------------------------

  ==> Integral Setup <==

  Using integral reordering PK algorithm.
  Sizing the integral batches needed.
  Building batch lookup table.
   Calculation information:
      Number of atoms:                  27
      Number of AO shells:             117
      Number of primitives:            339
      Number of atomic orbitals:       255
      Number of basis functions:       243

      Integral cutoff                 1.00e-12
      Number of threads:                 1

	Batch   1 pq = [       0,    9405] index = [             0,44231715] size =     44231715
	Batch   2 pq = [    9405,   13301] index = [      44231715,88464951] size =     44233236
	Batch   3 pq = [   13301,   16290] index = [      88464951,132690195] size =     44225244
	Batch   4 pq = [   16290,   18810] index = [     132690195,176917455] size =     44227260
	Batch   5 pq = [   18810,   21030] index = [     176917455,221140965] size =     44223510
	Batch   6 pq = [   21030,   23037] index = [     221140965,265363203] size =     44222238
	Batch   7 pq = [   23037,   24883] index = [     265363203,309594286] size =     44231083
	Batch   8 pq = [   24883,   26601] index = [     309594286,353819901] size =     44225615
	Batch   9 pq = [   26601,   28214] index = [     353819901,398029005] size =     44209104
	Batch  10 pq = [   28214,   29646] index = [     398029005,439457481] size =     41428476
  Task number: 40
  Buffer size: 11059200
  Buffer per thread: 2
  We computed 26415718 shell quartets total.
  Whereas there are 23829156 unique shell quartets.
    10.85 percent of shell quartets recomputed by reordering.

  ==> DiskJK: Disk-Based J/K Matrices <==

    J tasked:                  Yes
    K tasked:                  Yes
    wK tasked:                  No
    Memory [MiB]:              375
    Schwarz Cutoff:          1E-12

    OpenMP threads:              1

  Minimum eigenvalue in the overlap matrix is 2.4052345289E-04.
  Using Symmetric Orthogonalization.

  SCF Guess: Superposition of Atomic Densities via on-the-fly atomic UHF.

  ==> Iterations <==

                        Total Energy        Delta E     RMS |[F,P]|

   @RHF iter SAD:  -479.12581139842376   -4.79126e+02   0.00000e+00
   @RHF iter   1:  -479.48847313263860   -3.62662e-01   2.60884e-03 DIIS
   @RHF iter   2:  -479.72171448667291   -2.33241e-01   1.14938e-03 DIIS
   @RHF iter   3:  -479.76292366917642   -4.12092e-02   2.99009e-04 DIIS
   @RHF iter   4:  -479.76662611240141   -3.70244e-03   1.38019e-04 DIIS
   @RHF iter   5:  -479.76725719597829   -6.31084e-04   1.99262e-05 DIIS
   @RHF iter   6:  -479.76728551436133   -2.83184e-05   8.99294e-06 DIIS
   @RHF iter   7:  -479.76729112377149   -5.60941e-06   3.71182e-06 DIIS
   @RHF iter   8:  -479.76729268012275   -1.55635e-06   1.45583e-06 DIIS
   @RHF iter   9:  -479.76729299333624   -3.13213e-07   6.35415e-07 DIIS
   @RHF iter  10:  -479.76729305381514   -6.04789e-08   2.89005e-07 DIIS
   @RHF iter  11:  -479.76729306861233   -1.47972e-08   1.10035e-07 DIIS
   @RHF iter  12:  -479.76729307071150   -2.09917e-09   3.52144e-08 DIIS
   @RHF iter  13:  -479.76729307085441   -1.42904e-10   9.34829e-09 DIIS
   @RHF iter  14:  -479.76729307087197   -1.75646e-11   3.58906e-09 DIIS
   @RHF iter  15:  -479.76729307087248   -5.11591e-13   1.85206e-09 DIIS
   @RHF iter  16:  -479.76729307086396    8.52651e-12   9.40969e-10 DIIS
   @RHF iter  17:  -479.76729307087180   -7.84439e-12   3.27289e-10 DIIS
   @RHF iter  18:  -479.76729307086885    2.95586e-12   1.54486e-10 DIIS
   @RHF iter  19:  -479.76729307087271   -3.86535e-12   4.51219e-11 DIIS
  Energy and wave function converged.

  ==> Post-Iterations <==

    Orbital Energies [Eh]
    ---------------------

    Doubly Occupied:

       1A    -15.601211     2A    -11.262683     3A    -11.262159
       4A    -11.230612     5A    -11.230340     6A    -11.227884
       7A    -11.227387     8A    -11.221926     9A    -11.218604
      10A    -11.214595    11A    -11.210026    12A    -11.199048
      13A     -1.299931    14A     -1.129821    15A     -1.076855
      16A     -1.002964    17A     -0.998628    18A     -0.988775
      19A     -0.933227    20A     -0.841733    21A     -0.825975
      22A     -0.805206    23A     -0.753998    24A     -0.720918
      25A     -0.665055    26A     -0.642838    27A     -0.604631
      28A     -0.601827    29A     -0.592006    30A     -0.584280
      31A     -0.580206    32A     -0.568673    33A     -0.554257
      34A     -0.536423    35A     -0.529647    36A     -0.495714
      37A     -0.484967    38A     -0.476069    39A     -0.474872
      40A     -0.471792    41A     -0.460512    42A     -0.373412
      43A     -0.295752    44A     -0.276418

    Virtual:

      45A      0.125982    46A      0.167973    47A      0.174021
      48A      0.184542    49A      0.202758    50A      0.205095
      51A      0.224054    52A      0.231222    53A      0.234738
      54A      0.251520    55A      0.259543    56A      0.269681
      57A      0.273445    58A      0.275653    59A      0.286222
      60A      0.290153    61A      0.304200    62A      0.328063
      63A      0.376347    64A      0.383134    65A      0.403586
      66A      0.411037    67A      0.419985    68A      0.447119
      69A      0.472348    70A      0.480913    71A      0.501130
      72A      0.529558    73A      0.583623    74A      0.593320
      75A      0.600907    76A      0.605688    77A      0.625824
      78A      0.641153    79A      0.647157    80A      0.658535
      81A      0.669660    82A      0.689530    83A      0.703726
      84A      0.716453    85A      0.731939    86A      0.732941
      87A      0.744481    88A      0.748579    89A      0.757565
      90A      0.763964    91A      0.773140    92A      0.784266
      93A      0.793883    94A      0.804208    95A      0.826377
      96A      0.838947    97A      0.867654    98A      0.870063
      99A      0.881972   100A      0.888694   101A      0.889188
     102A      0.894363   103A      0.904018   104A      0.908799
     105A      0.917491   106A      0.920974   107A      0.927877
     108A      0.940302   109A      0.946334   110A      0.957952
     111A      0.961904   112A      0.966807   113A      0.983010
     114A      0.994668   115A      1.017459   116A      1.051903
     117A      1.071576   118A      1.095239   119A      1.107002
     120A      1.127681   121A      1.131848   122A      1.139975
     123A      1.144030   124A      1.150490   125A      1.169122
     126A      1.175958   127A      1.220067   128A      1.228407
     129A      1.232770   130A      1.236126   131A      1.249755
     132A      1.271574   133A      1.289619   134A      1.301768
     135A      1.331185   136A      1.337157   137A      1.358927
     138A      1.374324   139A      1.405888   140A      1.413573
     141A      1.445639   142A      1.482723   143A      1.498750
     144A      1.529175   145A      1.572408   146A      1.577483
     147A      1.593060   148A      1.616933   149A      1.629903
     150A      1.640949   151A      1.656657   152A      1.681884
     153A      1.690251   154A      1.695226   155A      1.736891
     156A      1.748815   157A      1.761702   158A      1.775771
     159A      1.798828   160A      1.807848   161A      1.833129
     162A      1.855875   163A      1.873953   164A      1.881898
     165A      1.889838   166A      1.892083   167A      1.896707
     168A      1.905735   169A      1.916044   170A      1.930453
     171A      1.935530   172A      1.946446   173A      1.953851
     174A      1.958863   175A      1.960486   176A      1.967939
     177A      1.978731   178A      1.986385   179A      2.001585
     180A      2.014595   181A      2.019463   182A      2.036299
     183A      2.051950   184A      2.087228   185A      2.096083
     186A      2.100413   187A      2.107197   188A      2.114187
     189A      2.127225   190A      2.135992   191A      2.146093
     192A      2.151763   193A      2.164602   194A      2.170243
     195A      2.181763   196A      2.227052   197A      2.241884
     198A      2.286605   199A      2.295493   200A      2.309723
     201A      2.317890   202A      2.328445   203A      2.338151
     204A      2.369384   205A      2.405371   206A      2.430793
     207A      2.457213   208A      2.466244   209A      2.480362
     210A      2.484342   211A      2.556574   212A      2.571620
     213A      2.582259   214A      2.604968   215A      2.618780
     216A      2.658004   217A      2.669750   218A      2.700667
     219A      2.710756   220A      2.770948   221A      2.777247
     222A      2.780762   223A      2.790493   224A      2.803980
     225A      2.823186   226A      2.849124   227A      2.862136
     228A      2.868334   229A      2.872413   230A      2.892902
     231A      2.922120   232A      2.963501   233A      2.978283
     234A      3.035392   235A      3.047958   236A      3.079575
     237A      3.103844   238A      3.142077   239A      3.214900
     240A      3.320834   241A      3.391882   242A      3.756154
     243A      3.965303

    Final Occupation by Irrep:
              A
    DOCC [    44 ]

  @RHF Final Energy:  -479.76729307087271

   => Energetics <=

    Nuclear Repulsion Energy =            676.0060254992907858
    One-Electron Energy =               -1990.0389210064856798
    Two-Electron Energy =                 834.2656024363222969
    Total Energy =                       -479.7672930708727108

Computation Completed

Properties will be evaluated at   0.000000,   0.000000,   0.000000 [a0]

Properties computed using the SCF density matrix

  Nuclear Dipole Moment: [e a0]
     X:     3.0670      Y:    -3.9362      Z:   -11.0734

  Electronic Dipole Moment: [e a0]
     X:    -3.3489      Y:     4.6188      Z:    10.8490

  Dipole Moment: [e a0]
     X:    -0.2818      Y:     0.6827      Z:    -0.2244     Total:     0.7719

  Dipole Moment: [D]
     X:    -0.7163      Y:     1.7351      Z:    -0.5703     Total:     1.9619

*** tstop() called on ds3 at Tue Apr 28 11:30:07 2020
Module time:
	user time   =     207.30 seconds =       3.46 minutes
	system time =      69.13 seconds =       1.15 minutes
	total time  =        275 seconds =       4.58 minutes
Total time:
	user time   =     207.30 seconds =       3.46 minutes
	system time =      69.13 seconds =       1.15 minutes
	total time  =        275 seconds =       4.58 minutes
                                     G D M A

                                 by Anthony Stone

                           version 2.2.06, 22 June 2011

               Distributed Multipoles from Gaussian wavefunctions

Starting at 11:30:7 on 28 Apr 2020

Using SCF density matrix from file ./SSI/SSI-133VAL-146TRP-1-dimer.test.15438.fchk

                         Distributed Multipole Analysis

Standard DMA

Positions and radii in angstrom
Multipole moments in atomic units, ea_0^k for rank k

C          x =  0.288783  y = -1.377415  z = -2.516605 angstrom
           Maximum rank =  0   Radius =  0.650 angstrom
                   Q00  =  -0.242746

C          x = -0.907217  y = -1.157415  z = -3.462605 angstrom
           Maximum rank =  0   Radius =  0.650 angstrom
                   Q00  =  -0.236999

H          x =  0.408783  y = -2.429415  z = -2.271605 angstrom
           Maximum rank =  0   Radius =  0.325 angstrom
                   Q00  =   0.076698

H          x =  1.201783  y = -1.024415  z = -2.991605 angstrom
           Maximum rank =  0   Radius =  0.325 angstrom
                   Q00  =   0.069906

H          x =  0.130783  y = -0.824415  z = -1.600605 angstrom
           Maximum rank =  0   Radius =  0.325 angstrom
                   Q00  =   0.094382

H          x = -0.717217  y = -1.702415  z = -4.384605 angstrom
           Maximum rank =  0   Radius =  0.325 angstrom
                   Q00  =   0.074184

H          x = -1.833737  y = -1.543225  z = -3.012373 angstrom
           Maximum rank =  0   Radius =  0.325 angstrom
                   Q00  =   0.078004

H          x = -1.010577  y = -0.086215  z = -3.690290 angstrom
           Maximum rank =  0   Radius =  0.325 angstrom
                   Q00  =   0.072263

C          x =  2.773783  y =  1.365585  z =  0.138395 angstrom
           Maximum rank =  0   Radius =  0.650 angstrom
                   Q00  =  -0.197611

C          x = -0.856217  y =  0.507585  z =  0.535395 angstrom
           Maximum rank =  0   Radius =  0.650 angstrom
                   Q00  =   0.294879

C          x =  0.513783  y =  0.207585  z =  0.743395 angstrom
           Maximum rank =  0   Radius =  0.650 angstrom
                   Q00  =  -0.050610

C          x =  1.284783  y =  1.227585  z =  0.100395 angstrom
           Maximum rank =  0   Radius =  0.650 angstrom
                   Q00  =  -0.119944

C          x =  0.391783  y =  2.071585  z = -0.460605 angstrom
           Maximum rank =  0   Radius =  0.650 angstrom
                   Q00  =   0.072603

C          x = -1.873217  y = -0.284415  z =  1.034395 angstrom
           Maximum rank =  0   Radius =  0.650 angstrom
                   Q00  =  -0.121966

C          x = -1.525217  y = -1.430415  z =  1.729395 angstrom
           Maximum rank =  0   Radius =  0.650 angstrom
                   Q00  =  -0.069599

C          x =  0.846783  y = -0.949415  z =  1.452395 angstrom
           Maximum rank =  0   Radius =  0.650 angstrom
                   Q00  =  -0.097657

C          x = -0.178217  y = -1.759415  z =  1.940395 angstrom
           Maximum rank =  0   Radius =  0.650 angstrom
                   Q00  =  -0.087013

N          x = -0.886217  y =  1.654585  z = -0.207605 angstrom
           Maximum rank =  0   Radius =  0.650 angstrom
                   Q00  =  -0.497720

H          x = -1.716217  y =  2.163585  z = -0.486605 angstrom
           Maximum rank =  0   Radius =  0.325 angstrom
                   Q00  =   0.216746

H          x = -2.885217  y =  0.019585  z =  0.908395 angstrom
           Maximum rank =  0   Radius =  0.325 angstrom
                   Q00  =   0.074318

H          x =  0.659783  y =  2.979585  z = -0.990605 angstrom
           Maximum rank =  0   Radius =  0.325 angstrom
                   Q00  =   0.100868

H          x = -2.301217  y = -2.063415  z =  2.137395 angstrom
           Maximum rank =  0   Radius =  0.325 angstrom
                   Q00  =   0.065319

H          x =  1.881783  y = -1.215415  z =  1.611395 angstrom
           Maximum rank =  0   Radius =  0.325 angstrom
                   Q00  =   0.070230

H          x =  3.097783  y =  2.120585  z = -0.579605 angstrom
           Maximum rank =  0   Radius =  0.325 angstrom
                   Q00  =   0.104901

H          x =  3.229783  y =  0.408585  z = -0.117605 angstrom
           Maximum rank =  0   Radius =  0.325 angstrom
                   Q00  =   0.100387

H          x =  0.062783  y = -2.655415  z =  2.496395 angstrom
           Maximum rank =  0   Radius =  0.325 angstrom
                   Q00  =   0.060418

H          x =  3.059803  y =  1.658815  z =  1.159282 angstrom
           Maximum rank =  0   Radius =  0.325 angstrom
                   Q00  =   0.095758

Total multipoles referred to origin at
           x =   0.000000,  y =    0.000000,  z =    0.000000 angstrom
                   Q00  =  -0.000000

Finished at 11:30:7 on 28 Apr 2020

  DMA results are available in the Python driver through the
	  variable('DMA DISTRIBUTED MULTIPOLES')
  and
	  variable('DMA TOTAL MULTIPOLES')
  commands.

    Psi4 stopped on: Tuesday, 28 April 2020 11:30AM
    Psi4 wall time for execution: 0:04:35.49

*** Psi4 exiting successfully. Buy a developer a beer!
