                               Psi4 1.3.2 release

  ==> Input File <==

--------------------------------------------------------------------------
import numpy as np
set {scf_type pk
basis cc-pvdz
d_convergence 10
gdma_switch   0
gdma_limit    0
gdma_origin   [ 0.0,  0.0,  0.0 ]
}
molecule test {
    units Angstrom
    -1 1
    --
    -1 1
    C               -1.641970999248119    -0.856891260214521    -1.367618877900746
    C               -2.519970999248118     0.035108739785479    -2.240618877900746
    H               -2.116970999248118    -1.824891260214521    -1.206618877900747
    H               -0.678970999248118    -1.011891260214521    -1.853618877900747
    H               -1.478970999248118    -0.374891260214521    -0.405618877900746
    H               -1.952970999248118     0.940108739785479    -2.459618877900747
    H               -3.434248999248118     0.331961739785479    -1.705848877900746
    H               -2.741361999248118    -0.464854260214521    -3.195098877900747
    C                1.576029000751882     1.551108739785479     0.778381122099253
    C                1.020029000751882     0.135108739785479     0.929381122099253
    O                0.130029000751882    -0.099891260214521     1.780381122099254
    O                1.496029000751881    -0.755891260214521     0.189381122099253
    H                1.419029000751882     1.906108739785479    -0.242618877900747
    H                2.656029000751882     1.508108739785479     0.942381122099254
    H                1.166429000751881     2.279450739785479     1.493741122099254

}
e, wfn = energy('scf', return_wfn=True)
gdma(wfn)
dmavals = variable('DMA DISTRIBUTED MULTIPOLES')
charges = np.array(dmavals)
print(charges)
np.save('SSI-114VAL-167GLU-1-dimer.npy', np.array(charges))--------------------------------------------------------------------------

*** tstart() called on ds3
*** at Mon Apr 27 06:45:13 2020

   => Loading Basis Set <=

    Name: CC-PVDZ
    Role: ORBITAL
    Keyword: BASIS
    atoms 1-2, 9-10  entry C          line   138 file /theoryfs2/ds/metcalf/miniconda2/envs/tf2gpu/share/psi4/basis/cc-pvdz.gbs
    atoms 3-8, 13-15 entry H          line    22 file /theoryfs2/ds/metcalf/miniconda2/envs/tf2gpu/share/psi4/basis/cc-pvdz.gbs
    atoms 11-12      entry O          line   198 file /theoryfs2/ds/metcalf/miniconda2/envs/tf2gpu/share/psi4/basis/cc-pvdz.gbs

         ---------------------------------------------------------
                                   SCF
               by Justin Turney, Rob Parrish, Andy Simmonett
                          and Daniel G. A. Smith
                              RHF Reference
                        1 Threads,    500 MiB Core
         ---------------------------------------------------------

  ==> Geometry <==

    Molecular point group: c1
    Full point group: C1

    Geometry (in Angstrom), charge = -1, multiplicity = 1:

       Center              X                  Y                   Z               Mass
    ------------   -----------------  -----------------  -----------------  -----------------
         C           -1.641970999248    -0.856891260215    -1.367618877901    12.000000000000
         C           -2.519970999248     0.035108739785    -2.240618877901    12.000000000000
         H           -2.116970999248    -1.824891260215    -1.206618877901     1.007825032230
         H           -0.678970999248    -1.011891260215    -1.853618877901     1.007825032230
         H           -1.478970999248    -0.374891260215    -0.405618877901     1.007825032230
         H           -1.952970999248     0.940108739785    -2.459618877901     1.007825032230
         H           -3.434248999248     0.331961739785    -1.705848877901     1.007825032230
         H           -2.741361999248    -0.464854260215    -3.195098877901     1.007825032230
         C            1.576029000752     1.551108739785     0.778381122099    12.000000000000
         C            1.020029000752     0.135108739785     0.929381122099    12.000000000000
         O            0.130029000752    -0.099891260215     1.780381122099    15.994914619570
         O            1.496029000752    -0.755891260215     0.189381122099    15.994914619570
         H            1.419029000752     1.906108739785    -0.242618877901     1.007825032230
         H            2.656029000752     1.508108739785     0.942381122099     1.007825032230
         H            1.166429000752     2.279450739785     1.493741122099     1.007825032230

  Running in c1 symmetry.

  Rotational constants: A =      0.16835  B =      0.04062  C =      0.03944 [cm^-1]
  Rotational constants: A =   5047.09884  B =   1217.80364  C =   1182.31391 [MHz]
  Nuclear repulsion =  222.924641066062890

  Charge       = -1
  Multiplicity = 1
  Electrons    = 50
  Nalpha       = 25
  Nbeta        = 25

  ==> Algorithm <==

  SCF Algorithm Type is PK.
  DIIS enabled.
  MOM disabled.
  Fractional occupation disabled.
  Guess Type is SAD.
  Energy threshold   = 1.00e-06
  Density threshold  = 1.00e-10
  Integral threshold = 0.00e+00

  ==> Primary Basis <==

  Basis Set: CC-PVDZ
    Blend: CC-PVDZ
    Number of shells: 63
    Number of basis function: 129
    Number of Cartesian functions: 135
    Spherical Harmonics?: true
    Max angular momentum: 2

  ==> Pre-Iterations <==

   -------------------------------------------------------
    Irrep   Nso     Nmo     Nalpha   Nbeta   Ndocc  Nsocc
   -------------------------------------------------------
     A        129     129       0       0       0       0
   -------------------------------------------------------
    Total     129     129      25      25      25       0
   -------------------------------------------------------

  ==> Integral Setup <==

  Using integral reordering PK algorithm.
  Sizing the integral batches needed.
  Building batch lookup table.
   Calculation information:
      Number of atoms:                  15
      Number of AO shells:              63
      Number of primitives:            177
      Number of atomic orbitals:       135
      Number of basis functions:       129

      Integral cutoff                 1.00e-12
      Number of threads:                 1

	Batch   1 pq = [       0,    8385] index = [             0,35158305] size =     35158305
  Task number: 4
  Buffer size: 11059200
  Buffer per thread: 2
  We computed 1691432 shell quartets total.
  Whereas there are 2033136 unique shell quartets.

  ==> DiskJK: Disk-Based J/K Matrices <==

    J tasked:                  Yes
    K tasked:                  Yes
    wK tasked:                  No
    Memory [MiB]:              375
    Schwarz Cutoff:          1E-12

    OpenMP threads:              1

  Minimum eigenvalue in the overlap matrix is 5.5325772187E-03.
  Using Symmetric Orthogonalization.

  SCF Guess: Superposition of Atomic Densities via on-the-fly atomic UHF.

  ==> Iterations <==

                        Total Energy        Delta E     RMS |[F,P]|

   @RHF iter SAD:  -304.82645627463893   -3.04826e+02   0.00000e+00
   @RHF iter   1:  -306.21013501436568   -1.38368e+00   5.65802e-03 DIIS
   @RHF iter   2:  -306.41066959164510   -2.00535e-01   3.18891e-03 DIIS
   @RHF iter   3:  -306.47257583841093   -6.19062e-02   4.75465e-04 DIIS
   @RHF iter   4:  -306.47515211717041   -2.57628e-03   1.78053e-04 DIIS
   @RHF iter   5:  -306.47553771558830   -3.85598e-04   2.58148e-05 DIIS
   @RHF iter   6:  -306.47554820125532   -1.04857e-05   5.58419e-06 DIIS
   @RHF iter   7:  -306.47554867473031   -4.73475e-07   1.83039e-06 DIIS
   @RHF iter   8:  -306.47554871737128   -4.26410e-08   6.61238e-07 DIIS
   @RHF iter   9:  -306.47554872193501   -4.56373e-09   2.38806e-07 DIIS
   @RHF iter  10:  -306.47554872283388   -8.98865e-10   7.78396e-08 DIIS
   @RHF iter  11:  -306.47554872297195   -1.38073e-10   2.12946e-08 DIIS
   @RHF iter  12:  -306.47554872298468   -1.27329e-11   7.02437e-09 DIIS
   @RHF iter  13:  -306.47554872298616   -1.47793e-12   2.43054e-09 DIIS
   @RHF iter  14:  -306.47554872298610    5.68434e-14   7.67078e-10 DIIS
   @RHF iter  15:  -306.47554872298622   -1.13687e-13   3.01397e-10 DIIS
   @RHF iter  16:  -306.47554872298736   -1.13687e-12   7.31466e-11 DIIS
  Energy and wave function converged.

  ==> Post-Iterations <==

    Orbital Energies [Eh]
    ---------------------

    Doubly Occupied:

       1A    -20.257712     2A    -20.254117     3A    -11.114696
       4A    -11.103337     5A    -11.074052     6A    -11.051323
       7A     -1.144740     8A     -1.030537     9A     -0.891731
      10A     -0.794371    11A     -0.706287    12A     -0.499197
      13A     -0.474814    14A     -0.470766    15A     -0.409423
      16A     -0.403897    17A     -0.399749    18A     -0.370555
      19A     -0.356269    20A     -0.355308    21A     -0.339048
      22A     -0.298224    23A     -0.180915    24A     -0.168068
      25A     -0.156581

    Virtual:

      26A      0.299153    27A      0.345533    28A      0.362935
      29A      0.368693    30A      0.378250    31A      0.403264
      32A      0.418433    33A      0.418818    34A      0.460084
      35A      0.490775    36A      0.524408    37A      0.574866
      38A      0.678709    39A      0.711488    40A      0.723125
      41A      0.730644    42A      0.758608    43A      0.810369
      44A      0.817287    45A      0.831634    46A      0.883240
      47A      0.957019    48A      0.976034    49A      1.000351
      50A      1.005032    51A      1.013865    52A      1.024875
      53A      1.028629    54A      1.040825    55A      1.046480
      56A      1.069150    57A      1.077588    58A      1.086729
      59A      1.124766    60A      1.138848    61A      1.229818
      62A      1.252326    63A      1.275347    64A      1.333505
      65A      1.358896    66A      1.375252    67A      1.408969
      68A      1.549875    69A      1.568585    70A      1.583581
      71A      1.593431    72A      1.613396    73A      1.623484
      74A      1.639565    75A      1.684801    76A      1.724321
      77A      1.743530    78A      1.789896    79A      1.842787
      80A      1.845579    81A      1.868097    82A      1.977144
      83A      2.002871    84A      2.026764    85A      2.036857
      86A      2.074387    87A      2.075964    88A      2.081821
      89A      2.091705    90A      2.094563    91A      2.104795
      92A      2.115070    93A      2.133486    94A      2.222430
      95A      2.229692    96A      2.247375    97A      2.277757
      98A      2.313081    99A      2.415042   100A      2.438938
     101A      2.448951   102A      2.485953   103A      2.579393
     104A      2.592853   105A      2.618746   106A      2.641104
     107A      2.690170   108A      2.717681   109A      2.729500
     110A      2.781347   111A      2.873663   112A      2.909819
     113A      2.940897   114A      2.960101   115A      2.969554
     116A      2.986867   117A      2.993308   118A      3.086496
     119A      3.100302   120A      3.246973   121A      3.281984
     122A      3.300124   123A      3.366367   124A      3.639715
     125A      3.784508   126A      3.827558   127A      4.069115
     128A      4.080930   129A      4.193522

    Final Occupation by Irrep:
              A
    DOCC [    25 ]

  @RHF Final Energy:  -306.47554872298736

   => Energetics <=

    Nuclear Repulsion Energy =            222.9246410660628896
    One-Electron Energy =                -870.1889483334196029
    Two-Electron Energy =                 340.7887585443693297
    Total Energy =                       -306.4755487229873552

Computation Completed

Properties will be evaluated at   0.000000,   0.000000,   0.000000 [a0]

Properties computed using the SCF density matrix

  Nuclear Dipole Moment: [e a0]
     X:    -6.7064      Y:     3.0794      Z:    -8.0836

  Electronic Dipole Moment: [e a0]
     X:     5.6231      Y:    -2.0647      Z:     6.5280

  Dipole Moment: [e a0]
     X:    -1.0833      Y:     1.0147      Z:    -1.5556     Total:     2.1501

  Dipole Moment: [D]
     X:    -2.7534      Y:     2.5792      Z:    -3.9540     Total:     5.4651

*** tstop() called on ds3 at Mon Apr 27 06:45:31 2020
Module time:
	user time   =      12.45 seconds =       0.21 minutes
	system time =       5.66 seconds =       0.09 minutes
	total time  =         18 seconds =       0.30 minutes
Total time:
	user time   =      12.45 seconds =       0.21 minutes
	system time =       5.66 seconds =       0.09 minutes
	total time  =         18 seconds =       0.30 minutes
                                     G D M A

                                 by Anthony Stone

                           version 2.2.06, 22 June 2011

               Distributed Multipoles from Gaussian wavefunctions

Starting at 6:45:31 on 27 Apr 2020

Using SCF density matrix from file ./SSI/SSI-114VAL-167GLU-1-dimer.test.5420.fchk

                         Distributed Multipole Analysis

Standard DMA

Positions and radii in angstrom
Multipole moments in atomic units, ea_0^k for rank k

C          x = -1.641971  y = -0.856891  z = -1.367619 angstrom
           Maximum rank =  0   Radius =  0.650 angstrom
                   Q00  =  -0.148843

C          x = -2.519971  y =  0.035109  z = -2.240619 angstrom
           Maximum rank =  0   Radius =  0.650 angstrom
                   Q00  =  -0.260583

H          x = -2.116971  y = -1.824891  z = -1.206619 angstrom
           Maximum rank =  0   Radius =  0.325 angstrom
                   Q00  =   0.045576

H          x = -0.678971  y = -1.011891  z = -1.853619 angstrom
           Maximum rank =  0   Radius =  0.325 angstrom
                   Q00  =   0.081542

H          x = -1.478971  y = -0.374891  z = -0.405619 angstrom
           Maximum rank =  0   Radius =  0.325 angstrom
                   Q00  =   0.096708

H          x = -1.952971  y =  0.940109  z = -2.459619 angstrom
           Maximum rank =  0   Radius =  0.325 angstrom
                   Q00  =   0.068515

H          x = -3.434249  y =  0.331962  z = -1.705849 angstrom
           Maximum rank =  0   Radius =  0.325 angstrom
                   Q00  =   0.060370

H          x = -2.741362  y = -0.464854  z = -3.195099 angstrom
           Maximum rank =  0   Radius =  0.325 angstrom
                   Q00  =   0.046176

C          x =  1.576029  y =  1.551109  z =  0.778381 angstrom
           Maximum rank =  0   Radius =  0.650 angstrom
                   Q00  =  -0.282288

C          x =  1.020029  y =  0.135109  z =  0.929381 angstrom
           Maximum rank =  0   Radius =  0.650 angstrom
                   Q00  =   0.969103

O          x =  0.130029  y = -0.099891  z =  1.780381 angstrom
           Maximum rank =  0   Radius =  0.650 angstrom
                   Q00  =  -0.924616

O          x =  1.496029  y = -0.755891  z =  0.189381 angstrom
           Maximum rank =  0   Radius =  0.650 angstrom
                   Q00  =  -0.931770

H          x =  1.419029  y =  1.906109  z = -0.242619 angstrom
           Maximum rank =  0   Radius =  0.325 angstrom
                   Q00  =   0.066667

H          x =  2.656029  y =  1.508109  z =  0.942381 angstrom
           Maximum rank =  0   Radius =  0.325 angstrom
                   Q00  =   0.066645

H          x =  1.166429  y =  2.279451  z =  1.493741 angstrom
           Maximum rank =  0   Radius =  0.325 angstrom
                   Q00  =   0.046799

Total multipoles referred to origin at
           x =   0.000000,  y =    0.000000,  z =    0.000000 angstrom
                   Q00  =  -1.000000

Finished at 6:45:31 on 27 Apr 2020

  DMA results are available in the Python driver through the
	  variable('DMA DISTRIBUTED MULTIPOLES')
  and
	  variable('DMA TOTAL MULTIPOLES')
  commands.

    Psi4 stopped on: Monday, 27 April 2020 06:45AM
    Psi4 wall time for execution: 0:00:18.35

*** Psi4 exiting successfully. Buy a developer a beer!
