                               Psi4 1.3.2 release

  ==> Input File <==

--------------------------------------------------------------------------
import numpy as np
set {scf_type pk
basis cc-pvdz
d_convergence 10
gdma_switch   0
gdma_limit    0
gdma_origin   [ 0.0,  0.0,  0.0 ]
}
molecule test {
    units Angstrom
    0 1
    --
    0 1
    C               -1.752576186959363    -0.804632954887323    -0.839281961083618
    C               -2.427576186959363    -2.131632954887323    -1.168281961083618
    C               -2.661576186959363     0.138367045112677    -0.086281961083618
    C               -3.535576186959363     0.959367045112677    -0.795281961083618
    C               -2.635576186959363     0.190367045112677     1.326718038916382
    C               -4.379576186959364     1.848367045112677    -0.117281961083618
    C               -3.488576186959363     1.066367045112677     1.993718038916382
    C               -4.364576186959363     1.875367045112676     1.271718038916382
    H               -0.863576186959363    -0.987632954887323    -0.243281961083618
    H               -1.435576186959363    -0.328632954887323    -1.769281961083618
    H               -3.298576186959363    -1.918632954887323    -1.791281961083618
    H               -3.564576186959363     0.910367045112677    -1.873281961083618
    H               -1.950576186959363    -0.425632954887323     1.891718038916382
    H               -5.062576186959364     2.484367045112676    -0.664281961083618
    H               -3.474576186959363     1.116367045112677     3.074718038916382
    H               -5.026576186959362     2.549367045112677     1.799718038916382
    H               -2.753186186959363    -2.641578954887323    -0.249621961083618
    H               -1.766404186959363    -2.802218954887323    -1.736761961083618
    C                1.945423813040637    -0.112632954887323    -0.841281961083618
    C                1.918423813040637    -0.539632954887323    -2.286281961083618
    C                4.204423813040637    -0.834632954887323    -1.463281961083618
    C                5.024423813040636    -0.669632954887323     1.300718038916382
    C                3.660423813040637    -0.204632954887323     0.867718038916382
    O                2.913423813040637     0.312367045112677     1.700718038916382
    N                3.317423813040637    -0.393632954887323    -0.388281961083618
    H                1.707423813040637     0.949367045112677    -0.747281961083618
    H                1.251423813040637    -0.714632954887323    -0.259281961083618
    H                1.900423813040637     0.349367045112677    -2.918281961083618
    H                1.051423813040637    -1.166632954887323    -2.499281961083618
    H                4.820423813040636    -1.664632954887323    -1.178281961083618
    H                5.701423813040637    -0.411632954887323     0.486718038916382
    H                2.856732813040637    -1.087703954887323    -2.457141961083618
    H                3.488692813040637    -1.168640954887323    -2.228901961083618
    H                4.817253813040637    -0.008180954887323    -1.852411961083618
    H                5.343953813040637    -0.055219954887323     2.155348038916381
    H                5.044053813040637    -1.762325954887323     1.425768038916382

}
e, wfn = energy('scf', return_wfn=True)
gdma(wfn)
dmavals = variable('DMA DISTRIBUTED MULTIPOLES')
charges = np.array(dmavals)
print(charges)
np.save('SSI-038PHE-101PRO-1-dimer.npy', np.array(charges))--------------------------------------------------------------------------

*** tstart() called on ds3
*** at Sun Apr 26 21:49:00 2020

   => Loading Basis Set <=

    Name: CC-PVDZ
    Role: ORBITAL
    Keyword: BASIS
    atoms 1-8, 19-23  entry C          line   138 file /theoryfs2/ds/metcalf/miniconda2/envs/tf2gpu/share/psi4/basis/cc-pvdz.gbs
    atoms 9-18, 26-36 entry H          line    22 file /theoryfs2/ds/metcalf/miniconda2/envs/tf2gpu/share/psi4/basis/cc-pvdz.gbs
    atoms 24          entry O          line   198 file /theoryfs2/ds/metcalf/miniconda2/envs/tf2gpu/share/psi4/basis/cc-pvdz.gbs
    atoms 25          entry N          line   168 file /theoryfs2/ds/metcalf/miniconda2/envs/tf2gpu/share/psi4/basis/cc-pvdz.gbs

         ---------------------------------------------------------
                                   SCF
               by Justin Turney, Rob Parrish, Andy Simmonett
                          and Daniel G. A. Smith
                              RHF Reference
                        1 Threads,    500 MiB Core
         ---------------------------------------------------------

  ==> Geometry <==

    Molecular point group: c1
    Full point group: C1

    Geometry (in Angstrom), charge = 0, multiplicity = 1:

       Center              X                  Y                   Z               Mass
    ------------   -----------------  -----------------  -----------------  -----------------
         C           -1.752576186959    -0.804632954887    -0.839281961084    12.000000000000
         C           -2.427576186959    -2.131632954887    -1.168281961084    12.000000000000
         C           -2.661576186959     0.138367045113    -0.086281961084    12.000000000000
         C           -3.535576186959     0.959367045113    -0.795281961084    12.000000000000
         C           -2.635576186959     0.190367045113     1.326718038916    12.000000000000
         C           -4.379576186959     1.848367045113    -0.117281961084    12.000000000000
         C           -3.488576186959     1.066367045113     1.993718038916    12.000000000000
         C           -4.364576186959     1.875367045113     1.271718038916    12.000000000000
         H           -0.863576186959    -0.987632954887    -0.243281961084     1.007825032230
         H           -1.435576186959    -0.328632954887    -1.769281961084     1.007825032230
         H           -3.298576186959    -1.918632954887    -1.791281961084     1.007825032230
         H           -3.564576186959     0.910367045113    -1.873281961084     1.007825032230
         H           -1.950576186959    -0.425632954887     1.891718038916     1.007825032230
         H           -5.062576186959     2.484367045113    -0.664281961084     1.007825032230
         H           -3.474576186959     1.116367045113     3.074718038916     1.007825032230
         H           -5.026576186959     2.549367045113     1.799718038916     1.007825032230
         H           -2.753186186959    -2.641578954887    -0.249621961084     1.007825032230
         H           -1.766404186959    -2.802218954887    -1.736761961084     1.007825032230
         C            1.945423813041    -0.112632954887    -0.841281961084    12.000000000000
         C            1.918423813041    -0.539632954887    -2.286281961084    12.000000000000
         C            4.204423813041    -0.834632954887    -1.463281961084    12.000000000000
         C            5.024423813041    -0.669632954887     1.300718038916    12.000000000000
         C            3.660423813041    -0.204632954887     0.867718038916    12.000000000000
         O            2.913423813041     0.312367045113     1.700718038916    15.994914619570
         N            3.317423813041    -0.393632954887    -0.388281961084    14.003074004430
         H            1.707423813041     0.949367045113    -0.747281961084     1.007825032230
         H            1.251423813041    -0.714632954887    -0.259281961084     1.007825032230
         H            1.900423813041     0.349367045113    -2.918281961084     1.007825032230
         H            1.051423813041    -1.166632954887    -2.499281961084     1.007825032230
         H            4.820423813041    -1.664632954887    -1.178281961084     1.007825032230
         H            5.701423813041    -0.411632954887     0.486718038916     1.007825032230
         H            2.856732813041    -1.087703954887    -2.457141961084     1.007825032230
         H            3.488692813041    -1.168640954887    -2.228901961084     1.007825032230
         H            4.817253813041    -0.008180954887    -1.852411961084     1.007825032230
         H            5.343953813041    -0.055219954887     2.155348038916     1.007825032230
         H            5.044053813041    -1.762325954887     1.425768038916     1.007825032230

  Running in c1 symmetry.

  Rotational constants: A =      0.03137  B =      0.00663  C =      0.00595 [cm^-1]
  Rotational constants: A =    940.41982  B =    198.80590  C =    178.26664 [MHz]
  Nuclear repulsion =  932.785396548301264

  Charge       = 0
  Multiplicity = 1
  Electrons    = 114
  Nalpha       = 57
  Nbeta        = 57

  ==> Algorithm <==

  SCF Algorithm Type is PK.
  DIIS enabled.
  MOM disabled.
  Fractional occupation disabled.
  Guess Type is SAD.
  Energy threshold   = 1.00e-06
  Density threshold  = 1.00e-10
  Integral threshold = 0.00e+00

  ==> Primary Basis <==

  Basis Set: CC-PVDZ
    Blend: CC-PVDZ
    Number of shells: 153
    Number of basis function: 315
    Number of Cartesian functions: 330
    Spherical Harmonics?: true
    Max angular momentum: 2

  ==> Pre-Iterations <==

   -------------------------------------------------------
    Irrep   Nso     Nmo     Nalpha   Nbeta   Ndocc  Nsocc
   -------------------------------------------------------
     A        315     315       0       0       0       0
   -------------------------------------------------------
    Total     315     315      57      57      57       0
   -------------------------------------------------------

  ==> Integral Setup <==

  Using integral reordering PK algorithm.
  Sizing the integral batches needed.
  Building batch lookup table.
   Calculation information:
      Number of atoms:                  36
      Number of AO shells:             153
      Number of primitives:            435
      Number of atomic orbitals:       330
      Number of basis functions:       315

      Integral cutoff                 1.00e-12
      Number of threads:                 1

	Batch   1 pq = [       0,    9405] index = [             0,44231715] size =     44231715
	Batch   2 pq = [    9405,   13301] index = [      44231715,88464951] size =     44233236
	Batch   3 pq = [   13301,   16290] index = [      88464951,132690195] size =     44225244
	Batch   4 pq = [   16290,   18810] index = [     132690195,176917455] size =     44227260
	Batch   5 pq = [   18810,   21030] index = [     176917455,221140965] size =     44223510
	Batch   6 pq = [   21030,   23037] index = [     221140965,265363203] size =     44222238
	Batch   7 pq = [   23037,   24883] index = [     265363203,309594286] size =     44231083
	Batch   8 pq = [   24883,   26601] index = [     309594286,353819901] size =     44225615
	Batch   9 pq = [   26601,   28214] index = [     353819901,398029005] size =     44209104
	Batch  10 pq = [   28214,   29740] index = [     398029005,442248670] size =     44219665
	Batch  11 pq = [   29740,   31191] index = [     442248670,486454836] size =     44206166
	Batch  12 pq = [   31191,   32578] index = [     486454836,530679331] size =     44224495
	Batch  13 pq = [   32578,   33908] index = [     530679331,574893186] size =     44213855
	Batch  14 pq = [   33908,   35188] index = [     574893186,619115266] size =     44222080
	Batch  15 pq = [   35188,   36423] index = [     619115266,663335676] size =     44220410
	Batch  16 pq = [   36423,   37617] index = [     663335676,707538153] size =     44202477
	Batch  17 pq = [   37617,   38775] index = [     707538153,751769700] size =     44231547
	Batch  18 pq = [   38775,   39899] index = [     751769700,795985050] size =     44215350
	Batch  19 pq = [   39899,   40992] index = [     795985050,840192528] size =     44207478
	Batch  20 pq = [   40992,   42057] index = [     840192528,884416653] size =     44224125
	Batch  21 pq = [   42057,   43095] index = [     884416653,928611060] size =     44194407
	Batch  22 pq = [   43095,   44109] index = [     928611060,972823995] size =     44212935
	Batch  23 pq = [   44109,   45100] index = [     972823995,1017027550] size =     44203555
	Batch  24 pq = [   45100,   46070] index = [    1017027550,1061245485] size =     44217935
	Batch  25 pq = [   46070,   47020] index = [    1061245485,1105463710] size =     44218225
	Batch  26 pq = [   47020,   47951] index = [    1105463710,1149673176] size =     44209466
	Batch  27 pq = [   47951,   48864] index = [    1149673176,1193869680] size =     44196504
	Batch  28 pq = [   48864,   49770] index = [    1193869680,1238551335] size =     44681655
  Task number: 112
  Buffer size: 11059200
  Buffer per thread: 2
  We computed 58058548 shell quartets total.
  Whereas there are 69401871 unique shell quartets.

  ==> DiskJK: Disk-Based J/K Matrices <==

    J tasked:                  Yes
    K tasked:                  Yes
    wK tasked:                  No
    Memory [MiB]:              375
    Schwarz Cutoff:          1E-12

    OpenMP threads:              1

  Minimum eigenvalue in the overlap matrix is 3.2552402294E-04.
  Using Symmetric Orthogonalization.

  SCF Guess: Superposition of Atomic Densities via on-the-fly atomic UHF.

  ==> Iterations <==

                        Total Energy        Delta E     RMS |[F,P]|

   @RHF iter SAD:  -632.95265875376117   -6.32953e+02   0.00000e+00
   @RHF iter   1:  -633.30707518788665   -3.54416e-01   2.47634e-03 DIIS
   @RHF iter   2:  -633.61576413275338   -3.08689e-01   1.29380e-03 DIIS
   @RHF iter   3:  -633.68417567939684   -6.84115e-02   3.37655e-04 DIIS
   @RHF iter   4:  -633.69074403418392   -6.56835e-03   1.32679e-04 DIIS
   @RHF iter   5:  -633.69175547567806   -1.01144e-03   2.05591e-05 DIIS
   @RHF iter   6:  -633.69180959988716   -5.41242e-05   9.96238e-06 DIIS
   @RHF iter   7:  -633.69181944417721   -9.84429e-06   3.77657e-06 DIIS
   @RHF iter   8:  -633.69182156879867   -2.12462e-06   1.50309e-06 DIIS
   @RHF iter   9:  -633.69182191209120   -3.43293e-07   4.19890e-07 DIIS
   @RHF iter  10:  -633.69182193372353   -2.16323e-08   1.33981e-07 DIIS
   @RHF iter  11:  -633.69182193597578   -2.25225e-09   5.06258e-08 DIIS
   @RHF iter  12:  -633.69182193624636   -2.70575e-10   2.11605e-08 DIIS
   @RHF iter  13:  -633.69182193631229   -6.59384e-11   8.21274e-09 DIIS
   @RHF iter  14:  -633.69182193632707   -1.47793e-11   3.57630e-09 DIIS
   @RHF iter  15:  -633.69182193632867   -1.59162e-12   1.63999e-09 DIIS
   @RHF iter  16:  -633.69182193633549   -6.82121e-12   5.87762e-10 DIIS
   @RHF iter  17:  -633.69182193633480    6.82121e-13   2.12059e-10 DIIS
   @RHF iter  18:  -633.69182193633196    2.84217e-12   8.21228e-11 DIIS
  Energy and wave function converged.

  ==> Post-Iterations <==

    Orbital Energies [Eh]
    ---------------------

    Doubly Occupied:

       1A    -20.493374     2A    -15.582813     3A    -11.332218
       4A    -11.264083     5A    -11.260663     6A    -11.237198
       7A    -11.233345     8A    -11.231911     9A    -11.231695
      10A    -11.229717    11A    -11.228752    12A    -11.227866
      13A    -11.227545    14A    -11.223255    15A    -11.219621
      16A     -1.362187    17A     -1.256092    18A     -1.147622
      19A     -1.072063    20A     -1.060921    21A     -1.007353
      22A     -1.002943    23A     -0.980917    24A     -0.977819
      25A     -0.859200    26A     -0.852733    27A     -0.821236
      28A     -0.781993    29A     -0.760892    30A     -0.724757
      31A     -0.686680    32A     -0.672259    33A     -0.659266
      34A     -0.637591    35A     -0.632319    36A     -0.611379
      37A     -0.606492    38A     -0.587855    39A     -0.585216
      40A     -0.582585    41A     -0.574583    42A     -0.551338
      43A     -0.540555    44A     -0.538180    45A     -0.523064
      46A     -0.515160    47A     -0.512099    48A     -0.498095
      49A     -0.480938    50A     -0.478178    51A     -0.473100
      52A     -0.464646    53A     -0.412405    54A     -0.396226
      55A     -0.361530    56A     -0.327990    57A     -0.317099

    Virtual:

      58A      0.138731    59A      0.140176    60A      0.164832
      61A      0.180311    62A      0.193397    63A      0.197048
      64A      0.209172    65A      0.211573    66A      0.222706
      67A      0.224682    68A      0.236822    69A      0.239671
      70A      0.244009    71A      0.252858    72A      0.258249
      73A      0.267149    74A      0.276507    75A      0.280911
      76A      0.295221    77A      0.303085    78A      0.304703
      79A      0.315679    80A      0.327117    81A      0.338144
      82A      0.361194    83A      0.380710    84A      0.398309
      85A      0.403578    86A      0.414803    87A      0.438017
      88A      0.455683    89A      0.462756    90A      0.479268
      91A      0.489492    92A      0.502806    93A      0.510584
      94A      0.513865    95A      0.556939    96A      0.571577
      97A      0.578714    98A      0.601357    99A      0.616355
     100A      0.621011   101A      0.634976   102A      0.639234
     103A      0.649867   104A      0.668871   105A      0.680650
     106A      0.686880   107A      0.698482   108A      0.708297
     109A      0.716128   110A      0.722553   111A      0.727737
     112A      0.736669   113A      0.742088   114A      0.743638
     115A      0.750892   116A      0.753390   117A      0.776099
     118A      0.792496   119A      0.800107   120A      0.807028
     121A      0.826602   122A      0.832306   123A      0.844496
     124A      0.854768   125A      0.857665   126A      0.864976
     127A      0.866377   128A      0.872194   129A      0.878185
     130A      0.880321   131A      0.889097   132A      0.891462
     133A      0.894909   134A      0.903031   135A      0.906587
     136A      0.909327   137A      0.910911   138A      0.924099
     139A      0.932633   140A      0.941869   141A      0.943285
     142A      0.954001   143A      0.960042   144A      0.965272
     145A      0.971758   146A      0.987548   147A      0.995264
     148A      1.009421   149A      1.014357   150A      1.037419
     151A      1.046935   152A      1.066077   153A      1.093197
     154A      1.107746   155A      1.125094   156A      1.132360
     157A      1.138921   158A      1.141244   159A      1.152724
     160A      1.169396   161A      1.188015   162A      1.207936
     163A      1.223339   164A      1.239787   165A      1.244421
     166A      1.248430   167A      1.254341   168A      1.269091
     169A      1.291920   170A      1.307182   171A      1.310789
     172A      1.325249   173A      1.338232   174A      1.380864
     175A      1.396182   176A      1.409124   177A      1.426122
     178A      1.435278   179A      1.450411   180A      1.470532
     181A      1.492926   182A      1.499064   183A      1.513744
     184A      1.535912   185A      1.549377   186A      1.552794
     187A      1.581160   188A      1.601291   189A      1.606448
     190A      1.616324   191A      1.646387   192A      1.654215
     193A      1.667892   194A      1.688191   195A      1.691548
     196A      1.705715   197A      1.723364   198A      1.740195
     199A      1.758853   200A      1.767117   201A      1.777494
     202A      1.781473   203A      1.817854   204A      1.830903
     205A      1.834344   206A      1.849437   207A      1.858138
     208A      1.863914   209A      1.874665   210A      1.881553
     211A      1.893053   212A      1.895510   213A      1.898596
     214A      1.901032   215A      1.907229   216A      1.923578
     217A      1.929846   218A      1.931777   219A      1.941502
     220A      1.946045   221A      1.949962   222A      1.957158
     223A      1.970051   224A      1.973169   225A      1.975397
     226A      1.983029   227A      1.985016   228A      1.991570
     229A      2.008454   230A      2.015398   231A      2.019672
     232A      2.037579   233A      2.049763   234A      2.054177
     235A      2.060206   236A      2.067806   237A      2.080152
     238A      2.098343   239A      2.105263   240A      2.131260
     241A      2.139804   242A      2.148931   243A      2.157597
     244A      2.165925   245A      2.168448   246A      2.174059
     247A      2.188213   248A      2.193755   249A      2.221273
     250A      2.233568   251A      2.245169   252A      2.246571
     253A      2.272285   254A      2.275882   255A      2.287083
     256A      2.303960   257A      2.317159   258A      2.320593
     259A      2.333428   260A      2.351882   261A      2.365783
     262A      2.386479   263A      2.394771   264A      2.448495
     265A      2.457613   266A      2.479287   267A      2.489229
     268A      2.499691   269A      2.509554   270A      2.511476
     271A      2.547754   272A      2.575098   273A      2.580468
     274A      2.590315   275A      2.614668   276A      2.640246
     277A      2.648981   278A      2.686582   279A      2.745128
     280A      2.755549   281A      2.760826   282A      2.764023
     283A      2.769386   284A      2.771471   285A      2.780957
     286A      2.795790   287A      2.798232   288A      2.805909
     289A      2.840641   290A      2.843709   291A      2.854317
     292A      2.866321   293A      2.881115   294A      2.913882
     295A      2.928968   296A      2.965094   297A      2.977618
     298A      2.985767   299A      3.022433   300A      3.040129
     301A      3.065438   302A      3.102088   303A      3.117255
     304A      3.180510   305A      3.188016   306A      3.196997
     307A      3.230038   308A      3.301937   309A      3.305552
     310A      3.398827   311A      3.535438   312A      3.845796
     313A      3.910107   314A      3.959400   315A      4.985920

    Final Occupation by Irrep:
              A
    DOCC [    57 ]

  @RHF Final Energy:  -633.69182193633196

   => Energetics <=

    Nuclear Repulsion Energy =            932.7853965483012644
    One-Electron Energy =               -2710.7152178415967683
    Two-Electron Energy =                1144.2379993569634280
    Total Energy =                       -633.6918219363319622

Computation Completed

Properties will be evaluated at   0.000000,   0.000000,   0.000000 [a0]

Properties computed using the SCF density matrix

  Nuclear Dipole Moment: [e a0]
     X:     8.2419      Y:    -8.2328      Z:   -10.8978

  Electronic Dipole Moment: [e a0]
     X:    -7.5181      Y:     7.4775      Z:     9.3472

  Dipole Moment: [e a0]
     X:     0.7238      Y:    -0.7552      Z:    -1.5506     Total:     1.8705

  Dipole Moment: [D]
     X:     1.8397      Y:    -1.9196      Z:    -3.9413     Total:     4.7543

*** tstop() called on ds3 at Sun Apr 26 22:06:19 2020
Module time:
	user time   =     489.65 seconds =       8.16 minutes
	system time =     204.65 seconds =       3.41 minutes
	total time  =       1039 seconds =      17.32 minutes
Total time:
	user time   =     489.65 seconds =       8.16 minutes
	system time =     204.65 seconds =       3.41 minutes
	total time  =       1039 seconds =      17.32 minutes
                                     G D M A

                                 by Anthony Stone

                           version 2.2.06, 22 June 2011

               Distributed Multipoles from Gaussian wavefunctions

Starting at 22:6:19 on 26 Apr 2020

Using SCF density matrix from file ./SSI/SSI-038PHE-101PRO-1-dimer.test.9786.fchk

                         Distributed Multipole Analysis

Standard DMA

Positions and radii in angstrom
Multipole moments in atomic units, ea_0^k for rank k

C          x = -1.752576  y = -0.804633  z = -0.839282 angstrom
           Maximum rank =  0   Radius =  0.650 angstrom
                   Q00  =  -0.031610

C          x = -2.427576  y = -2.131633  z = -1.168282 angstrom
           Maximum rank =  0   Radius =  0.650 angstrom
                   Q00  =  -0.239004

C          x = -2.661576  y =  0.138367  z = -0.086282 angstrom
           Maximum rank =  0   Radius =  0.650 angstrom
                   Q00  =  -0.112506

C          x = -3.535576  y =  0.959367  z = -0.795282 angstrom
           Maximum rank =  0   Radius =  0.650 angstrom
                   Q00  =  -0.053942

C          x = -2.635576  y =  0.190367  z =  1.326718 angstrom
           Maximum rank =  0   Radius =  0.650 angstrom
                   Q00  =  -0.086084

C          x = -4.379576  y =  1.848367  z = -0.117282 angstrom
           Maximum rank =  0   Radius =  0.650 angstrom
                   Q00  =  -0.075289

C          x = -3.488576  y =  1.066367  z =  1.993718 angstrom
           Maximum rank =  0   Radius =  0.650 angstrom
                   Q00  =  -0.067110

C          x = -4.364576  y =  1.875367  z =  1.271718 angstrom
           Maximum rank =  0   Radius =  0.650 angstrom
                   Q00  =  -0.021901

H          x = -0.863576  y = -0.987633  z = -0.243282 angstrom
           Maximum rank =  0   Radius =  0.325 angstrom
                   Q00  =   0.067690

H          x = -1.435576  y = -0.328633  z = -1.769282 angstrom
           Maximum rank =  0   Radius =  0.325 angstrom
                   Q00  =   0.061700

H          x = -3.298576  y = -1.918633  z = -1.791282 angstrom
           Maximum rank =  0   Radius =  0.325 angstrom
                   Q00  =   0.081455

H          x = -3.564576  y =  0.910367  z = -1.873282 angstrom
           Maximum rank =  0   Radius =  0.325 angstrom
                   Q00  =   0.054116

H          x = -1.950576  y = -0.425633  z =  1.891718 angstrom
           Maximum rank =  0   Radius =  0.325 angstrom
                   Q00  =   0.066848

H          x = -5.062576  y =  2.484367  z = -0.664282 angstrom
           Maximum rank =  0   Radius =  0.325 angstrom
                   Q00  =   0.065390

H          x = -3.474576  y =  1.116367  z =  3.074718 angstrom
           Maximum rank =  0   Radius =  0.325 angstrom
                   Q00  =   0.067478

H          x = -5.026576  y =  2.549367  z =  1.799718 angstrom
           Maximum rank =  0   Radius =  0.325 angstrom
                   Q00  =   0.059827

H          x = -2.753186  y = -2.641579  z = -0.249622 angstrom
           Maximum rank =  0   Radius =  0.325 angstrom
                   Q00  =   0.086086

H          x = -1.766404  y = -2.802219  z = -1.736762 angstrom
           Maximum rank =  0   Radius =  0.325 angstrom
                   Q00  =   0.076715

C          x =  1.945424  y = -0.112633  z = -0.841282 angstrom
           Maximum rank =  0   Radius =  0.650 angstrom
                   Q00  =   0.024035

C          x =  1.918424  y = -0.539633  z = -2.286282 angstrom
           Maximum rank =  0   Radius =  0.650 angstrom
                   Q00  =  -0.271121

C          x =  4.204424  y = -0.834633  z = -1.463282 angstrom
           Maximum rank =  0   Radius =  0.650 angstrom
                   Q00  =  -0.069416

C          x =  5.024424  y = -0.669633  z =  1.300718 angstrom
           Maximum rank =  0   Radius =  0.650 angstrom
                   Q00  =  -0.236658

C          x =  3.660424  y = -0.204633  z =  0.867718 angstrom
           Maximum rank =  0   Radius =  0.650 angstrom
                   Q00  =   0.746815

O          x =  2.913424  y =  0.312367  z =  1.700718 angstrom
           Maximum rank =  0   Radius =  0.650 angstrom
                   Q00  =  -0.802204

N          x =  3.317424  y = -0.393633  z = -0.388282 angstrom
           Maximum rank =  0   Radius =  0.650 angstrom
                   Q00  =  -0.468570

H          x =  1.707424  y =  0.949367  z = -0.747282 angstrom
           Maximum rank =  0   Radius =  0.325 angstrom
                   Q00  =   0.087997

H          x =  1.251424  y = -0.714633  z = -0.259282 angstrom
           Maximum rank =  0   Radius =  0.325 angstrom
                   Q00  =   0.081381

H          x =  1.900424  y =  0.349367  z = -2.918282 angstrom
           Maximum rank =  0   Radius =  0.325 angstrom
                   Q00  =   0.100609

H          x =  1.051424  y = -1.166633  z = -2.499282 angstrom
           Maximum rank =  0   Radius =  0.325 angstrom
                   Q00  =   0.098785

H          x =  4.820424  y = -1.664633  z = -1.178282 angstrom
           Maximum rank =  0   Radius =  0.325 angstrom
                   Q00  =   0.096954

H          x =  5.701424  y = -0.411633  z =  0.486718 angstrom
           Maximum rank =  0   Radius =  0.325 angstrom
                   Q00  =   0.087707

H          x =  2.856733  y = -1.087704  z = -2.457142 angstrom
           Maximum rank =  0   Radius =  0.325 angstrom
                   Q00  =   0.081383

H          x =  3.488693  y = -1.168641  z = -2.228902 angstrom
           Maximum rank =  0   Radius =  0.325 angstrom
                   Q00  =   0.128076

H          x =  4.817254  y = -0.008181  z = -1.852412 angstrom
           Maximum rank =  0   Radius =  0.325 angstrom
                   Q00  =   0.083445

H          x =  5.343954  y = -0.055220  z =  2.155348 angstrom
           Maximum rank =  0   Radius =  0.325 angstrom
                   Q00  =   0.116980

H          x =  5.044054  y = -1.762326  z =  1.425768 angstrom
           Maximum rank =  0   Radius =  0.325 angstrom
                   Q00  =   0.113940

Total multipoles referred to origin at
           x =   0.000000,  y =    0.000000,  z =    0.000000 angstrom
                   Q00  =  -0.000000

Finished at 22:6:19 on 26 Apr 2020

  DMA results are available in the Python driver through the
	  variable('DMA DISTRIBUTED MULTIPOLES')
  and
	  variable('DMA TOTAL MULTIPOLES')
  commands.

    Psi4 stopped on: Sunday, 26 April 2020 10:06PM
    Psi4 wall time for execution: 0:17:19.59

*** Psi4 exiting successfully. Buy a developer a beer!
