                               Psi4 1.3.2 release

  ==> Input File <==

--------------------------------------------------------------------------
import numpy as np
set {scf_type pk
basis cc-pvdz
d_convergence 10
gdma_switch   0
gdma_limit    0
gdma_origin   [ 0.0,  0.0,  0.0 ]
}
molecule test {
    units Angstrom
    0 1
    --
    0 1
    C               -0.822509983363567    -0.286493587368967     2.105096222354685
    C               -0.218509983363567    -0.914493587368967     0.876096222354684
    O               -0.732509983363567    -0.703493587368967    -0.246903777645316
    O                0.798490016636433    -1.615493587368967     1.058096222354684
    H               -0.098509983363567     0.441506412631033     2.475096222354684
    H               -0.961509983363567    -1.033493587368967     2.888096222354684
    H               -1.773829983363567     0.224196412631033     1.894896222354685
    C                0.032490016636433     2.300506412631032    -1.760903777645315
    N                0.810490016636433     1.011506412631033    -1.740903777645315
    H                0.944490016636433     0.647506412631033    -2.677903777645316
    H                1.725490016636433     1.124506412631033    -1.302903777645315
    H                0.293490016636433     0.295506412631033    -1.220903777645315
    H                0.562490016636433     3.006506412631033    -2.411903777645316
    H                0.015490016636433     2.717506412631033    -0.746903777645316
    H               -1.007589983363567     2.234256412631033    -2.112823777645315

}
e, wfn = energy('scf', return_wfn=True)
gdma(wfn)
dmavals = variable('DMA DISTRIBUTED MULTIPOLES')
charges = np.array(dmavals)
print(charges)
np.save('SSI-080ASP-087LYS-1-dimer.npy', np.array(charges))--------------------------------------------------------------------------

*** tstart() called on ds3
*** at Tue Apr 28 19:56:46 2020

   => Loading Basis Set <=

    Name: CC-PVDZ
    Role: ORBITAL
    Keyword: BASIS
    atoms 1-2, 8     entry C          line   138 file /theoryfs2/ds/metcalf/miniconda2/envs/tf2gpu/share/psi4/basis/cc-pvdz.gbs
    atoms 3-4        entry O          line   198 file /theoryfs2/ds/metcalf/miniconda2/envs/tf2gpu/share/psi4/basis/cc-pvdz.gbs
    atoms 5-7, 10-15 entry H          line    22 file /theoryfs2/ds/metcalf/miniconda2/envs/tf2gpu/share/psi4/basis/cc-pvdz.gbs
    atoms 9          entry N          line   168 file /theoryfs2/ds/metcalf/miniconda2/envs/tf2gpu/share/psi4/basis/cc-pvdz.gbs

         ---------------------------------------------------------
                                   SCF
               by Justin Turney, Rob Parrish, Andy Simmonett
                          and Daniel G. A. Smith
                              RHF Reference
                        1 Threads,    500 MiB Core
         ---------------------------------------------------------

  ==> Geometry <==

    Molecular point group: c1
    Full point group: C1

    Geometry (in Angstrom), charge = 0, multiplicity = 1:

       Center              X                  Y                   Z               Mass
    ------------   -----------------  -----------------  -----------------  -----------------
         C           -0.822509983364    -0.286493587369     2.105096222355    12.000000000000
         C           -0.218509983364    -0.914493587369     0.876096222355    12.000000000000
         O           -0.732509983364    -0.703493587369    -0.246903777645    15.994914619570
         O            0.798490016636    -1.615493587369     1.058096222355    15.994914619570
         H           -0.098509983364     0.441506412631     2.475096222355     1.007825032230
         H           -0.961509983364    -1.033493587369     2.888096222355     1.007825032230
         H           -1.773829983364     0.224196412631     1.894896222355     1.007825032230
         C            0.032490016636     2.300506412631    -1.760903777645    12.000000000000
         N            0.810490016636     1.011506412631    -1.740903777645    14.003074004430
         H            0.944490016636     0.647506412631    -2.677903777645     1.007825032230
         H            1.725490016636     1.124506412631    -1.302903777645     1.007825032230
         H            0.293490016636     0.295506412631    -1.220903777645     1.007825032230
         H            0.562490016636     3.006506412631    -2.411903777645     1.007825032230
         H            0.015490016636     2.717506412631    -0.746903777645     1.007825032230
         H           -1.007589983364     2.234256412631    -2.112823777645     1.007825032230

  Running in c1 symmetry.

  Rotational constants: A =      0.19018  B =      0.04865  C =      0.04385 [cm^-1]
  Rotational constants: A =   5701.59340  B =   1458.37261  C =   1314.53489 [MHz]
  Nuclear repulsion =  241.805872122124356

  Charge       = 0
  Multiplicity = 1
  Electrons    = 50
  Nalpha       = 25
  Nbeta        = 25

  ==> Algorithm <==

  SCF Algorithm Type is PK.
  DIIS enabled.
  MOM disabled.
  Fractional occupation disabled.
  Guess Type is SAD.
  Energy threshold   = 1.00e-06
  Density threshold  = 1.00e-10
  Integral threshold = 0.00e+00

  ==> Primary Basis <==

  Basis Set: CC-PVDZ
    Blend: CC-PVDZ
    Number of shells: 63
    Number of basis function: 129
    Number of Cartesian functions: 135
    Spherical Harmonics?: true
    Max angular momentum: 2

  ==> Pre-Iterations <==

   -------------------------------------------------------
    Irrep   Nso     Nmo     Nalpha   Nbeta   Ndocc  Nsocc
   -------------------------------------------------------
     A        129     129       0       0       0       0
   -------------------------------------------------------
    Total     129     129      25      25      25       0
   -------------------------------------------------------

  ==> Integral Setup <==

  Using integral reordering PK algorithm.
  Sizing the integral batches needed.
  Building batch lookup table.
   Calculation information:
      Number of atoms:                  15
      Number of AO shells:              63
      Number of primitives:            177
      Number of atomic orbitals:       135
      Number of basis functions:       129

      Integral cutoff                 1.00e-12
      Number of threads:                 1

	Batch   1 pq = [       0,    8385] index = [             0,35158305] size =     35158305
  Task number: 4
  Buffer size: 11059200
  Buffer per thread: 2
  We computed 1822704 shell quartets total.
  Whereas there are 2033136 unique shell quartets.

  ==> DiskJK: Disk-Based J/K Matrices <==

    J tasked:                  Yes
    K tasked:                  Yes
    wK tasked:                  No
    Memory [MiB]:              375
    Schwarz Cutoff:          1E-12

    OpenMP threads:              1

  Minimum eigenvalue in the overlap matrix is 5.2990062557E-03.
  Using Symmetric Orthogonalization.

  SCF Guess: Superposition of Atomic Densities via on-the-fly atomic UHF.

  ==> Iterations <==

                        Total Energy        Delta E     RMS |[F,P]|

   @RHF iter SAD:  -321.73627934484591   -3.21736e+02   0.00000e+00
   @RHF iter   1:  -322.78253056687799   -1.04625e+00   5.20836e-03 DIIS
   @RHF iter   2:  -322.95224884196114   -1.69718e-01   2.89418e-03 DIIS
   @RHF iter   3:  -323.00130006992759   -4.90512e-02   4.81173e-04 DIIS
   @RHF iter   4:  -323.00385978410696   -2.55971e-03   1.71220e-04 DIIS
   @RHF iter   5:  -323.00417673195636   -3.16948e-04   3.71185e-05 DIIS
   @RHF iter   6:  -323.00419474402781   -1.80121e-05   1.96324e-05 DIIS
   @RHF iter   7:  -323.00419855024415   -3.80622e-06   4.55956e-06 DIIS
   @RHF iter   8:  -323.00419917291549   -6.22671e-07   2.00305e-06 DIIS
   @RHF iter   9:  -323.00419928528686   -1.12371e-07   5.24827e-07 DIIS
   @RHF iter  10:  -323.00419929223892   -6.95206e-09   1.71293e-07 DIIS
   @RHF iter  11:  -323.00419929270532   -4.66400e-10   4.02614e-08 DIIS
   @RHF iter  12:  -323.00419929273897   -3.36513e-11   1.01564e-08 DIIS
   @RHF iter  13:  -323.00419929274062   -1.64846e-12   3.86243e-09 DIIS
   @RHF iter  14:  -323.00419929274011    5.11591e-13   1.72041e-09 DIIS
   @RHF iter  15:  -323.00419929274193   -1.81899e-12   7.69846e-10 DIIS
   @RHF iter  16:  -323.00419929274165    2.84217e-13   3.20243e-10 DIIS
   @RHF iter  17:  -323.00419929273994    1.70530e-12   1.00555e-10 DIIS
   @RHF iter  18:  -323.00419929274119   -1.25056e-12   4.08400e-11 DIIS
  Energy and wave function converged.

  ==> Post-Iterations <==

    Orbital Energies [Eh]
    ---------------------

    Doubly Occupied:

       1A    -20.434389     2A    -20.409230     3A    -15.729851
       4A    -11.352566     5A    -11.268962     6A    -11.175441
       7A     -1.350070     8A     -1.312628     9A     -1.199247
      10A     -1.017684    11A     -0.929835    12A     -0.813012
      13A     -0.804076    14A     -0.706927    15A     -0.651038
      16A     -0.623898    17A     -0.620749    18A     -0.560803
      19A     -0.549186    20A     -0.546377    21A     -0.485768
      22A     -0.454725    23A     -0.348143    24A     -0.326164
      25A     -0.324979

    Virtual:

      26A      0.098327    27A      0.152358    28A      0.161282
      29A      0.196033    30A      0.211898    31A      0.245646
      32A      0.267294    33A      0.273488    34A      0.300887
      35A      0.340406    36A      0.374173    37A      0.450200
      38A      0.504992    39A      0.521119    40A      0.546266
      41A      0.580284    42A      0.610317    43A      0.671641
      44A      0.676798    45A      0.691888    46A      0.744297
      47A      0.789807    48A      0.794284    49A      0.802201
      50A      0.820731    51A      0.834802    52A      0.851543
      53A      0.882860    54A      0.901886    55A      0.910756
      56A      0.935213    57A      0.952921    58A      0.960796
      59A      0.980441    60A      1.009978    61A      1.065715
      62A      1.070424    63A      1.106375    64A      1.188135
      65A      1.210694    66A      1.227556    67A      1.337639
      68A      1.374579    69A      1.398231    70A      1.423606
      71A      1.449746    72A      1.460920    73A      1.466278
      74A      1.528240    75A      1.583396    76A      1.599761
      77A      1.612334    78A      1.672479    79A      1.717821
      80A      1.726801    81A      1.753404    82A      1.816151
      83A      1.832717    84A      1.850747    85A      1.874923
      86A      1.892009    87A      1.911375    88A      1.958390
      89A      1.973538    90A      1.995714    91A      2.056762
      92A      2.072158    93A      2.087700    94A      2.095243
      95A      2.125932    96A      2.133963    97A      2.173891
      98A      2.207579    99A      2.280638   100A      2.303707
     101A      2.325492   102A      2.394673   103A      2.408601
     104A      2.464944   105A      2.524778   106A      2.537635
     107A      2.597021   108A      2.617114   109A      2.624731
     110A      2.656921   111A      2.677596   112A      2.796474
     113A      2.841346   114A      2.858879   115A      2.868075
     116A      2.895817   117A      2.911939   118A      3.093390
     119A      3.111441   120A      3.141813   121A      3.193997
     122A      3.231951   123A      3.445989   124A      3.468702
     125A      3.650818   126A      3.688650   127A      3.921380
     128A      3.939238   129A      4.042489

    Final Occupation by Irrep:
              A
    DOCC [    25 ]

  @RHF Final Energy:  -323.00419929274119

   => Energetics <=

    Nuclear Repulsion Energy =            241.8058721221243559
    One-Electron Energy =                -921.6286492310746326
    Two-Electron Energy =                 356.8185778162090855
    Total Energy =                       -323.0041992927411911

Computation Completed

Properties will be evaluated at   0.000000,   0.000000,   0.000000 [a0]

Properties computed using the SCF density matrix

  Nuclear Dipole Moment: [e a0]
     X:    -0.2833      Y:     9.0400      Z:    -3.0052

  Electronic Dipole Moment: [e a0]
     X:     1.1658      Y:    -5.2212      Z:     0.0761

  Dipole Moment: [e a0]
     X:     0.8826      Y:     3.8188      Z:    -2.9292     Total:     4.8930

  Dipole Moment: [D]
     X:     2.2433      Y:     9.7063      Z:    -7.4452     Total:    12.4369

*** tstop() called on ds3 at Tue Apr 28 19:57:05 2020
Module time:
	user time   =      13.56 seconds =       0.23 minutes
	system time =       5.50 seconds =       0.09 minutes
	total time  =         19 seconds =       0.32 minutes
Total time:
	user time   =      13.56 seconds =       0.23 minutes
	system time =       5.50 seconds =       0.09 minutes
	total time  =         19 seconds =       0.32 minutes
                                     G D M A

                                 by Anthony Stone

                           version 2.2.06, 22 June 2011

               Distributed Multipoles from Gaussian wavefunctions

Starting at 19:57:5 on 28 Apr 2020

Using SCF density matrix from file ./SSI/SSI-080ASP-087LYS-1-dimer.test.17692.fchk

                         Distributed Multipole Analysis

Standard DMA

Positions and radii in angstrom
Multipole moments in atomic units, ea_0^k for rank k

C          x = -0.822510  y = -0.286494  z =  2.105096 angstrom
           Maximum rank =  0   Radius =  0.650 angstrom
                   Q00  =  -0.285032

C          x = -0.218510  y = -0.914494  z =  0.876096 angstrom
           Maximum rank =  0   Radius =  0.650 angstrom
                   Q00  =   0.921085

O          x = -0.732510  y = -0.703494  z = -0.246904 angstrom
           Maximum rank =  0   Radius =  0.650 angstrom
                   Q00  =  -0.984484

O          x =  0.798490  y = -1.615494  z =  1.058096 angstrom
           Maximum rank =  0   Radius =  0.650 angstrom
                   Q00  =  -0.877356

H          x = -0.098510  y =  0.441506  z =  2.475096 angstrom
           Maximum rank =  0   Radius =  0.325 angstrom
                   Q00  =   0.082438

H          x = -0.961510  y = -1.033494  z =  2.888096 angstrom
           Maximum rank =  0   Radius =  0.325 angstrom
                   Q00  =   0.110472

H          x = -1.773830  y =  0.224196  z =  1.894896 angstrom
           Maximum rank =  0   Radius =  0.325 angstrom
                   Q00  =   0.060656

C          x =  0.032490  y =  2.300506  z = -1.760904 angstrom
           Maximum rank =  0   Radius =  0.650 angstrom
                   Q00  =  -0.139266

N          x =  0.810490  y =  1.011506  z = -1.740904 angstrom
           Maximum rank =  0   Radius =  0.650 angstrom
                   Q00  =  -0.140373

H          x =  0.944490  y =  0.647506  z = -2.677904 angstrom
           Maximum rank =  0   Radius =  0.325 angstrom
                   Q00  =   0.225042

H          x =  1.725490  y =  1.124506  z = -1.302904 angstrom
           Maximum rank =  0   Radius =  0.325 angstrom
                   Q00  =   0.241105

H          x =  0.293490  y =  0.295506  z = -1.220904 angstrom
           Maximum rank =  0   Radius =  0.325 angstrom
                   Q00  =   0.355162

H          x =  0.562490  y =  3.006506  z = -2.411904 angstrom
           Maximum rank =  0   Radius =  0.325 angstrom
                   Q00  =   0.116131

H          x =  0.015490  y =  2.717506  z = -0.746904 angstrom
           Maximum rank =  0   Radius =  0.325 angstrom
                   Q00  =   0.151293

H          x = -1.007590  y =  2.234256  z = -2.112824 angstrom
           Maximum rank =  0   Radius =  0.325 angstrom
                   Q00  =   0.163126

Total multipoles referred to origin at
           x =   0.000000,  y =    0.000000,  z =    0.000000 angstrom
                   Q00  =  -0.000000

Finished at 19:57:5 on 28 Apr 2020

  DMA results are available in the Python driver through the
	  variable('DMA DISTRIBUTED MULTIPOLES')
  and
	  variable('DMA TOTAL MULTIPOLES')
  commands.

    Psi4 stopped on: Tuesday, 28 April 2020 07:57PM
    Psi4 wall time for execution: 0:00:19.20

*** Psi4 exiting successfully. Buy a developer a beer!
