                               Psi4 1.3.2 release

  ==> Input File <==

--------------------------------------------------------------------------
import numpy as np
set {scf_type pk
basis cc-pvdz
d_convergence 10
gdma_switch   0
gdma_limit    0
gdma_origin   [ 0.0,  0.0,  0.0 ]
}
molecule test {
    units Angstrom
    0 1
    --
    0 1
    C               -1.243081113980130    -0.139626934942074     1.311310337195442
    C               -2.757081113980131    -0.045626934942074     1.491310337195442
    C               -0.462081113980130     0.020373065057926     2.616310337195442
    H               -1.014081113980130    -1.109626934942074     0.864310337195442
    H               -0.915081113980130     0.639373065057926     0.623310337195442
    H               -2.976081113980130     0.923373065057926     1.950310337195442
    H               -0.400081113980130     1.080373065057926     2.867310337195442
    H               -0.963081113980130    -0.498626934942074     3.432310337195442
    H               -3.107271113980131    -0.857462934942074     2.145749337195442
    H               -3.268181113980131    -0.069482934942074     0.517549637195442
    H                0.547168886019870    -0.404651934942074     2.512575337195442
    C                1.114918886019870     0.249373065057926    -1.422689662804558
    C                2.003918886019870     1.133373065057926    -2.289689662804558
    C                1.338918886019870    -1.214626934942074    -1.707689662804558
    H                1.300918886019870     0.477373065057926    -0.379689662804558
    H                0.067918886019870     0.460373065057926    -1.644689662804558
    H                2.103918886019870     0.681373065057926    -3.271689662804558
    H                2.993918886019869     1.212373065057926    -1.845689662804558
    H                0.617918886019870    -1.798626934942074    -1.129689662804558
    H                1.151918886019870    -1.385626934942074    -2.769689662804558
    H                1.555648886019870     2.127357065057926    -2.434780662804558
    H                2.357948886019869    -1.516421934942074    -1.423957662804558

}
e, wfn = energy('scf', return_wfn=True)
gdma(wfn)
dmavals = variable('DMA DISTRIBUTED MULTIPOLES')
charges = np.array(dmavals)
print(charges)
np.save('SSI-002LYS-080ARG-1-dimer.npy', np.array(charges))--------------------------------------------------------------------------

*** tstart() called on ds3
*** at Tue Apr 28 10:34:47 2020

   => Loading Basis Set <=

    Name: CC-PVDZ
    Role: ORBITAL
    Keyword: BASIS
    atoms 1-3, 12-14  entry C          line   138 file /theoryfs2/ds/metcalf/miniconda2/envs/tf2gpu/share/psi4/basis/cc-pvdz.gbs
    atoms 4-11, 15-22 entry H          line    22 file /theoryfs2/ds/metcalf/miniconda2/envs/tf2gpu/share/psi4/basis/cc-pvdz.gbs

         ---------------------------------------------------------
                                   SCF
               by Justin Turney, Rob Parrish, Andy Simmonett
                          and Daniel G. A. Smith
                              RHF Reference
                        1 Threads,    500 MiB Core
         ---------------------------------------------------------

  ==> Geometry <==

    Molecular point group: c1
    Full point group: C1

    Geometry (in Angstrom), charge = 0, multiplicity = 1:

       Center              X                  Y                   Z               Mass
    ------------   -----------------  -----------------  -----------------  -----------------
         C           -1.243081113980    -0.139626934942     1.311310337195    12.000000000000
         C           -2.757081113980    -0.045626934942     1.491310337195    12.000000000000
         C           -0.462081113980     0.020373065058     2.616310337195    12.000000000000
         H           -1.014081113980    -1.109626934942     0.864310337195     1.007825032230
         H           -0.915081113980     0.639373065058     0.623310337195     1.007825032230
         H           -2.976081113980     0.923373065058     1.950310337195     1.007825032230
         H           -0.400081113980     1.080373065058     2.867310337195     1.007825032230
         H           -0.963081113980    -0.498626934942     3.432310337195     1.007825032230
         H           -3.107271113980    -0.857462934942     2.145749337195     1.007825032230
         H           -3.268181113980    -0.069482934942     0.517549637195     1.007825032230
         H            0.547168886020    -0.404651934942     2.512575337195     1.007825032230
         C            1.114918886020     0.249373065058    -1.422689662805    12.000000000000
         C            2.003918886020     1.133373065058    -2.289689662805    12.000000000000
         C            1.338918886020    -1.214626934942    -1.707689662805    12.000000000000
         H            1.300918886020     0.477373065058    -0.379689662805     1.007825032230
         H            0.067918886020     0.460373065058    -1.644689662805     1.007825032230
         H            2.103918886020     0.681373065058    -3.271689662805     1.007825032230
         H            2.993918886020     1.212373065058    -1.845689662805     1.007825032230
         H            0.617918886020    -1.798626934942    -1.129689662805     1.007825032230
         H            1.151918886020    -1.385626934942    -2.769689662805     1.007825032230
         H            1.555648886020     2.127357065058    -2.434780662805     1.007825032230
         H            2.357948886020    -1.516421934942    -1.423957662805     1.007825032230

  Running in c1 symmetry.

  Rotational constants: A =      0.15303  B =      0.02953  C =      0.02909 [cm^-1]
  Rotational constants: A =   4587.80919  B =    885.25378  C =    872.15810 [MHz]
  Nuclear repulsion =  240.120210493886020

  Charge       = 0
  Multiplicity = 1
  Electrons    = 52
  Nalpha       = 26
  Nbeta        = 26

  ==> Algorithm <==

  SCF Algorithm Type is PK.
  DIIS enabled.
  MOM disabled.
  Fractional occupation disabled.
  Guess Type is SAD.
  Energy threshold   = 1.00e-06
  Density threshold  = 1.00e-10
  Integral threshold = 0.00e+00

  ==> Primary Basis <==

  Basis Set: CC-PVDZ
    Blend: CC-PVDZ
    Number of shells: 84
    Number of basis function: 164
    Number of Cartesian functions: 170
    Spherical Harmonics?: true
    Max angular momentum: 2

  ==> Pre-Iterations <==

   -------------------------------------------------------
    Irrep   Nso     Nmo     Nalpha   Nbeta   Ndocc  Nsocc
   -------------------------------------------------------
     A        164     164       0       0       0       0
   -------------------------------------------------------
    Total     164     164      26      26      26       0
   -------------------------------------------------------

  ==> Integral Setup <==

  Using integral reordering PK algorithm.
  Sizing the integral batches needed.
  Building batch lookup table.
   Calculation information:
      Number of atoms:                  22
      Number of AO shells:              84
      Number of primitives:            212
      Number of atomic orbitals:       170
      Number of basis functions:       164

      Integral cutoff                 1.00e-12
      Number of threads:                 1

	Batch   1 pq = [       0,    9405] index = [             0,44231715] size =     44231715
	Batch   2 pq = [    9405,   13530] index = [      44231715,91537215] size =     47305500
  Task number: 9
  Buffer size: 11059200
  Buffer per thread: 2
  We computed 5456027 shell quartets total.
  Whereas there are 6374235 unique shell quartets.

  ==> DiskJK: Disk-Based J/K Matrices <==

    J tasked:                  Yes
    K tasked:                  Yes
    wK tasked:                  No
    Memory [MiB]:              375
    Schwarz Cutoff:          1E-12

    OpenMP threads:              1

  Minimum eigenvalue in the overlap matrix is 4.9599863636E-03.
  Using Symmetric Orthogonalization.

  SCF Guess: Superposition of Atomic Densities via on-the-fly atomic UHF.

  ==> Iterations <==

                        Total Energy        Delta E     RMS |[F,P]|

   @RHF iter SAD:  -235.43603259166019   -2.35436e+02   0.00000e+00
   @RHF iter   1:  -236.31002111552192   -8.73989e-01   3.52278e-03 DIIS
   @RHF iter   2:  -236.49885907789206   -1.88838e-01   1.53771e-03 DIIS
   @RHF iter   3:  -236.53304578276024   -3.41867e-02   3.07835e-04 DIIS
   @RHF iter   4:  -236.53569785770574   -2.65207e-03   4.98035e-05 DIIS
   @RHF iter   5:  -236.53575117882576   -5.33211e-05   1.38791e-05 DIIS
   @RHF iter   6:  -236.53575553865630   -4.35983e-06   2.36847e-06 DIIS
   @RHF iter   7:  -236.53575567858982   -1.39934e-07   4.68032e-07 DIIS
   @RHF iter   8:  -236.53575568586049   -7.27067e-09   9.44044e-08 DIIS
   @RHF iter   9:  -236.53575568620494   -3.44443e-10   2.41155e-08 DIIS
   @RHF iter  10:  -236.53575568622176   -1.68257e-11   7.52980e-09 DIIS
   @RHF iter  11:  -236.53575568622585   -4.09273e-12   1.34900e-09 DIIS
   @RHF iter  12:  -236.53575568622483    1.02318e-12   2.23549e-10 DIIS
   @RHF iter  13:  -236.53575568622500   -1.70530e-13   6.34022e-11 DIIS
  Energy and wave function converged.

  ==> Post-Iterations <==

    Orbital Energies [Eh]
    ---------------------

    Doubly Occupied:

       1A    -11.218061     2A    -11.217457     3A    -11.216114
       4A    -11.215529     5A    -11.214786     6A    -11.213306
       7A     -1.059401     8A     -1.052706     9A     -0.924002
      10A     -0.923769    11A     -0.799532    12A     -0.791284
      13A     -0.631423    14A     -0.627130    15A     -0.599688
      16A     -0.591729    17A     -0.546803    18A     -0.546148
      19A     -0.534584    20A     -0.534398    21A     -0.479641
      22A     -0.471147    23A     -0.469846    24A     -0.467568
      25A     -0.463165    26A     -0.459988

    Virtual:

      27A      0.168408    28A      0.193461    29A      0.207187
      30A      0.213440    31A      0.226750    32A      0.244993
      33A      0.246597    34A      0.256999    35A      0.265448
      36A      0.276545    37A      0.286213    38A      0.296587
      39A      0.298098    40A      0.317216    41A      0.333763
      42A      0.352498    43A      0.370218    44A      0.380670
      45A      0.428080    46A      0.435245    47A      0.578441
      48A      0.582524    49A      0.586956    50A      0.607597
      51A      0.610002    52A      0.619589    53A      0.628553
      54A      0.641250    55A      0.652308    56A      0.756528
      57A      0.776595    58A      0.785400    59A      0.806664
      60A      0.814833    61A      0.846635    62A      0.864501
      63A      0.877142    64A      0.884907    65A      0.890780
      66A      0.894584    67A      0.896954    68A      0.900590
      69A      0.901734    70A      0.907753    71A      0.909517
      72A      0.919118    73A      0.924756    74A      0.940122
      75A      0.954649    76A      0.957910    77A      0.967466
      78A      0.991278    79A      0.997275    80A      1.008146
      81A      1.113354    82A      1.119580    83A      1.134728
      84A      1.160512    85A      1.198262    86A      1.227625
      87A      1.384294    88A      1.407009    89A      1.462332
      90A      1.476742    91A      1.478050    92A      1.490295
      93A      1.537638    94A      1.548297    95A      1.626812
      96A      1.649860    97A      1.670194    98A      1.679400
      99A      1.683380   100A      1.698074   101A      1.712969
     102A      1.717791   103A      1.847836   104A      1.857705
     105A      1.862911   106A      1.871491   107A      1.874688
     108A      1.895563   109A      1.910444   110A      1.921566
     111A      1.926048   112A      1.934664   113A      1.944290
     114A      1.956026   115A      1.961908   116A      1.972679
     117A      1.978572   118A      1.990304   119A      1.996535
     120A      1.999486   121A      2.005471   122A      2.018132
     123A      2.034250   124A      2.043961   125A      2.068232
     126A      2.095114   127A      2.138576   128A      2.147301
     129A      2.180628   130A      2.185328   131A      2.265192
     132A      2.282687   133A      2.300811   134A      2.309552
     135A      2.315887   136A      2.336587   137A      2.357105
     138A      2.375063   139A      2.473394   140A      2.496430
     141A      2.532773   142A      2.546553   143A      2.560910
     144A      2.571525   145A      2.606691   146A      2.630959
     147A      2.647364   148A      2.660611   149A      2.756020
     150A      2.757645   151A      2.759697   152A      2.783758
     153A      2.786815   154A      2.794604   155A      2.816696
     156A      2.833711   157A      2.902798   158A      2.911822
     159A      2.948600   160A      2.956970   161A      2.966192
     162A      2.972246   163A      3.064720   164A      3.090754

    Final Occupation by Irrep:
              A
    DOCC [    26 ]

  @RHF Final Energy:  -236.53575568622500

   => Energetics <=

    Nuclear Repulsion Energy =            240.1202104938860202
    One-Electron Energy =                -792.7735200951648267
    Two-Electron Energy =                 316.1175539150538043
    Total Energy =                       -236.5357556862250021

Computation Completed

Properties will be evaluated at   0.000000,   0.000000,   0.000000 [a0]

Properties computed using the SCF density matrix

  Nuclear Dipole Moment: [e a0]
     X:     0.0501      Y:    -0.0361      Z:     0.0127

  Electronic Dipole Moment: [e a0]
     X:    -0.0606      Y:     0.0487      Z:    -0.0251

  Dipole Moment: [e a0]
     X:    -0.0105      Y:     0.0125      Z:    -0.0124     Total:     0.0205

  Dipole Moment: [D]
     X:    -0.0268      Y:     0.0318      Z:    -0.0316     Total:     0.0522

*** tstop() called on ds3 at Tue Apr 28 10:35:27 2020
Module time:
	user time   =      28.98 seconds =       0.48 minutes
	system time =      12.21 seconds =       0.20 minutes
	total time  =         40 seconds =       0.67 minutes
Total time:
	user time   =      28.98 seconds =       0.48 minutes
	system time =      12.21 seconds =       0.20 minutes
	total time  =         40 seconds =       0.67 minutes
                                     G D M A

                                 by Anthony Stone

                           version 2.2.06, 22 June 2011

               Distributed Multipoles from Gaussian wavefunctions

Starting at 10:35:27 on 28 Apr 2020

Using SCF density matrix from file ./SSI/SSI-002LYS-080ARG-1-dimer.test.29966.fchk

                         Distributed Multipole Analysis

Standard DMA

Positions and radii in angstrom
Multipole moments in atomic units, ea_0^k for rank k

C          x = -1.243081  y = -0.139627  z =  1.311310 angstrom
           Maximum rank =  0   Radius =  0.650 angstrom
                   Q00  =  -0.097588

C          x = -2.757081  y = -0.045627  z =  1.491310 angstrom
           Maximum rank =  0   Radius =  0.650 angstrom
                   Q00  =  -0.230524

C          x = -0.462081  y =  0.020373  z =  2.616310 angstrom
           Maximum rank =  0   Radius =  0.650 angstrom
                   Q00  =  -0.234734

H          x = -1.014081  y = -1.109627  z =  0.864310 angstrom
           Maximum rank =  0   Radius =  0.325 angstrom
                   Q00  =   0.042390

H          x = -0.915081  y =  0.639373  z =  0.623310 angstrom
           Maximum rank =  0   Radius =  0.325 angstrom
                   Q00  =   0.049284

H          x = -2.976081  y =  0.923373  z =  1.950310 angstrom
           Maximum rank =  0   Radius =  0.325 angstrom
                   Q00  =   0.071703

H          x = -0.400081  y =  1.080373  z =  2.867310 angstrom
           Maximum rank =  0   Radius =  0.325 angstrom
                   Q00  =   0.078570

H          x = -0.963081  y = -0.498627  z =  3.432310 angstrom
           Maximum rank =  0   Radius =  0.325 angstrom
                   Q00  =   0.075492

H          x = -3.107271  y = -0.857463  z =  2.145749 angstrom
           Maximum rank =  0   Radius =  0.325 angstrom
                   Q00  =   0.078741

H          x = -3.268181  y = -0.069483  z =  0.517550 angstrom
           Maximum rank =  0   Radius =  0.325 angstrom
                   Q00  =   0.084019

H          x =  0.547169  y = -0.404652  z =  2.512575 angstrom
           Maximum rank =  0   Radius =  0.325 angstrom
                   Q00  =   0.082498

C          x =  1.114919  y =  0.249373  z = -1.422690 angstrom
           Maximum rank =  0   Radius =  0.650 angstrom
                   Q00  =  -0.077228

C          x =  2.003919  y =  1.133373  z = -2.289690 angstrom
           Maximum rank =  0   Radius =  0.650 angstrom
                   Q00  =  -0.238577

C          x =  1.338919  y = -1.214627  z = -1.707690 angstrom
           Maximum rank =  0   Radius =  0.650 angstrom
                   Q00  =  -0.234775

H          x =  1.300919  y =  0.477373  z = -0.379690 angstrom
           Maximum rank =  0   Radius =  0.325 angstrom
                   Q00  =   0.047925

H          x =  0.067919  y =  0.460373  z = -1.644690 angstrom
           Maximum rank =  0   Radius =  0.325 angstrom
                   Q00  =   0.040200

H          x =  2.103919  y =  0.681373  z = -3.271690 angstrom
           Maximum rank =  0   Radius =  0.325 angstrom
                   Q00  =   0.071657

H          x =  2.993919  y =  1.212373  z = -1.845690 angstrom
           Maximum rank =  0   Radius =  0.325 angstrom
                   Q00  =   0.079572

H          x =  0.617919  y = -1.798627  z = -1.129690 angstrom
           Maximum rank =  0   Radius =  0.325 angstrom
                   Q00  =   0.081128

H          x =  1.151919  y = -1.385627  z = -2.769690 angstrom
           Maximum rank =  0   Radius =  0.325 angstrom
                   Q00  =   0.075478

H          x =  1.555649  y =  2.127357  z = -2.434781 angstrom
           Maximum rank =  0   Radius =  0.325 angstrom
                   Q00  =   0.080823

H          x =  2.357949  y = -1.516422  z = -1.423958 angstrom
           Maximum rank =  0   Radius =  0.325 angstrom
                   Q00  =   0.073948

Total multipoles referred to origin at
           x =   0.000000,  y =    0.000000,  z =    0.000000 angstrom
                   Q00  =  -0.000000

Finished at 10:35:27 on 28 Apr 2020

  DMA results are available in the Python driver through the
	  variable('DMA DISTRIBUTED MULTIPOLES')
  and
	  variable('DMA TOTAL MULTIPOLES')
  commands.

    Psi4 stopped on: Tuesday, 28 April 2020 10:35AM
    Psi4 wall time for execution: 0:00:40.19

*** Psi4 exiting successfully. Buy a developer a beer!
