                               Psi4 1.3.2 release

  ==> Input File <==

--------------------------------------------------------------------------
import numpy as np
set {scf_type pk
basis cc-pvdz
d_convergence 10
gdma_switch   0
gdma_limit    0
gdma_origin   [ 0.0,  0.0,  0.0 ]
}
molecule test {
    units Angstrom
    0 1
    --
    0 1
    C               -0.799065026562522    -3.741632168089971     1.391472762021610
    C                0.650934973437478    -1.241632168089971    -1.023527237978390
    C               -0.283065026562522    -2.259632168089971    -0.712527237978390
    C               -0.044065026562522    -2.680632168089971     0.641472762021610
    C                0.985934973437478    -1.918632168089971     1.089472762021610
    C                0.692934973437478    -0.629632168089971    -2.267527237978390
    C               -0.215065026562522    -1.063632168089971    -3.222527237978390
    C               -1.178065026562522    -2.677632168089971    -1.703527237978390
    C               -1.136065026562522    -2.077632168089971    -2.944527237978390
    N                1.418934973437478    -1.061632168089971     0.097472762021610
    H                2.181934973437478    -0.399632168089971     0.204472762021610
    H                1.406934973437478     0.150367831910029    -2.477527237978390
    H                1.422934973437478    -1.982632168089971     2.076472762021610
    H               -0.208065026562522    -0.627632168089971    -4.205527237978390
    H               -1.901065026562522    -3.451632168089971    -1.496527237978390
    H               -0.224065026562522    -4.661632168089970     1.385472762021610
    H               -1.702065026562522    -3.928632168089972     0.816472762021610
    H               -1.817065026562522    -2.405632168089971    -3.711527237978390
    H               -1.070805026562522    -3.446042168089971     2.415572762021610
    C                2.667934973437478     2.289367831910028     2.018472762021610
    C               -0.845065026562522     1.478367831910029     0.991472762021610
    C                0.383934973437478     2.143367831910028     0.767472762021610
    C                1.280934973437478     1.782367831910029     1.821472762021610
    C                0.572934973437478     0.980367831910029     2.647472762021610
    C               -1.931065026562522     1.628367831910029     0.134472762021610
    C               -1.768065026562522     2.425367831910028    -0.976527237978390
    C                0.512934973437478     2.944367831910029    -0.362527237978390
    C               -0.562065026562522     3.065367831910029    -1.227527237978390
    N               -0.703065026562522     0.788367831910029     2.171472762021610
    H               -1.465065026562522     0.455367831910029     2.739472762021610
    H               -2.877065026562522     1.152367831910029     0.334472762021610
    H                0.959934973437478     0.502367831910029     3.527472762021610
    H               -2.592065026562522     2.548367831910029    -1.664527237978390
    H                1.435934973437478     3.467367831910029    -0.554527237978390
    H                2.566934973437478     3.275367831910029     2.473472762021610
    H                3.123934973437478     2.442367831910029     1.040472762021610
    H               -0.469065026562522     3.689367831910029    -2.106527237978390
    H                3.344944973437478     1.699147831910029     2.653532762021610

}
e, wfn = energy('scf', return_wfn=True)
gdma(wfn)
dmavals = variable('DMA DISTRIBUTED MULTIPOLES')
charges = np.array(dmavals)
print(charges)
np.save('SSI-038TRP-063TRP-1-dimer.npy', np.array(charges))--------------------------------------------------------------------------

*** tstart() called on ds3
*** at Tue Apr 28 13:12:00 2020

   => Loading Basis Set <=

    Name: CC-PVDZ
    Role: ORBITAL
    Keyword: BASIS
    atoms 1-9, 20-28   entry C          line   138 file /theoryfs2/ds/metcalf/miniconda2/envs/tf2gpu/share/psi4/basis/cc-pvdz.gbs
    atoms 10, 29       entry N          line   168 file /theoryfs2/ds/metcalf/miniconda2/envs/tf2gpu/share/psi4/basis/cc-pvdz.gbs
    atoms 11-19, 30-38 entry H          line    22 file /theoryfs2/ds/metcalf/miniconda2/envs/tf2gpu/share/psi4/basis/cc-pvdz.gbs

         ---------------------------------------------------------
                                   SCF
               by Justin Turney, Rob Parrish, Andy Simmonett
                          and Daniel G. A. Smith
                              RHF Reference
                        1 Threads,    500 MiB Core
         ---------------------------------------------------------

  ==> Geometry <==

    Molecular point group: c1
    Full point group: C1

    Geometry (in Angstrom), charge = 0, multiplicity = 1:

       Center              X                  Y                   Z               Mass
    ------------   -----------------  -----------------  -----------------  -----------------
         C           -0.799065026563    -3.741632168090     1.391472762022    12.000000000000
         C            0.650934973437    -1.241632168090    -1.023527237978    12.000000000000
         C           -0.283065026563    -2.259632168090    -0.712527237978    12.000000000000
         C           -0.044065026563    -2.680632168090     0.641472762022    12.000000000000
         C            0.985934973437    -1.918632168090     1.089472762022    12.000000000000
         C            0.692934973437    -0.629632168090    -2.267527237978    12.000000000000
         C           -0.215065026563    -1.063632168090    -3.222527237978    12.000000000000
         C           -1.178065026563    -2.677632168090    -1.703527237978    12.000000000000
         C           -1.136065026563    -2.077632168090    -2.944527237978    12.000000000000
         N            1.418934973437    -1.061632168090     0.097472762022    14.003074004430
         H            2.181934973437    -0.399632168090     0.204472762022     1.007825032230
         H            1.406934973437     0.150367831910    -2.477527237978     1.007825032230
         H            1.422934973437    -1.982632168090     2.076472762022     1.007825032230
         H           -0.208065026563    -0.627632168090    -4.205527237978     1.007825032230
         H           -1.901065026563    -3.451632168090    -1.496527237978     1.007825032230
         H           -0.224065026563    -4.661632168090     1.385472762022     1.007825032230
         H           -1.702065026563    -3.928632168090     0.816472762022     1.007825032230
         H           -1.817065026563    -2.405632168090    -3.711527237978     1.007825032230
         H           -1.070805026563    -3.446042168090     2.415572762022     1.007825032230
         C            2.667934973437     2.289367831910     2.018472762022    12.000000000000
         C           -0.845065026563     1.478367831910     0.991472762022    12.000000000000
         C            0.383934973437     2.143367831910     0.767472762022    12.000000000000
         C            1.280934973437     1.782367831910     1.821472762022    12.000000000000
         C            0.572934973437     0.980367831910     2.647472762022    12.000000000000
         C           -1.931065026563     1.628367831910     0.134472762022    12.000000000000
         C           -1.768065026563     2.425367831910    -0.976527237978    12.000000000000
         C            0.512934973437     2.944367831910    -0.362527237978    12.000000000000
         C           -0.562065026563     3.065367831910    -1.227527237978    12.000000000000
         N           -0.703065026563     0.788367831910     2.171472762022    14.003074004430
         H           -1.465065026563     0.455367831910     2.739472762022     1.007825032230
         H           -2.877065026563     1.152367831910     0.334472762022     1.007825032230
         H            0.959934973437     0.502367831910     3.527472762022     1.007825032230
         H           -2.592065026563     2.548367831910    -1.664527237978     1.007825032230
         H            1.435934973437     3.467367831910    -0.554527237978     1.007825032230
         H            2.566934973437     3.275367831910     2.473472762022     1.007825032230
         H            3.123934973437     2.442367831910     1.040472762022     1.007825032230
         H           -0.469065026563     3.689367831910    -2.106527237978     1.007825032230
         H            3.344944973437     1.699147831910     2.653532762022     1.007825032230

  Running in c1 symmetry.

  Rotational constants: A =      0.01634  B =      0.01043  C =      0.00826 [cm^-1]
  Rotational constants: A =    489.89981  B =    312.73196  C =    247.67976 [MHz]
  Nuclear repulsion = 1498.892782916485658

  Charge       = 0
  Multiplicity = 1
  Electrons    = 140
  Nalpha       = 70
  Nbeta        = 70

  ==> Algorithm <==

  SCF Algorithm Type is PK.
  DIIS enabled.
  MOM disabled.
  Fractional occupation disabled.
  Guess Type is SAD.
  Energy threshold   = 1.00e-06
  Density threshold  = 1.00e-10
  Integral threshold = 0.00e+00

  ==> Primary Basis <==

  Basis Set: CC-PVDZ
    Blend: CC-PVDZ
    Number of shells: 174
    Number of basis function: 370
    Number of Cartesian functions: 390
    Spherical Harmonics?: true
    Max angular momentum: 2

  ==> Pre-Iterations <==

   -------------------------------------------------------
    Irrep   Nso     Nmo     Nalpha   Nbeta   Ndocc  Nsocc
   -------------------------------------------------------
     A        370     370       0       0       0       0
   -------------------------------------------------------
    Total     370     370      70      70      70       0
   -------------------------------------------------------

  ==> Integral Setup <==

  Using Yoshimine PK algorithm.
  Sizing the integral batches needed.
  Building batch lookup table.
   Calculation information:
      Number of atoms:                  38
      Number of AO shells:             174
      Number of primitives:            530
      Number of atomic orbitals:       390
      Number of basis functions:       370

      Integral cutoff                 1.00e-12
      Number of threads:                 1

	Batch   1 pq = [       0,    9405] index = [             0,44231715] size =     44231715
	Batch   2 pq = [    9405,   13301] index = [      44231715,88464951] size =     44233236
	Batch   3 pq = [   13301,   16290] index = [      88464951,132690195] size =     44225244
	Batch   4 pq = [   16290,   18810] index = [     132690195,176917455] size =     44227260
	Batch   5 pq = [   18810,   21030] index = [     176917455,221140965] size =     44223510
	Batch   6 pq = [   21030,   23037] index = [     221140965,265363203] size =     44222238
	Batch   7 pq = [   23037,   24883] index = [     265363203,309594286] size =     44231083
	Batch   8 pq = [   24883,   26601] index = [     309594286,353819901] size =     44225615
	Batch   9 pq = [   26601,   28214] index = [     353819901,398029005] size =     44209104
	Batch  10 pq = [   28214,   29740] index = [     398029005,442248670] size =     44219665
	Batch  11 pq = [   29740,   31191] index = [     442248670,486454836] size =     44206166
	Batch  12 pq = [   31191,   32578] index = [     486454836,530679331] size =     44224495
	Batch  13 pq = [   32578,   33908] index = [     530679331,574893186] size =     44213855
	Batch  14 pq = [   33908,   35188] index = [     574893186,619115266] size =     44222080
	Batch  15 pq = [   35188,   36423] index = [     619115266,663335676] size =     44220410
	Batch  16 pq = [   36423,   37617] index = [     663335676,707538153] size =     44202477
	Batch  17 pq = [   37617,   38775] index = [     707538153,751769700] size =     44231547
	Batch  18 pq = [   38775,   39899] index = [     751769700,795985050] size =     44215350
	Batch  19 pq = [   39899,   40992] index = [     795985050,840192528] size =     44207478
	Batch  20 pq = [   40992,   42057] index = [     840192528,884416653] size =     44224125
	Batch  21 pq = [   42057,   43095] index = [     884416653,928611060] size =     44194407
	Batch  22 pq = [   43095,   44109] index = [     928611060,972823995] size =     44212935
	Batch  23 pq = [   44109,   45100] index = [     972823995,1017027550] size =     44203555
	Batch  24 pq = [   45100,   46070] index = [    1017027550,1061245485] size =     44217935
	Batch  25 pq = [   46070,   47020] index = [    1061245485,1105463710] size =     44218225
	Batch  26 pq = [   47020,   47951] index = [    1105463710,1149673176] size =     44209466
	Batch  27 pq = [   47951,   48864] index = [    1149673176,1193869680] size =     44196504
	Batch  28 pq = [   48864,   49761] index = [    1193869680,1238103441] size =     44233761
	Batch  29 pq = [   49761,   50642] index = [    1238103441,1282331403] size =     44227962
	Batch  30 pq = [   50642,   51508] index = [    1282331403,1326562786] size =     44231383
	Batch  31 pq = [   51508,   52359] index = [    1326562786,1370758620] size =     44195834
	Batch  32 pq = [   52359,   53197] index = [    1370758620,1414987003] size =     44228383
	Batch  33 pq = [   53197,   54022] index = [    1414987003,1459215253] size =     44228250
	Batch  34 pq = [   54022,   54834] index = [    1459215253,1503411195] size =     44195942
	Batch  35 pq = [   54834,   55634] index = [    1503411195,1547598795] size =     44187600
	Batch  36 pq = [   55634,   56423] index = [    1547598795,1591805676] size =     44206881
	Batch  37 pq = [   56423,   57201] index = [    1591805676,1636005801] size =     44200125
	Batch  38 pq = [   57201,   57969] index = [    1636005801,1680231465] size =     44225664
	Batch  39 pq = [   57969,   58727] index = [    1680231465,1724459628] size =     44228163
	Batch  40 pq = [   58727,   59475] index = [    1724459628,1768667550] size =     44207922
	Batch  41 pq = [   59475,   60214] index = [    1768667550,1812893005] size =     44225455
	Batch  42 pq = [   60214,   60944] index = [    1812893005,1857116040] size =     44223035
	Batch  43 pq = [   60944,   61665] index = [    1857116040,1901316945] size =     44200905
	Batch  44 pq = [   61665,   62378] index = [    1901316945,1945538631] size =     44221686
	Batch  45 pq = [   62378,   63083] index = [    1945538631,1989763986] size =     44225355
	Batch  46 pq = [   63083,   63780] index = [    1989763986,2033976090] size =     44212104
	Batch  47 pq = [   63780,   64469] index = [    2033976090,2078158215] size =     44182125
	Batch  48 pq = [   64469,   65151] index = [    2078158215,2122358976] size =     44200761
	Batch  49 pq = [   65151,   65826] index = [    2122358976,2166564051] size =     44205075
	Batch  50 pq = [   65826,   66494] index = [    2166564051,2210759265] size =     44195214
	Batch  51 pq = [   66494,   67155] index = [    2210759265,2254930590] size =     44171325
	Batch  52 pq = [   67155,   67810] index = [    2254930590,2299131955] size =     44201365
	Batch  53 pq = [   67810,   68459] index = [    2299131955,2343351570] size =     44219615
	Batch  54 pq = [   68459,   68635] index = [    2343351570,2355415930] size =     12064360
  ==> DiskJK: Disk-Based J/K Matrices <==

    J tasked:                  Yes
    K tasked:                  Yes
    wK tasked:                  No
    Memory [MiB]:              375
    Schwarz Cutoff:          1E-12

    OpenMP threads:              1

  Minimum eigenvalue in the overlap matrix is 2.2752795232E-04.
  Using Symmetric Orthogonalization.

  SCF Guess: Superposition of Atomic Densities via on-the-fly atomic UHF.

  ==> Iterations <==

                        Total Energy        Delta E     RMS |[F,P]|

   @RHF iter SAD:  -800.90700188635981   -8.00907e+02   0.00000e+00
   @RHF iter   1:  -800.66261962087003    2.44382e-01   2.03697e-03 DIIS
   @RHF iter   2:  -800.99710830380513   -3.34489e-01   9.06961e-04 DIIS
   @RHF iter   3:  -801.05637026903298   -5.92620e-02   2.49485e-04 DIIS
   @RHF iter   4:  -801.06216082408150   -5.79056e-03   1.05005e-04 DIIS
   @RHF iter   5:  -801.06302084099570   -8.60017e-04   1.62753e-05 DIIS
   @RHF iter   6:  -801.06307000666754   -4.91657e-05   8.46201e-06 DIIS
   @RHF iter   7:  -801.06308130569244   -1.12990e-05   3.37250e-06 DIIS
   @RHF iter   8:  -801.06308442579211   -3.12010e-06   1.40784e-06 DIIS
   @RHF iter   9:  -801.06308497614657   -5.50354e-07   6.22400e-07 DIIS
   @RHF iter  10:  -801.06308509095129   -1.14805e-07   2.74294e-07 DIIS
   @RHF iter  11:  -801.06308512415308   -3.32018e-08   1.18315e-07 DIIS
   @RHF iter  12:  -801.06308512885050   -4.69743e-09   4.76842e-08 DIIS
   @RHF iter  13:  -801.06308512934640   -4.95902e-10   1.34185e-08 DIIS
   @RHF iter  14:  -801.06308512938847   -4.20641e-11   5.21227e-09 DIIS
   @RHF iter  15:  -801.06308512939438   -5.91172e-12   2.35630e-09 DIIS
   @RHF iter  16:  -801.06308512938870    5.68434e-12   1.27830e-09 DIIS
   @RHF iter  17:  -801.06308512939836   -9.66338e-12   5.98104e-10 DIIS
   @RHF iter  18:  -801.06308512938233    1.60298e-11   2.03416e-10 DIIS
   @RHF iter  19:  -801.06308512939177   -9.43601e-12   9.90925e-11 DIIS
  Energy and wave function converged.

  ==> Post-Iterations <==

    Orbital Energies [Eh]
    ---------------------

    Doubly Occupied:

       1A    -15.596232     2A    -15.588126     3A    -11.261676
       4A    -11.261547     5A    -11.253548     6A    -11.251759
       7A    -11.234195     8A    -11.227444     9A    -11.225909
      10A    -11.223462    11A    -11.223459    12A    -11.219110
      13A    -11.219036    14A    -11.218926    15A    -11.218132
      16A    -11.217313    17A    -11.217225    18A    -11.210262
      19A    -11.209113    20A    -11.207964    21A     -1.294280
      22A     -1.281314    23A     -1.131171    24A     -1.119851
      25A     -1.079208    26A     -1.064696    27A     -0.997943
      28A     -0.989616    29A     -0.989142    30A     -0.977648
      31A     -0.937923    32A     -0.926409    33A     -0.840128
      34A     -0.829787    35A     -0.804223    36A     -0.794474
      37A     -0.755209    38A     -0.743714    39A     -0.720106
      40A     -0.708729    41A     -0.661085    42A     -0.651902
      43A     -0.643672    44A     -0.634523    45A     -0.609936
      46A     -0.599462    47A     -0.594732    48A     -0.589811
      49A     -0.582361    50A     -0.580129    51A     -0.573538
      52A     -0.561690    53A     -0.556035    54A     -0.544565
      55A     -0.538983    56A     -0.528696    57A     -0.528067
      58A     -0.517832    59A     -0.494704    60A     -0.485771
      61A     -0.474714    62A     -0.466252    63A     -0.462947
      64A     -0.449175    65A     -0.375092    66A     -0.362140
      67A     -0.297254    68A     -0.286349    69A     -0.275371
      70A     -0.262966

    Virtual:

      71A      0.124354    72A      0.138483    73A      0.163282
      74A      0.166266    75A      0.175626    76A      0.182748
      77A      0.195773    78A      0.203556    79A      0.206049
      80A      0.217303    81A      0.223606    82A      0.226999
      83A      0.230086    84A      0.234868    85A      0.248436
      86A      0.256629    87A      0.259116    88A      0.264987
      89A      0.269875    90A      0.283420    91A      0.286097
      92A      0.301278    93A      0.311513    94A      0.324150
      95A      0.373228    96A      0.380104    97A      0.387717
      98A      0.394523    99A      0.405220   100A      0.410359
     101A      0.423760   102A      0.433128   103A      0.441936
     104A      0.454106   105A      0.469228   106A      0.478735
     107A      0.479370   108A      0.482718   109A      0.491498
     110A      0.512302   111A      0.530197   112A      0.540048
     113A      0.584583   114A      0.602080   115A      0.605960
     116A      0.625067   117A      0.630854   118A      0.642835
     119A      0.646913   120A      0.648714   121A      0.660008
     122A      0.671915   123A      0.675344   124A      0.695698
     125A      0.702902   126A      0.707763   127A      0.709122
     128A      0.713904   129A      0.724612   130A      0.728997
     131A      0.737067   132A      0.738977   133A      0.743010
     134A      0.744746   135A      0.749512   136A      0.752996
     137A      0.757782   138A      0.773889   139A      0.777454
     140A      0.779182   141A      0.782847   142A      0.789059
     143A      0.794634   144A      0.799878   145A      0.811850
     146A      0.824944   147A      0.828208   148A      0.844983
     149A      0.857712   150A      0.861429   151A      0.868700
     152A      0.873808   153A      0.876244   154A      0.883138
     155A      0.884916   156A      0.894108   157A      0.894350
     158A      0.901869   159A      0.908565   160A      0.910556
     161A      0.915393   162A      0.924677   163A      0.934403
     164A      0.942976   165A      0.949100   166A      0.955557
     167A      0.959998   168A      0.968142   169A      0.977499
     170A      0.986907   171A      0.997384   172A      0.998976
     173A      1.007071   174A      1.014211   175A      1.022414
     176A      1.038546   177A      1.054786   178A      1.063314
     179A      1.073649   180A      1.098398   181A      1.108020
     182A      1.122913   183A      1.136851   184A      1.140275
     185A      1.142823   186A      1.153471   187A      1.157347
     188A      1.163646   189A      1.167195   190A      1.181588
     191A      1.187034   192A      1.207935   193A      1.212794
     194A      1.221834   195A      1.227901   196A      1.231581
     197A      1.245872   198A      1.249693   199A      1.255655
     200A      1.258469   201A      1.261879   202A      1.276243
     203A      1.282263   204A      1.290549   205A      1.299009
     206A      1.303866   207A      1.313649   208A      1.321828
     209A      1.329309   210A      1.339590   211A      1.346677
     212A      1.354604   213A      1.368300   214A      1.379102
     215A      1.381017   216A      1.407927   217A      1.428254
     218A      1.453460   219A      1.460910   220A      1.473223
     221A      1.521818   222A      1.539064   223A      1.545394
     224A      1.555730   225A      1.576406   226A      1.591763
     227A      1.598796   228A      1.612385   229A      1.630935
     230A      1.644449   231A      1.652475   232A      1.662038
     233A      1.671960   234A      1.678305   235A      1.687589
     236A      1.694689   237A      1.706832   238A      1.727299
     239A      1.750363   240A      1.761015   241A      1.764891
     242A      1.775067   243A      1.783063   244A      1.793214
     245A      1.797964   246A      1.812505   247A      1.820341
     248A      1.841970   249A      1.847526   250A      1.852597
     251A      1.864977   252A      1.869148   253A      1.882874
     254A      1.886198   255A      1.894699   256A      1.899786
     257A      1.901569   258A      1.912693   259A      1.916646
     260A      1.922699   261A      1.930267   262A      1.934421
     263A      1.940514   264A      1.948571   265A      1.958293
     266A      1.960587   267A      1.977873   268A      1.979575
     269A      1.985063   270A      1.996898   271A      2.003203
     272A      2.013488   273A      2.022935   274A      2.027713
     275A      2.040104   276A      2.041971   277A      2.046622
     278A      2.063835   279A      2.075609   280A      2.084093
     281A      2.093978   282A      2.098092   283A      2.103634
     284A      2.106670   285A      2.123971   286A      2.127833
     287A      2.134140   288A      2.139356   289A      2.141625
     290A      2.151009   291A      2.164018   292A      2.169278
     293A      2.177394   294A      2.188542   295A      2.191788
     296A      2.197467   297A      2.201166   298A      2.217300
     299A      2.240817   300A      2.244233   301A      2.255728
     302A      2.278789   303A      2.291198   304A      2.297133
     305A      2.319256   306A      2.320331   307A      2.332327
     308A      2.343132   309A      2.350058   310A      2.354897
     311A      2.373894   312A      2.382660   313A      2.413514
     314A      2.430068   315A      2.444985   316A      2.448466
     317A      2.452948   318A      2.469743   319A      2.475226
     320A      2.484734   321A      2.554447   322A      2.575868
     323A      2.593931   324A      2.597427   325A      2.613111
     326A      2.628085   327A      2.640497   328A      2.655530
     329A      2.666931   330A      2.684491   331A      2.695954
     332A      2.705754   333A      2.738755   334A      2.753257
     335A      2.767045   336A      2.775178   337A      2.778314
     338A      2.789408   339A      2.793570   340A      2.804083
     341A      2.806748   342A      2.830155   343A      2.841902
     344A      2.849382   345A      2.858030   346A      2.869263
     347A      2.890975   348A      2.897692   349A      2.946872
     350A      2.962314   351A      2.986929   352A      3.018093
     353A      3.046264   354A      3.066656   355A      3.081661
     356A      3.090878   357A      3.097793   358A      3.107825
     359A      3.139449   360A      3.146072   361A      3.226777
     362A      3.228641   363A      3.321319   364A      3.329899
     365A      3.384505   366A      3.395604   367A      3.729743
     368A      3.773823   369A      3.976456   370A      3.982672

    Final Occupation by Irrep:
              A
    DOCC [    70 ]

  @RHF Final Energy:  -801.06308512939177

   => Energetics <=

    Nuclear Repulsion Energy =           1498.8927829164856576
    One-Electron Energy =               -4064.9922098892302529
    Two-Electron Energy =                1765.0363418433526022
    Total Energy =                       -801.0630851293917658

Computation Completed

Properties will be evaluated at   0.000000,   0.000000,   0.000000 [a0]

Properties computed using the SCF density matrix

  Nuclear Dipole Moment: [e a0]
     X:     1.9826      Y:    -1.4251      Z:     3.2283

  Electronic Dipole Moment: [e a0]
     X:    -1.7465      Y:     1.5592      Z:    -2.1014

  Dipole Moment: [e a0]
     X:     0.2362      Y:     0.1341      Z:     1.1269     Total:     1.1591

  Dipole Moment: [D]
     X:     0.6003      Y:     0.3409      Z:     2.8642     Total:     2.9463

*** tstop() called on ds3 at Tue Apr 28 19:55:36 2020
Module time:
	user time   =     814.36 seconds =      13.57 minutes
	system time =     748.23 seconds =      12.47 minutes
	total time  =      24216 seconds =     403.60 minutes
Total time:
	user time   =     814.36 seconds =      13.57 minutes
	system time =     748.23 seconds =      12.47 minutes
	total time  =      24216 seconds =     403.60 minutes
                                     G D M A

                                 by Anthony Stone

                           version 2.2.06, 22 June 2011

               Distributed Multipoles from Gaussian wavefunctions

Starting at 19:55:36 on 28 Apr 2020

Using SCF density matrix from file ./SSI/SSI-038TRP-063TRP-1-dimer.test.15791.fchk

                         Distributed Multipole Analysis

Standard DMA

Positions and radii in angstrom
Multipole moments in atomic units, ea_0^k for rank k

C          x = -0.799065  y = -3.741632  z =  1.391473 angstrom
           Maximum rank =  0   Radius =  0.650 angstrom
                   Q00  =  -0.214978

C          x =  0.650935  y = -1.241632  z = -1.023527 angstrom
           Maximum rank =  0   Radius =  0.650 angstrom
                   Q00  =   0.255604

C          x = -0.283065  y = -2.259632  z = -0.712527 angstrom
           Maximum rank =  0   Radius =  0.650 angstrom
                   Q00  =  -0.052959

C          x = -0.044065  y = -2.680632  z =  0.641473 angstrom
           Maximum rank =  0   Radius =  0.650 angstrom
                   Q00  =  -0.135146

C          x =  0.985935  y = -1.918632  z =  1.089473 angstrom
           Maximum rank =  0   Radius =  0.650 angstrom
                   Q00  =   0.093005

C          x =  0.692935  y = -0.629632  z = -2.267527 angstrom
           Maximum rank =  0   Radius =  0.650 angstrom
                   Q00  =  -0.107504

C          x = -0.215065  y = -1.063632  z = -3.222527 angstrom
           Maximum rank =  0   Radius =  0.650 angstrom
                   Q00  =  -0.005863

C          x = -1.178065  y = -2.677632  z = -1.703527 angstrom
           Maximum rank =  0   Radius =  0.650 angstrom
                   Q00  =  -0.104012

C          x = -1.136065  y = -2.077632  z = -2.944527 angstrom
           Maximum rank =  0   Radius =  0.650 angstrom
                   Q00  =  -0.094859

N          x =  1.418935  y = -1.061632  z =  0.097473 angstrom
           Maximum rank =  0   Radius =  0.650 angstrom
                   Q00  =  -0.488665

H          x =  2.181935  y = -0.399632  z =  0.204473 angstrom
           Maximum rank =  0   Radius =  0.325 angstrom
                   Q00  =   0.222760

H          x =  1.406935  y =  0.150368  z = -2.477527 angstrom
           Maximum rank =  0   Radius =  0.325 angstrom
                   Q00  =   0.073608

H          x =  1.422935  y = -1.982632  z =  2.076473 angstrom
           Maximum rank =  0   Radius =  0.325 angstrom
                   Q00  =   0.087862

H          x = -0.208065  y = -0.627632  z = -4.205527 angstrom
           Maximum rank =  0   Radius =  0.325 angstrom
                   Q00  =   0.059271

H          x = -1.901065  y = -3.451632  z = -1.496527 angstrom
           Maximum rank =  0   Radius =  0.325 angstrom
                   Q00  =   0.061748

H          x = -0.224065  y = -4.661632  z =  1.385473 angstrom
           Maximum rank =  0   Radius =  0.325 angstrom
                   Q00  =   0.103426

H          x = -1.702065  y = -3.928632  z =  0.816473 angstrom
           Maximum rank =  0   Radius =  0.325 angstrom
                   Q00  =   0.104843

H          x = -1.817065  y = -2.405632  z = -3.711527 angstrom
           Maximum rank =  0   Radius =  0.325 angstrom
                   Q00  =   0.053633

H          x = -1.070805  y = -3.446042  z =  2.415573 angstrom
           Maximum rank =  0   Radius =  0.325 angstrom
                   Q00  =   0.096335

C          x =  2.667935  y =  2.289368  z =  2.018473 angstrom
           Maximum rank =  0   Radius =  0.650 angstrom
                   Q00  =  -0.214103

C          x = -0.845065  y =  1.478368  z =  0.991473 angstrom
           Maximum rank =  0   Radius =  0.650 angstrom
                   Q00  =   0.258823

C          x =  0.383935  y =  2.143368  z =  0.767473 angstrom
           Maximum rank =  0   Radius =  0.650 angstrom
                   Q00  =  -0.061859

C          x =  1.280935  y =  1.782368  z =  1.821473 angstrom
           Maximum rank =  0   Radius =  0.650 angstrom
                   Q00  =  -0.130207

C          x =  0.572935  y =  0.980368  z =  2.647473 angstrom
           Maximum rank =  0   Radius =  0.650 angstrom
                   Q00  =   0.081652

C          x = -1.931065  y =  1.628368  z =  0.134473 angstrom
           Maximum rank =  0   Radius =  0.650 angstrom
                   Q00  =  -0.107273

C          x = -1.768065  y =  2.425368  z = -0.976527 angstrom
           Maximum rank =  0   Radius =  0.650 angstrom
                   Q00  =  -0.054493

C          x =  0.512935  y =  2.944368  z = -0.362527 angstrom
           Maximum rank =  0   Radius =  0.650 angstrom
                   Q00  =  -0.108428

C          x = -0.562065  y =  3.065368  z = -1.227527 angstrom
           Maximum rank =  0   Radius =  0.650 angstrom
                   Q00  =  -0.048410

N          x = -0.703065  y =  0.788368  z =  2.171473 angstrom
           Maximum rank =  0   Radius =  0.650 angstrom
                   Q00  =  -0.487968

H          x = -1.465065  y =  0.455368  z =  2.739473 angstrom
           Maximum rank =  0   Radius =  0.325 angstrom
                   Q00  =   0.213364

H          x = -2.877065  y =  1.152368  z =  0.334473 angstrom
           Maximum rank =  0   Radius =  0.325 angstrom
                   Q00  =   0.074682

H          x =  0.959935  y =  0.502368  z =  3.527473 angstrom
           Maximum rank =  0   Radius =  0.325 angstrom
                   Q00  =   0.091440

H          x = -2.592065  y =  2.548368  z = -1.664527 angstrom
           Maximum rank =  0   Radius =  0.325 angstrom
                   Q00  =   0.064240

H          x =  1.435935  y =  3.467368  z = -0.554527 angstrom
           Maximum rank =  0   Radius =  0.325 angstrom
                   Q00  =   0.063220

H          x =  2.566935  y =  3.275368  z =  2.473473 angstrom
           Maximum rank =  0   Radius =  0.325 angstrom
                   Q00  =   0.103901

H          x =  3.123935  y =  2.442368  z =  1.040473 angstrom
           Maximum rank =  0   Radius =  0.325 angstrom
                   Q00  =   0.092835

H          x = -0.469065  y =  3.689368  z = -2.106527 angstrom
           Maximum rank =  0   Radius =  0.325 angstrom
                   Q00  =   0.056132

H          x =  3.344945  y =  1.699148  z =  2.653533 angstrom
           Maximum rank =  0   Radius =  0.325 angstrom
                   Q00  =   0.104343

Total multipoles referred to origin at
           x =   0.000000,  y =    0.000000,  z =    0.000000 angstrom
                   Q00  =  -0.000000

Finished at 19:55:36 on 28 Apr 2020

  DMA results are available in the Python driver through the
	  variable('DMA DISTRIBUTED MULTIPOLES')
  and
	  variable('DMA TOTAL MULTIPOLES')
  commands.

    Psi4 stopped on: Tuesday, 28 April 2020 07:55PM
    Psi4 wall time for execution: 6:43:35.98

*** Psi4 exiting successfully. Buy a developer a beer!
