                               Psi4 1.3.2 release

  ==> Input File <==

--------------------------------------------------------------------------
import numpy as np
set {scf_type pk
basis cc-pvdz
d_convergence 10
gdma_switch   0
gdma_limit    0
gdma_origin   [ 0.0,  0.0,  0.0 ]
}
molecule test {
    units Angstrom
    -1 1
    --
    -1 1
    C               -4.097488184224034    -0.384307113129344    -0.951939532549263
    C               -2.601488184224034    -0.589307113129344    -0.738939532549263
    O               -1.821488184224035     0.192692886870656    -1.312939532549263
    O               -2.208488184224035    -1.512307113129344     0.009060467450736
    H               -4.308488184224035    -0.269307113129344    -2.016939532549263
    H               -4.395488184224035     0.537692886870656    -0.453939532549264
    H               -4.695436184224036    -1.213395113129344    -0.545650532549264
    C                3.230511815775965     1.107692886870656     2.182060467450736
    C                1.670511815775965    -0.448307113129344    -0.699939532549264
    C                1.038511815775965     1.031692886870656     0.798060467450737
    C                2.315511815775965     0.665692886870656     1.080060467450737
    N                0.663511815775965     0.324692886870656    -0.318939532549264
    N                2.694511815775965    -0.261307113129344     0.128060467450736
    H               -0.266488184224035     0.319692886870656    -0.735939532549264
    H                1.654511815775965    -1.124307113129344    -1.547939532549264
    H                0.438511815775965     1.737692886870656     1.351060467450737
    H                3.510511815775965     0.224692886870656     2.752060467450737
    H                2.691511815775965     1.781692886870656     2.850060467450736
    H                4.144076815775965     1.599058886870656     1.816057887450736

}
e, wfn = energy('scf', return_wfn=True)
gdma(wfn)
dmavals = variable('DMA DISTRIBUTED MULTIPOLES')
charges = np.array(dmavals)
print(charges)
np.save('SSI-043ASP-054HIE-1-dimer.npy', np.array(charges))--------------------------------------------------------------------------

*** tstart() called on ds3
*** at Sun Apr 26 21:36:31 2020

   => Loading Basis Set <=

    Name: CC-PVDZ
    Role: ORBITAL
    Keyword: BASIS
    atoms 1-2, 8-11  entry C          line   138 file /theoryfs2/ds/metcalf/miniconda2/envs/tf2gpu/share/psi4/basis/cc-pvdz.gbs
    atoms 3-4        entry O          line   198 file /theoryfs2/ds/metcalf/miniconda2/envs/tf2gpu/share/psi4/basis/cc-pvdz.gbs
    atoms 5-7, 14-19 entry H          line    22 file /theoryfs2/ds/metcalf/miniconda2/envs/tf2gpu/share/psi4/basis/cc-pvdz.gbs
    atoms 12-13      entry N          line   168 file /theoryfs2/ds/metcalf/miniconda2/envs/tf2gpu/share/psi4/basis/cc-pvdz.gbs

         ---------------------------------------------------------
                                   SCF
               by Justin Turney, Rob Parrish, Andy Simmonett
                          and Daniel G. A. Smith
                              RHF Reference
                        1 Threads,    500 MiB Core
         ---------------------------------------------------------

  ==> Geometry <==

    Molecular point group: c1
    Full point group: C1

    Geometry (in Angstrom), charge = -1, multiplicity = 1:

       Center              X                  Y                   Z               Mass
    ------------   -----------------  -----------------  -----------------  -----------------
         C           -4.097488184224    -0.384307113129    -0.951939532549    12.000000000000
         C           -2.601488184224    -0.589307113129    -0.738939532549    12.000000000000
         O           -1.821488184224     0.192692886871    -1.312939532549    15.994914619570
         O           -2.208488184224    -1.512307113129     0.009060467451    15.994914619570
         H           -4.308488184224    -0.269307113129    -2.016939532549     1.007825032230
         H           -4.395488184224     0.537692886871    -0.453939532549     1.007825032230
         H           -4.695436184224    -1.213395113129    -0.545650532549     1.007825032230
         C            3.230511815776     1.107692886871     2.182060467451    12.000000000000
         C            1.670511815776    -0.448307113129    -0.699939532549    12.000000000000
         C            1.038511815776     1.031692886871     0.798060467451    12.000000000000
         C            2.315511815776     0.665692886871     1.080060467451    12.000000000000
         N            0.663511815776     0.324692886871    -0.318939532549    14.003074004430
         N            2.694511815776    -0.261307113129     0.128060467451    14.003074004430
         H           -0.266488184224     0.319692886871    -0.735939532549     1.007825032230
         H            1.654511815776    -1.124307113129    -1.547939532549     1.007825032230
         H            0.438511815776     1.737692886871     1.351060467451     1.007825032230
         H            3.510511815776     0.224692886871     2.752060467451     1.007825032230
         H            2.691511815776     1.781692886871     2.850060467451     1.007825032230
         H            4.144076815776     1.599058886871     1.816057887451     1.007825032230

  Running in c1 symmetry.

  Rotational constants: A =      0.12512  B =      0.01642  C =      0.01590 [cm^-1]
  Rotational constants: A =   3751.10660  B =    492.37265  C =    476.57855 [MHz]
  Nuclear repulsion =  489.216497976152255

  Charge       = -1
  Multiplicity = 1
  Electrons    = 76
  Nalpha       = 38
  Nbeta        = 38

  ==> Algorithm <==

  SCF Algorithm Type is PK.
  DIIS enabled.
  MOM disabled.
  Fractional occupation disabled.
  Guess Type is SAD.
  Energy threshold   = 1.00e-06
  Density threshold  = 1.00e-10
  Integral threshold = 0.00e+00

  ==> Primary Basis <==

  Basis Set: CC-PVDZ
    Blend: CC-PVDZ
    Number of shells: 87
    Number of basis function: 185
    Number of Cartesian functions: 195
    Spherical Harmonics?: true
    Max angular momentum: 2

  ==> Pre-Iterations <==

   -------------------------------------------------------
    Irrep   Nso     Nmo     Nalpha   Nbeta   Ndocc  Nsocc
   -------------------------------------------------------
     A        185     185       0       0       0       0
   -------------------------------------------------------
    Total     185     185      38      38      38       0
   -------------------------------------------------------

  ==> Integral Setup <==

  Using integral reordering PK algorithm.
  Sizing the integral batches needed.
  Building batch lookup table.
   Calculation information:
      Number of atoms:                  19
      Number of AO shells:              87
      Number of primitives:            265
      Number of atomic orbitals:       195
      Number of basis functions:       185

      Integral cutoff                 1.00e-12
      Number of threads:                 1

	Batch   1 pq = [       0,    9405] index = [             0,44231715] size =     44231715
	Batch   2 pq = [    9405,   13301] index = [      44231715,88464951] size =     44233236
	Batch   3 pq = [   13301,   16290] index = [      88464951,132690195] size =     44225244
	Batch   4 pq = [   16290,   17205] index = [     132690195,148014615] size =     15324420
  Task number: 14
  Buffer size: 11059200
  Buffer per thread: 2
  We computed 5240281 shell quartets total.
  Whereas there are 7328706 unique shell quartets.

  ==> DiskJK: Disk-Based J/K Matrices <==

    J tasked:                  Yes
    K tasked:                  Yes
    wK tasked:                  No
    Memory [MiB]:              375
    Schwarz Cutoff:          1E-12

    OpenMP threads:              1

  Minimum eigenvalue in the overlap matrix is 1.1997536559E-03.
  Using Symmetric Orthogonalization.

  SCF Guess: Superposition of Atomic Densities via on-the-fly atomic UHF.

  ==> Iterations <==

                        Total Energy        Delta E     RMS |[F,P]|

   @RHF iter SAD:  -489.82592414084763   -4.89826e+02   0.00000e+00
   @RHF iter   1:  -490.85928246030193   -1.03336e+00   4.09732e-03 DIIS
   @RHF iter   2:  -491.08325177873530   -2.23969e-01   2.28038e-03 DIIS
   @RHF iter   3:  -491.14971823306075   -6.64665e-02   3.90867e-04 DIIS
   @RHF iter   4:  -491.15299123498755   -3.27300e-03   1.54618e-04 DIIS
   @RHF iter   5:  -491.15348972967212   -4.98495e-04   3.33150e-05 DIIS
   @RHF iter   6:  -491.15351516683830   -2.54372e-05   1.39461e-05 DIIS
   @RHF iter   7:  -491.15352007445091   -4.90761e-06   3.55994e-06 DIIS
   @RHF iter   8:  -491.15352084528843   -7.70838e-07   1.83833e-06 DIIS
   @RHF iter   9:  -491.15352104520684   -1.99918e-07   7.43206e-07 DIIS
   @RHF iter  10:  -491.15352108212460   -3.69178e-08   2.02428e-07 DIIS
   @RHF iter  11:  -491.15352108459621   -2.47161e-09   6.58127e-08 DIIS
   @RHF iter  12:  -491.15352108473667   -1.40460e-10   3.43436e-08 DIIS
   @RHF iter  13:  -491.15352108477305   -3.63798e-11   1.09933e-08 DIIS
   @RHF iter  14:  -491.15352108477668   -3.63798e-12   4.37721e-09 DIIS
   @RHF iter  15:  -491.15352108477970   -3.01270e-12   1.49112e-09 DIIS
   @RHF iter  16:  -491.15352108477958    1.13687e-13   6.21283e-10 DIIS
   @RHF iter  17:  -491.15352108477907    5.11591e-13   2.22943e-10 DIIS
   @RHF iter  18:  -491.15352108477805    1.02318e-12   6.08316e-11 DIIS
  Energy and wave function converged.

  ==> Post-Iterations <==

    Orbital Energies [Eh]
    ---------------------

    Doubly Occupied:

       1A    -20.304311     2A    -20.291305     3A    -15.443226
       4A    -15.387170     5A    -11.152031     6A    -11.144954
       7A    -11.117235     8A    -11.108848     9A    -11.104886
      10A    -11.075370    11A     -1.194938    12A     -1.186122
      13A     -1.076410    14A     -1.001380    15A     -0.900571
      16A     -0.822755    17A     -0.812249    18A     -0.664818
      19A     -0.618493    20A     -0.598236    21A     -0.534025
      22A     -0.474358    23A     -0.469803    24A     -0.454383
      25A     -0.443352    26A     -0.438363    27A     -0.436681
      28A     -0.424028    29A     -0.412504    30A     -0.400887
      31A     -0.372992    32A     -0.341026    33A     -0.275861
      34A     -0.231395    35A     -0.221250    36A     -0.207550
      37A     -0.201785    38A     -0.171113

    Virtual:

      39A      0.302029    40A      0.333727    41A      0.340431
      42A      0.341277    43A      0.345742    44A      0.350299
      45A      0.374326    46A      0.384709    47A      0.396963
      48A      0.413766    49A      0.454561    50A      0.481949
      51A      0.496455    52A      0.535237    53A      0.545001
      54A      0.607977    55A      0.618835    56A      0.632410
      57A      0.670604    58A      0.722454    59A      0.733602
      60A      0.749236    61A      0.754804    62A      0.797074
      63A      0.799892    64A      0.831173    65A      0.840528
      66A      0.852477    67A      0.882381    68A      0.898990
      69A      0.919580    70A      0.923311    71A      0.945088
      72A      0.948777    73A      0.962312    74A      0.980182
      75A      0.991602    76A      1.010580    77A      1.014154
      78A      1.017116    79A      1.020294    80A      1.032175
      81A      1.052836    82A      1.073642    83A      1.089296
      84A      1.108638    85A      1.118509    86A      1.185953
      87A      1.203631    88A      1.224373    89A      1.230895
      90A      1.262354    91A      1.274389    92A      1.286815
      93A      1.305589    94A      1.320298    95A      1.333639
      96A      1.384885    97A      1.425116    98A      1.438524
      99A      1.455730   100A      1.461289   101A      1.479479
     102A      1.521280   103A      1.543372   104A      1.561966
     105A      1.570743   106A      1.586866   107A      1.609405
     108A      1.620514   109A      1.638488   110A      1.659488
     111A      1.703047   112A      1.721530   113A      1.741162
     114A      1.769478   115A      1.789929   116A      1.818555
     117A      1.823910   118A      1.838043   119A      1.902574
     120A      1.919463   121A      1.938233   122A      1.965228
     123A      1.995993   124A      2.024235   125A      2.036499
     126A      2.054460   127A      2.057517   128A      2.065711
     129A      2.075119   130A      2.102961   131A      2.118556
     132A      2.129540   133A      2.149239   134A      2.162095
     135A      2.192377   136A      2.217739   137A      2.244005
     138A      2.248382   139A      2.280071   140A      2.300893
     141A      2.326838   142A      2.339911   143A      2.367089
     144A      2.400856   145A      2.408618   146A      2.460224
     147A      2.498607   148A      2.518357   149A      2.549391
     150A      2.595392   151A      2.612433   152A      2.617826
     153A      2.674149   154A      2.693225   155A      2.734859
     156A      2.757360   157A      2.784821   158A      2.811566
     159A      2.862782   160A      2.888197   161A      2.891936
     162A      2.902257   163A      2.932380   164A      2.944820
     165A      2.961496   166A      2.973014   167A      3.017208
     168A      3.020557   169A      3.061638   170A      3.094275
     171A      3.205355   172A      3.217964   173A      3.247222
     174A      3.288932   175A      3.343490   176A      3.384052
     177A      3.472675   178A      3.600119   179A      3.628029
     180A      3.750886   181A      3.792225   182A      4.016158
     183A      4.032963   184A      4.099476   185A      4.193326

    Final Occupation by Irrep:
              A
    DOCC [    38 ]

  @RHF Final Energy:  -491.15352108477805

   => Energetics <=

    Nuclear Repulsion Energy =            489.2164979761522545
    One-Electron Energy =               -1653.7067170523982895
    Two-Electron Energy =                 673.3366979914678723
    Total Energy =                       -491.1535210847780490

Computation Completed

Properties will be evaluated at   0.000000,   0.000000,   0.000000 [a0]

Properties computed using the SCF density matrix

  Nuclear Dipole Moment: [e a0]
     X:    -1.1792      Y:     3.3623      Z:     3.2462

  Electronic Dipole Moment: [e a0]
     X:     2.0863      Y:    -2.0800      Z:    -2.7712

  Dipole Moment: [e a0]
     X:     0.9071      Y:     1.2823      Z:     0.4750     Total:     1.6409

  Dipole Moment: [D]
     X:     2.3055      Y:     3.2592      Z:     1.2073     Total:     4.1708

*** tstop() called on ds3 at Sun Apr 26 21:37:58 2020
Module time:
	user time   =      47.83 seconds =       0.80 minutes
	system time =      23.61 seconds =       0.39 minutes
	total time  =         87 seconds =       1.45 minutes
Total time:
	user time   =      47.83 seconds =       0.80 minutes
	system time =      23.61 seconds =       0.39 minutes
	total time  =         87 seconds =       1.45 minutes
                                     G D M A

                                 by Anthony Stone

                           version 2.2.06, 22 June 2011

               Distributed Multipoles from Gaussian wavefunctions

Starting at 21:37:58 on 26 Apr 2020

Using SCF density matrix from file ./SSI/SSI-043ASP-054HIE-1-dimer.test.1774.fchk

                         Distributed Multipole Analysis

Standard DMA

Positions and radii in angstrom
Multipole moments in atomic units, ea_0^k for rank k

C          x = -4.097488  y = -0.384307  z = -0.951940 angstrom
           Maximum rank =  0   Radius =  0.650 angstrom
                   Q00  =  -0.265158

C          x = -2.601488  y = -0.589307  z = -0.738940 angstrom
           Maximum rank =  0   Radius =  0.650 angstrom
                   Q00  =   0.921427

O          x = -1.821488  y =  0.192693  z = -1.312940 angstrom
           Maximum rank =  0   Radius =  0.650 angstrom
                   Q00  =  -0.948533

O          x = -2.208488  y = -1.512307  z =  0.009060 angstrom
           Maximum rank =  0   Radius =  0.650 angstrom
                   Q00  =  -0.897956

H          x = -4.308488  y = -0.269307  z = -2.016940 angstrom
           Maximum rank =  0   Radius =  0.325 angstrom
                   Q00  =   0.071469

H          x = -4.395488  y =  0.537693  z = -0.453940 angstrom
           Maximum rank =  0   Radius =  0.325 angstrom
                   Q00  =   0.081630

H          x = -4.695436  y = -1.213395  z = -0.545651 angstrom
           Maximum rank =  0   Radius =  0.325 angstrom
                   Q00  =   0.060759

C          x =  3.230512  y =  1.107693  z =  2.182060 angstrom
           Maximum rank =  0   Radius =  0.650 angstrom
                   Q00  =  -0.185117

C          x =  1.670512  y = -0.448307  z = -0.699940 angstrom
           Maximum rank =  0   Radius =  0.650 angstrom
                   Q00  =   0.487213

C          x =  1.038512  y =  1.031693  z =  0.798060 angstrom
           Maximum rank =  0   Radius =  0.650 angstrom
                   Q00  =   0.055293

C          x =  2.315512  y =  0.665693  z =  1.080060 angstrom
           Maximum rank =  0   Radius =  0.650 angstrom
                   Q00  =   0.169923

N          x =  0.663512  y =  0.324693  z = -0.318940 angstrom
           Maximum rank =  0   Radius =  0.650 angstrom
                   Q00  =  -0.527848

N          x =  2.694512  y = -0.261307  z =  0.128060 angstrom
           Maximum rank =  0   Radius =  0.650 angstrom
                   Q00  =  -0.804356

H          x = -0.266488  y =  0.319693  z = -0.735940 angstrom
           Maximum rank =  0   Radius =  0.325 angstrom
                   Q00  =   0.357890

H          x =  1.654512  y = -1.124307  z = -1.547940 angstrom
           Maximum rank =  0   Radius =  0.325 angstrom
                   Q00  =   0.106493

H          x =  0.438512  y =  1.737693  z =  1.351060 angstrom
           Maximum rank =  0   Radius =  0.325 angstrom
                   Q00  =   0.069974

H          x =  3.510512  y =  0.224693  z =  2.752060 angstrom
           Maximum rank =  0   Radius =  0.325 angstrom
                   Q00  =   0.088884

H          x =  2.691512  y =  1.781693  z =  2.850060 angstrom
           Maximum rank =  0   Radius =  0.325 angstrom
                   Q00  =   0.076838

H          x =  4.144077  y =  1.599059  z =  1.816058 angstrom
           Maximum rank =  0   Radius =  0.325 angstrom
                   Q00  =   0.081177

Total multipoles referred to origin at
           x =   0.000000,  y =    0.000000,  z =    0.000000 angstrom
                   Q00  =  -1.000000

Finished at 21:37:58 on 26 Apr 2020

  DMA results are available in the Python driver through the
	  variable('DMA DISTRIBUTED MULTIPOLES')
  and
	  variable('DMA TOTAL MULTIPOLES')
  commands.

    Psi4 stopped on: Sunday, 26 April 2020 09:37PM
    Psi4 wall time for execution: 0:01:27.35

*** Psi4 exiting successfully. Buy a developer a beer!
