                               Psi4 1.3.2 release

  ==> Input File <==

--------------------------------------------------------------------------
import numpy as np
set {scf_type pk
basis cc-pvdz
d_convergence 10
gdma_switch   0
gdma_limit    0
gdma_origin   [ 0.0,  0.0,  0.0 ]
}
molecule test {
    units Angstrom
    -1 1
    --
    -1 1
    C                1.052351809198070    -0.757600129350990    -2.305859339579093
    C                2.342351809198071    -0.345600129350990    -1.604859339579093
    C                0.293351809198070     0.388399870649010    -2.966859339579093
    H                1.310351809198070    -1.497600129350990    -3.063859339579093
    H                0.391351809198070    -1.243600129350990    -1.589859339579093
    H                2.109351809198070     0.433399870649010    -0.874859339579093
    H               -0.026648190801930     1.111399870649010    -2.215859339579093
    H                0.949351809198070     0.877399870649010    -3.688859339579093
    H                3.080281809198071     0.035489870649010    -2.326129339579094
    H                2.762071809198070    -1.208840129350990    -1.067589339579093
    H               -0.576178190801930    -0.037730129350990    -3.488719339579093
    C               -1.143648190801930    -0.634600129350990     0.740140660420907
    C               -2.124648190801930    -1.188600129350990     1.771140660420907
    C               -0.342648190801930     0.531399870649010     1.291140660420907
    O               -1.011648190801930     1.494399870649010     1.721140660420907
    O                0.907351809198070     0.464399870649010     1.342140660420907
    H               -0.466648190801930    -1.434600129350990     0.441140660420907
    H               -1.693648190801930    -0.308600129350990    -0.144859339579093
    H               -2.848648190801930    -0.405600129350990     2.008140660420906
    H               -1.580458190801930    -1.482960129350990     2.680650660420907
    H               -2.673418190801930    -2.033480129350990     1.329520660420907

}
e, wfn = energy('scf', return_wfn=True)
gdma(wfn)
dmavals = variable('DMA DISTRIBUTED MULTIPOLES')
charges = np.array(dmavals)
print(charges)
np.save('SSI-004LYS-030ASP-1-dimer.npy', np.array(charges))--------------------------------------------------------------------------

*** tstart() called on ds3
*** at Mon Apr 27 16:43:07 2020

   => Loading Basis Set <=

    Name: CC-PVDZ
    Role: ORBITAL
    Keyword: BASIS
    atoms 1-3, 12-14  entry C          line   138 file /theoryfs2/ds/metcalf/miniconda2/envs/tf2gpu/share/psi4/basis/cc-pvdz.gbs
    atoms 4-11, 17-21 entry H          line    22 file /theoryfs2/ds/metcalf/miniconda2/envs/tf2gpu/share/psi4/basis/cc-pvdz.gbs
    atoms 15-16       entry O          line   198 file /theoryfs2/ds/metcalf/miniconda2/envs/tf2gpu/share/psi4/basis/cc-pvdz.gbs

         ---------------------------------------------------------
                                   SCF
               by Justin Turney, Rob Parrish, Andy Simmonett
                          and Daniel G. A. Smith
                              RHF Reference
                        1 Threads,    500 MiB Core
         ---------------------------------------------------------

  ==> Geometry <==

    Molecular point group: c1
    Full point group: C1

    Geometry (in Angstrom), charge = -1, multiplicity = 1:

       Center              X                  Y                   Z               Mass
    ------------   -----------------  -----------------  -----------------  -----------------
         C            1.052351809198    -0.757600129351    -2.305859339579    12.000000000000
         C            2.342351809198    -0.345600129351    -1.604859339579    12.000000000000
         C            0.293351809198     0.388399870649    -2.966859339579    12.000000000000
         H            1.310351809198    -1.497600129351    -3.063859339579     1.007825032230
         H            0.391351809198    -1.243600129351    -1.589859339579     1.007825032230
         H            2.109351809198     0.433399870649    -0.874859339579     1.007825032230
         H           -0.026648190802     1.111399870649    -2.215859339579     1.007825032230
         H            0.949351809198     0.877399870649    -3.688859339579     1.007825032230
         H            3.080281809198     0.035489870649    -2.326129339579     1.007825032230
         H            2.762071809198    -1.208840129351    -1.067589339579     1.007825032230
         H           -0.576178190802    -0.037730129351    -3.488719339579     1.007825032230
         C           -1.143648190802    -0.634600129351     0.740140660421    12.000000000000
         C           -2.124648190802    -1.188600129351     1.771140660421    12.000000000000
         C           -0.342648190802     0.531399870649     1.291140660421    12.000000000000
         O           -1.011648190802     1.494399870649     1.721140660421    15.994914619570
         O            0.907351809198     0.464399870649     1.342140660421    15.994914619570
         H           -0.466648190802    -1.434600129351     0.441140660421     1.007825032230
         H           -1.693648190802    -0.308600129351    -0.144859339579     1.007825032230
         H           -2.848648190802    -0.405600129351     2.008140660421     1.007825032230
         H           -1.580458190802    -1.482960129351     2.680650660421     1.007825032230
         H           -2.673418190802    -2.033480129351     1.329520660421     1.007825032230

  Running in c1 symmetry.

  Rotational constants: A =      0.08465  B =      0.02835  C =      0.02593 [cm^-1]
  Rotational constants: A =   2537.86520  B =    849.85651  C =    777.47023 [MHz]
  Nuclear repulsion =  372.668950074600446

  Charge       = -1
  Multiplicity = 1
  Electrons    = 66
  Nalpha       = 33
  Nbeta        = 33

  ==> Algorithm <==

  SCF Algorithm Type is PK.
  DIIS enabled.
  MOM disabled.
  Fractional occupation disabled.
  Guess Type is SAD.
  Energy threshold   = 1.00e-06
  Density threshold  = 1.00e-10
  Integral threshold = 0.00e+00

  ==> Primary Basis <==

  Basis Set: CC-PVDZ
    Blend: CC-PVDZ
    Number of shells: 87
    Number of basis function: 177
    Number of Cartesian functions: 185
    Spherical Harmonics?: true
    Max angular momentum: 2

  ==> Pre-Iterations <==

   -------------------------------------------------------
    Irrep   Nso     Nmo     Nalpha   Nbeta   Ndocc  Nsocc
   -------------------------------------------------------
     A        177     177       0       0       0       0
   -------------------------------------------------------
    Total     177     177      33      33      33       0
   -------------------------------------------------------

  ==> Integral Setup <==

  Using integral reordering PK algorithm.
  Sizing the integral batches needed.
  Building batch lookup table.
   Calculation information:
      Number of atoms:                  21
      Number of AO shells:              87
      Number of primitives:            241
      Number of atomic orbitals:       185
      Number of basis functions:       177

      Integral cutoff                 1.00e-12
      Number of threads:                 1

	Batch   1 pq = [       0,    9405] index = [             0,44231715] size =     44231715
	Batch   2 pq = [    9405,   13301] index = [      44231715,88464951] size =     44233236
	Batch   3 pq = [   13301,   15753] index = [      88464951,124086381] size =     35621430
  Task number: 12
  Buffer size: 11059200
  Buffer per thread: 2
  We computed 6425237 shell quartets total.
  Whereas there are 7328706 unique shell quartets.

  ==> DiskJK: Disk-Based J/K Matrices <==

    J tasked:                  Yes
    K tasked:                  Yes
    wK tasked:                  No
    Memory [MiB]:              375
    Schwarz Cutoff:          1E-12

    OpenMP threads:              1

  Minimum eigenvalue in the overlap matrix is 4.2744910915E-03.
  Using Symmetric Orthogonalization.

  SCF Guess: Superposition of Atomic Densities via on-the-fly atomic UHF.

  ==> Iterations <==

                        Total Energy        Delta E     RMS |[F,P]|

   @RHF iter SAD:  -382.90113252174359   -3.82901e+02   0.00000e+00
   @RHF iter   1:  -384.23015658743560   -1.32902e+00   4.39863e-03 DIIS
   @RHF iter   2:  -384.47997603058087   -2.49819e-01   2.38611e-03 DIIS
   @RHF iter   3:  -384.54878903844713   -6.88130e-02   3.82740e-04 DIIS
   @RHF iter   4:  -384.55208667848740   -3.29764e-03   1.53575e-04 DIIS
   @RHF iter   5:  -384.55254824725347   -4.61569e-04   2.23063e-05 DIIS
   @RHF iter   6:  -384.55256299269183   -1.47454e-05   5.25523e-06 DIIS
   @RHF iter   7:  -384.55256378507693   -7.92385e-07   1.50824e-06 DIIS
   @RHF iter   8:  -384.55256385466828   -6.95914e-08   4.16121e-07 DIIS
   @RHF iter   9:  -384.55256386214398   -7.47571e-09   1.65065e-07 DIIS
   @RHF iter  10:  -384.55256386314295   -9.98966e-10   6.95714e-08 DIIS
   @RHF iter  11:  -384.55256386335014   -2.07194e-10   3.15427e-08 DIIS
   @RHF iter  12:  -384.55256386338749   -3.73461e-11   9.13143e-09 DIIS
   @RHF iter  13:  -384.55256386339158   -4.09273e-12   3.55840e-09 DIIS
   @RHF iter  14:  -384.55256386339244   -8.52651e-13   9.68365e-10 DIIS
   @RHF iter  15:  -384.55256386339016    2.27374e-12   3.02604e-10 DIIS
   @RHF iter  16:  -384.55256386339056   -3.97904e-13   1.04013e-10 DIIS
   @RHF iter  17:  -384.55256386339420   -3.63798e-12   4.79200e-11 DIIS
  Energy and wave function converged.

  ==> Post-Iterations <==

    Orbital Energies [Eh]
    ---------------------

    Doubly Occupied:

       1A    -20.267379     2A    -20.261983     3A    -11.116719
       4A    -11.106265     5A    -11.099970     6A    -11.086966
       7A    -11.078503     8A    -11.053141     9A     -1.153599
      10A     -1.041956    11A     -0.935182    12A     -0.874787
      13A     -0.805581    14A     -0.703798    15A     -0.675377
      16A     -0.515980    17A     -0.504183    18A     -0.477064
      19A     -0.458929    20A     -0.435752    21A     -0.431770
      22A     -0.412625    23A     -0.389414    24A     -0.373070
      25A     -0.366246    26A     -0.353765    27A     -0.350038
      28A     -0.343592    29A     -0.321804    30A     -0.302464
      31A     -0.183497    32A     -0.177713    33A     -0.165292

    Virtual:

      34A      0.292411    35A      0.327379    36A      0.335453
      37A      0.344124    38A      0.361535    39A      0.377291
      40A      0.387952    41A      0.393878    42A      0.403453
      43A      0.409610    44A      0.420062    45A      0.452142
      46A      0.473306    47A      0.476420    48A      0.495372
      49A      0.546876    50A      0.560730    51A      0.602014
      52A      0.688869    53A      0.692474    54A      0.702219
      55A      0.729516    56A      0.735265    57A      0.746351
      58A      0.755665    59A      0.796145    60A      0.823800
      61A      0.875241    62A      0.900709    63A      0.925656
      64A      0.959016    65A      0.964619    66A      0.980705
      67A      0.993442    68A      0.999092    69A      1.004359
      70A      1.009428    71A      1.022563    72A      1.026662
      73A      1.033729    74A      1.039598    75A      1.044743
      76A      1.056444    77A      1.061802    78A      1.075890
      79A      1.086919    80A      1.110374    81A      1.121594
      82A      1.127203    83A      1.140406    84A      1.164972
      85A      1.244221    86A      1.244709    87A      1.258973
      88A      1.298025    89A      1.318745    90A      1.358799
      91A      1.405562    92A      1.493019    93A      1.499372
      94A      1.530523    95A      1.552220    96A      1.574078
      97A      1.608133    98A      1.612531    99A      1.629945
     100A      1.654938   101A      1.668738   102A      1.684295
     103A      1.698120   104A      1.723879   105A      1.762240
     106A      1.789091   107A      1.812933   108A      1.824683
     109A      1.850196   110A      1.866212   111A      1.962608
     112A      1.973484   113A      1.995735   114A      2.000789
     115A      2.025933   116A      2.031294   117A      2.040402
     118A      2.055210   119A      2.075826   120A      2.079379
     121A      2.084927   122A      2.087584   123A      2.097818
     124A      2.110362   125A      2.119168   126A      2.124453
     127A      2.145154   128A      2.154562   129A      2.162616
     130A      2.170756   131A      2.188323   132A      2.225359
     133A      2.256834   134A      2.282336   135A      2.309740
     136A      2.355988   137A      2.373358   138A      2.401274
     139A      2.419168   140A      2.442460   141A      2.466019
     142A      2.482774   143A      2.493210   144A      2.533791
     145A      2.614498   146A      2.639498   147A      2.656425
     148A      2.674932   149A      2.705644   150A      2.719486
     151A      2.736294   152A      2.749581   153A      2.754629
     154A      2.820874   155A      2.870356   156A      2.893650
     157A      2.907876   158A      2.924211   159A      2.926654
     160A      2.976068   161A      2.999594   162A      3.036153
     163A      3.049641   164A      3.093821   165A      3.098463
     166A      3.137575   167A      3.196286   168A      3.245841
     169A      3.279769   170A      3.299211   171A      3.363484
     172A      3.627255   173A      3.793612   174A      3.837922
     175A      4.056615   176A      4.093586   177A      4.190845

    Final Occupation by Irrep:
              A
    DOCC [    33 ]

  @RHF Final Energy:  -384.55256386339420

   => Energetics <=

    Nuclear Repulsion Energy =            372.6689500746004455
    One-Electron Energy =               -1274.7942251001350087
    Two-Electron Energy =                 517.5727111621404219
    Total Energy =                       -384.5525638633941981

Computation Completed

Properties will be evaluated at   0.000000,   0.000000,   0.000000 [a0]

Properties computed using the SCF density matrix

  Nuclear Dipole Moment: [e a0]
     X:     0.6905      Y:    -6.7360      Z:   -11.2360

  Electronic Dipole Moment: [e a0]
     X:    -0.7782      Y:     5.0012      Z:     8.7441

  Dipole Moment: [e a0]
     X:    -0.0877      Y:    -1.7348      Z:    -2.4919     Total:     3.0375

  Dipole Moment: [D]
     X:    -0.2229      Y:    -4.4094      Z:    -6.3337     Total:     7.7207

*** tstop() called on ds3 at Mon Apr 27 16:44:20 2020
Module time:
	user time   =      46.53 seconds =       0.78 minutes
	system time =      23.75 seconds =       0.40 minutes
	total time  =         73 seconds =       1.22 minutes
Total time:
	user time   =      46.53 seconds =       0.78 minutes
	system time =      23.75 seconds =       0.40 minutes
	total time  =         73 seconds =       1.22 minutes
                                     G D M A

                                 by Anthony Stone

                           version 2.2.06, 22 June 2011

               Distributed Multipoles from Gaussian wavefunctions

Starting at 16:44:20 on 27 Apr 2020

Using SCF density matrix from file ./SSI/SSI-004LYS-030ASP-1-dimer.test.27812.fchk

                         Distributed Multipole Analysis

Standard DMA

Positions and radii in angstrom
Multipole moments in atomic units, ea_0^k for rank k

C          x =  1.052352  y = -0.757600  z = -2.305859 angstrom
           Maximum rank =  0   Radius =  0.650 angstrom
                   Q00  =  -0.038525

C          x =  2.342352  y = -0.345600  z = -1.604859 angstrom
           Maximum rank =  0   Radius =  0.650 angstrom
                   Q00  =  -0.221924

C          x =  0.293352  y =  0.388400  z = -2.966859 angstrom
           Maximum rank =  0   Radius =  0.650 angstrom
                   Q00  =  -0.260014

H          x =  1.310352  y = -1.497600  z = -3.063859 angstrom
           Maximum rank =  0   Radius =  0.325 angstrom
                   Q00  =  -0.002350

H          x =  0.391352  y = -1.243600  z = -1.589859 angstrom
           Maximum rank =  0   Radius =  0.325 angstrom
                   Q00  =   0.071015

H          x =  2.109352  y =  0.433400  z = -0.874859 angstrom
           Maximum rank =  0   Radius =  0.325 angstrom
                   Q00  =   0.122054

H          x = -0.026648  y =  1.111400  z = -2.215859 angstrom
           Maximum rank =  0   Radius =  0.325 angstrom
                   Q00  =   0.108230

H          x =  0.949352  y =  0.877400  z = -3.688859 angstrom
           Maximum rank =  0   Radius =  0.325 angstrom
                   Q00  =   0.051358

H          x =  3.080282  y =  0.035490  z = -2.326129 angstrom
           Maximum rank =  0   Radius =  0.325 angstrom
                   Q00  =   0.025109

H          x =  2.762072  y = -1.208840  z = -1.067589 angstrom
           Maximum rank =  0   Radius =  0.325 angstrom
                   Q00  =   0.073750

H          x = -0.576178  y = -0.037730  z = -3.488719 angstrom
           Maximum rank =  0   Radius =  0.325 angstrom
                   Q00  =   0.058543

C          x = -1.143648  y = -0.634600  z =  0.740141 angstrom
           Maximum rank =  0   Radius =  0.650 angstrom
                   Q00  =  -0.121686

C          x = -2.124648  y = -1.188600  z =  1.771141 angstrom
           Maximum rank =  0   Radius =  0.650 angstrom
                   Q00  =  -0.203149

C          x = -0.342648  y =  0.531400  z =  1.291141 angstrom
           Maximum rank =  0   Radius =  0.650 angstrom
                   Q00  =   0.982993

O          x = -1.011648  y =  1.494400  z =  1.721141 angstrom
           Maximum rank =  0   Radius =  0.650 angstrom
                   Q00  =  -0.941986

O          x =  0.907352  y =  0.464400  z =  1.342141 angstrom
           Maximum rank =  0   Radius =  0.650 angstrom
                   Q00  =  -0.928948

H          x = -0.466648  y = -1.434600  z =  0.441141 angstrom
           Maximum rank =  0   Radius =  0.325 angstrom
                   Q00  =   0.012078

H          x = -1.693648  y = -0.308600  z = -0.144859 angstrom
           Maximum rank =  0   Radius =  0.325 angstrom
                   Q00  =   0.038456

H          x = -2.848648  y = -0.405600  z =  2.008141 angstrom
           Maximum rank =  0   Radius =  0.325 angstrom
                   Q00  =   0.085032

H          x = -1.580458  y = -1.482960  z =  2.680651 angstrom
           Maximum rank =  0   Radius =  0.325 angstrom
                   Q00  =   0.069814

H          x = -2.673418  y = -2.033480  z =  1.329521 angstrom
           Maximum rank =  0   Radius =  0.325 angstrom
                   Q00  =   0.020149

Total multipoles referred to origin at
           x =   0.000000,  y =    0.000000,  z =    0.000000 angstrom
                   Q00  =  -1.000000

Finished at 16:44:20 on 27 Apr 2020

  DMA results are available in the Python driver through the
	  variable('DMA DISTRIBUTED MULTIPOLES')
  and
	  variable('DMA TOTAL MULTIPOLES')
  commands.

    Psi4 stopped on: Monday, 27 April 2020 04:44PM
    Psi4 wall time for execution: 0:01:13.37

*** Psi4 exiting successfully. Buy a developer a beer!
