                               Psi4 1.3.2 release

  ==> Input File <==

--------------------------------------------------------------------------
import numpy as np
set {scf_type pk
basis cc-pvdz
d_convergence 10
gdma_switch   0
gdma_limit    0
gdma_origin   [ 0.0,  0.0,  0.0 ]
}
molecule test {
    units Angstrom
    0 1
    --
    0 1
    C               -1.133811213556517    -0.630919958071320     0.698677680807914
    C               -2.609811213556517    -0.773919958071320     1.063677680807914
    H               -0.810811213556517     0.399080041928680     0.730677680807914
    H               -0.533811213556517    -1.194919958071320     1.407677680807914
    H               -0.951811213556517    -1.009919958071320    -0.303322319192086
    H               -2.737811213556517    -0.451919958071320     2.098677680807914
    H               -3.233611213556517    -0.143719958071320     0.412777680807914
    H               -2.911411213556517    -1.829119958071320     0.988077680807914
    C                1.500188786443483     1.368080041928680    -0.957322319192086
    C                2.243188786443483     0.041080041928680    -0.812322319192086
    H                0.449188786443483     1.177080041928680    -1.177322319192086
    H                1.566188786443483     1.934080041928680    -0.029322319192086
    H                1.796188786443483    -0.509919958071320     0.016677680807914
    H                3.304588786443483     0.220580041928680    -0.586022319192086
    H                2.120788786443483    -0.570419958071320    -1.718422319192086
    H                1.945238786443484     1.927680041928680    -1.753362319192086

}
e, wfn = energy('scf', return_wfn=True)
gdma(wfn)
dmavals = variable('DMA DISTRIBUTED MULTIPOLES')
charges = np.array(dmavals)
print(charges)
np.save('SSI-219VAL-272ALA-1-dimer.npy', np.array(charges))--------------------------------------------------------------------------

*** tstart() called on ds3
*** at Mon Apr 27 18:31:34 2020

   => Loading Basis Set <=

    Name: CC-PVDZ
    Role: ORBITAL
    Keyword: BASIS
    atoms 1-2, 9-10  entry C          line   138 file /theoryfs2/ds/metcalf/miniconda2/envs/tf2gpu/share/psi4/basis/cc-pvdz.gbs
    atoms 3-8, 11-16 entry H          line    22 file /theoryfs2/ds/metcalf/miniconda2/envs/tf2gpu/share/psi4/basis/cc-pvdz.gbs

         ---------------------------------------------------------
                                   SCF
               by Justin Turney, Rob Parrish, Andy Simmonett
                          and Daniel G. A. Smith
                              RHF Reference
                        1 Threads,    500 MiB Core
         ---------------------------------------------------------

  ==> Geometry <==

    Molecular point group: c1
    Full point group: C1

    Geometry (in Angstrom), charge = 0, multiplicity = 1:

       Center              X                  Y                   Z               Mass
    ------------   -----------------  -----------------  -----------------  -----------------
         C           -1.133811213557    -0.630919958071     0.698677680808    12.000000000000
         C           -2.609811213557    -0.773919958071     1.063677680808    12.000000000000
         H           -0.810811213557     0.399080041929     0.730677680808     1.007825032230
         H           -0.533811213557    -1.194919958071     1.407677680808     1.007825032230
         H           -0.951811213557    -1.009919958071    -0.303322319192     1.007825032230
         H           -2.737811213557    -0.451919958071     2.098677680808     1.007825032230
         H           -3.233611213557    -0.143719958071     0.412777680808     1.007825032230
         H           -2.911411213557    -1.829119958071     0.988077680808     1.007825032230
         C            1.500188786443     1.368080041929    -0.957322319192    12.000000000000
         C            2.243188786443     0.041080041929    -0.812322319192    12.000000000000
         H            0.449188786443     1.177080041929    -1.177322319192     1.007825032230
         H            1.566188786443     1.934080041929    -0.029322319192     1.007825032230
         H            1.796188786443    -0.509919958071     0.016677680808     1.007825032230
         H            3.304588786443     0.220580041929    -0.586022319192     1.007825032230
         H            2.120788786443    -0.570419958071    -1.718422319192     1.007825032230
         H            1.945238786443     1.927680041929    -1.753362319192     1.007825032230

  Running in c1 symmetry.

  Rotational constants: A =      0.51756  B =      0.05318  C =      0.05012 [cm^-1]
  Rotational constants: A =  15516.03479  B =   1594.39178  C =   1502.61683 [MHz]
  Nuclear repulsion =  124.331190838719820

  Charge       = 0
  Multiplicity = 1
  Electrons    = 36
  Nalpha       = 18
  Nbeta        = 18

  ==> Algorithm <==

  SCF Algorithm Type is PK.
  DIIS enabled.
  MOM disabled.
  Fractional occupation disabled.
  Guess Type is SAD.
  Energy threshold   = 1.00e-06
  Density threshold  = 1.00e-10
  Integral threshold = 0.00e+00

  ==> Primary Basis <==

  Basis Set: CC-PVDZ
    Blend: CC-PVDZ
    Number of shells: 60
    Number of basis function: 116
    Number of Cartesian functions: 120
    Spherical Harmonics?: true
    Max angular momentum: 2

  ==> Pre-Iterations <==

   -------------------------------------------------------
    Irrep   Nso     Nmo     Nalpha   Nbeta   Ndocc  Nsocc
   -------------------------------------------------------
     A        116     116       0       0       0       0
   -------------------------------------------------------
    Total     116     116      18      18      18       0
   -------------------------------------------------------

  ==> Integral Setup <==

  Using integral reordering PK algorithm.
  Sizing the integral batches needed.
  Building batch lookup table.
   Calculation information:
      Number of atoms:                  16
      Number of AO shells:              60
      Number of primitives:            148
      Number of atomic orbitals:       120
      Number of basis functions:       116

      Integral cutoff                 1.00e-12
      Number of threads:                 1

	Batch   1 pq = [       0,    6786] index = [             0,23028291] size =     23028291
  Task number: 3
  Buffer size: 11059200
  Buffer per thread: 2
  We computed 1481932 shell quartets total.
  Whereas there are 1675365 unique shell quartets.

  ==> DiskJK: Disk-Based J/K Matrices <==

    J tasked:                  Yes
    K tasked:                  Yes
    wK tasked:                  No
    Memory [MiB]:              375
    Schwarz Cutoff:          1E-12

    OpenMP threads:              1

  Minimum eigenvalue in the overlap matrix is 6.4260401095E-03.
  Using Symmetric Orthogonalization.

  SCF Guess: Superposition of Atomic Densities via on-the-fly atomic UHF.

  ==> Iterations <==

                        Total Energy        Delta E     RMS |[F,P]|

   @RHF iter SAD:  -157.38305444886740   -1.57383e+02   0.00000e+00
   @RHF iter   1:  -158.30615110653559   -9.23097e-01   4.22458e-03 DIIS
   @RHF iter   2:  -158.44040398640848   -1.34253e-01   1.78898e-03 DIIS
   @RHF iter   3:  -158.46366441894622   -2.32604e-02   3.50461e-04 DIIS
   @RHF iter   4:  -158.46550552461176   -1.84111e-03   3.88619e-05 DIIS
   @RHF iter   5:  -158.46552942573186   -2.39011e-05   6.44527e-06 DIIS
   @RHF iter   6:  -158.46553004767401   -6.21942e-07   1.12072e-06 DIIS
   @RHF iter   7:  -158.46553006011834   -1.24443e-08   3.17322e-07 DIIS
   @RHF iter   8:  -158.46553006108741   -9.69067e-10   5.07360e-08 DIIS
   @RHF iter   9:  -158.46553006113189   -4.44800e-11   1.12437e-08 DIIS
   @RHF iter  10:  -158.46553006113390   -2.01794e-12   2.71720e-09 DIIS
   @RHF iter  11:  -158.46553006113388    2.84217e-14   4.86861e-10 DIIS
   @RHF iter  12:  -158.46553006113410   -2.27374e-13   1.53838e-10 DIIS
   @RHF iter  13:  -158.46553006113402    8.52651e-14   3.26416e-11 DIIS
  Energy and wave function converged.

  ==> Post-Iterations <==

    Orbital Energies [Eh]
    ---------------------

    Doubly Occupied:

       1A    -11.219937     2A    -11.217374     3A    -11.215075
       4A    -11.213377     5A     -1.021252     6A     -1.017228
       7A     -0.838868     8A     -0.835803     9A     -0.604684
      10A     -0.599892    11A     -0.596367    12A     -0.595802
      13A     -0.502334    14A     -0.496910    15A     -0.492499
      16A     -0.486080    17A     -0.484341    18A     -0.480697

    Virtual:

      19A      0.175389    20A      0.196264    21A      0.228097
      22A      0.231476    23A      0.244449    24A      0.264121
      25A      0.266172    26A      0.275107    27A      0.281405
      28A      0.294142    29A      0.312407    30A      0.325189
      31A      0.390364    32A      0.412421    33A      0.572686
      34A      0.593388    35A      0.603399    36A      0.604839
      37A      0.607003    38A      0.663414    39A      0.665875
      40A      0.688075    41A      0.721444    42A      0.777425
      43A      0.847815    44A      0.858015    45A      0.883450
      46A      0.890800    47A      0.894676    48A      0.899424
      49A      0.907773    50A      0.912192    51A      0.917734
      52A      0.934818    53A      0.949929    54A      0.967566
      55A      0.976372    56A      1.017537    57A      1.125934
      58A      1.127573    59A      1.129701    60A      1.156957
      61A      1.236540    62A      1.252084    63A      1.464942
      64A      1.468774    65A      1.480179    66A      1.497720
      67A      1.565940    68A      1.592736    69A      1.678374
      70A      1.682868    71A      1.691882    72A      1.704786
      73A      1.851009    74A      1.866976    75A      1.880933
      76A      1.887018    77A      1.892307    78A      1.916167
      79A      1.938999    80A      1.941800    81A      1.948996
      82A      1.952607    83A      1.955490    84A      1.963505
      85A      1.971867    86A      1.973472    87A      1.999733
      88A      2.064443    89A      2.089774    90A      2.107239
      91A      2.119197    92A      2.132081    93A      2.289911
      94A      2.310666    95A      2.312414    96A      2.345117
      97A      2.451848    98A      2.459512    99A      2.473994
     100A      2.474891   101A      2.560232   102A      2.573799
     103A      2.577643   104A      2.593381   105A      2.760934
     106A      2.769727   107A      2.801081   108A      2.809607
     109A      2.849483   110A      2.859314   111A      2.861564
     112A      2.865911   113A      2.938519   114A      2.965802
     115A      2.972793   116A      2.989885

    Final Occupation by Irrep:
              A
    DOCC [    18 ]

  @RHF Final Energy:  -158.46553006113402

   => Energetics <=

    Nuclear Repulsion Energy =            124.3311908387198201
    One-Electron Energy =                -457.7564054670508540
    Two-Electron Energy =                 174.9596845671970300
    Total Energy =                       -158.4655300611340181

Computation Completed

Properties will be evaluated at   0.000000,   0.000000,   0.000000 [a0]

Properties computed using the SCF density matrix

  Nuclear Dipole Moment: [e a0]
     X:     0.0027      Y:    -0.0482      Z:     0.0814

  Electronic Dipole Moment: [e a0]
     X:    -0.0085      Y:     0.0526      Z:    -0.0667

  Dipole Moment: [e a0]
     X:    -0.0058      Y:     0.0044      Z:     0.0146     Total:     0.0163

  Dipole Moment: [D]
     X:    -0.0146      Y:     0.0111      Z:     0.0372     Total:     0.0415

*** tstop() called on ds3 at Mon Apr 27 18:31:44 2020
Module time:
	user time   =       7.25 seconds =       0.12 minutes
	system time =       2.76 seconds =       0.05 minutes
	total time  =         10 seconds =       0.17 minutes
Total time:
	user time   =       7.25 seconds =       0.12 minutes
	system time =       2.76 seconds =       0.05 minutes
	total time  =         10 seconds =       0.17 minutes
                                     G D M A

                                 by Anthony Stone

                           version 2.2.06, 22 June 2011

               Distributed Multipoles from Gaussian wavefunctions

Starting at 18:31:44 on 27 Apr 2020

Using SCF density matrix from file ./SSI/SSI-219VAL-272ALA-1-dimer.test.23840.fchk

                         Distributed Multipole Analysis

Standard DMA

Positions and radii in angstrom
Multipole moments in atomic units, ea_0^k for rank k

C          x = -1.133811  y = -0.630920  z =  0.698678 angstrom
           Maximum rank =  0   Radius =  0.650 angstrom
                   Q00  =  -0.242023

C          x = -2.609811  y = -0.773920  z =  1.063678 angstrom
           Maximum rank =  0   Radius =  0.650 angstrom
                   Q00  =  -0.233795

H          x = -0.810811  y =  0.399080  z =  0.730678 angstrom
           Maximum rank =  0   Radius =  0.325 angstrom
                   Q00  =   0.082818

H          x = -0.533811  y = -1.194920  z =  1.407678 angstrom
           Maximum rank =  0   Radius =  0.325 angstrom
                   Q00  =   0.077383

H          x = -0.951811  y = -1.009920  z = -0.303322 angstrom
           Maximum rank =  0   Radius =  0.325 angstrom
                   Q00  =   0.077303

H          x = -2.737811  y = -0.451920  z =  2.098678 angstrom
           Maximum rank =  0   Radius =  0.325 angstrom
                   Q00  =   0.078473

H          x = -3.233611  y = -0.143720  z =  0.412778 angstrom
           Maximum rank =  0   Radius =  0.325 angstrom
                   Q00  =   0.080458

H          x = -2.911411  y = -1.829120  z =  0.988078 angstrom
           Maximum rank =  0   Radius =  0.325 angstrom
                   Q00  =   0.080026

C          x =  1.500189  y =  1.368080  z = -0.957322 angstrom
           Maximum rank =  0   Radius =  0.650 angstrom
                   Q00  =  -0.235943

C          x =  2.243189  y =  0.041080  z = -0.812322 angstrom
           Maximum rank =  0   Radius =  0.650 angstrom
                   Q00  =  -0.239423

H          x =  0.449189  y =  1.177080  z = -1.177322 angstrom
           Maximum rank =  0   Radius =  0.325 angstrom
                   Q00  =   0.079680

H          x =  1.566189  y =  1.934080  z = -0.029322 angstrom
           Maximum rank =  0   Radius =  0.325 angstrom
                   Q00  =   0.078019

H          x =  1.796189  y = -0.509920  z =  0.016678 angstrom
           Maximum rank =  0   Radius =  0.325 angstrom
                   Q00  =   0.079744

H          x =  3.304589  y =  0.220580  z = -0.586022 angstrom
           Maximum rank =  0   Radius =  0.325 angstrom
                   Q00  =   0.078729

H          x =  2.120789  y = -0.570420  z = -1.718422 angstrom
           Maximum rank =  0   Radius =  0.325 angstrom
                   Q00  =   0.078131

H          x =  1.945239  y =  1.927680  z = -1.753362 angstrom
           Maximum rank =  0   Radius =  0.325 angstrom
                   Q00  =   0.080418

Total multipoles referred to origin at
           x =   0.000000,  y =    0.000000,  z =    0.000000 angstrom
                   Q00  =  -0.000000

Finished at 18:31:44 on 27 Apr 2020

  DMA results are available in the Python driver through the
	  variable('DMA DISTRIBUTED MULTIPOLES')
  and
	  variable('DMA TOTAL MULTIPOLES')
  commands.

    Psi4 stopped on: Monday, 27 April 2020 06:31PM
    Psi4 wall time for execution: 0:00:09.85

*** Psi4 exiting successfully. Buy a developer a beer!
