                               Psi4 1.3.2 release

  ==> Input File <==

--------------------------------------------------------------------------
import numpy as np
set {scf_type pk
basis cc-pvdz
d_convergence 10
gdma_switch   0
gdma_limit    0
gdma_origin   [ 0.0,  0.0,  0.0 ]
}
molecule test {
    units Angstrom
    0 1
    --
    0 1
    C                0.740203664038429    -0.530296460454644    -2.923563578431601
    C               -0.900796335961571    -0.671296460454645     0.592436421568399
    C               -0.704796335961571    -0.418296460454644    -0.791563578431601
    C                0.087203664038429    -1.365296460454644     1.319436421568399
    C                0.457203664038429    -0.851296460454644    -1.448563578431601
    C                1.246203664038430    -1.800296460454645     0.669436421568399
    C                1.419203664038430    -1.546296460454645    -0.704563578431601
    H               -1.799796335961571    -0.333296460454644     1.097436421568399
    H               -1.452796335961571     0.118703539545356    -1.359563578431601
    H               -0.042796335961571    -1.563296460454644     2.375436421568399
    H                2.008203664038429    -2.326296460454644     1.224436421568399
    H                1.557203664038429    -1.179296460454644    -3.245563578431601
    H                1.087203664038429     0.504703539545356    -2.963563578431601
    H                2.313203664038429    -1.890296460454645    -1.208563578431601
    H               -0.098266335961571    -0.699796460454644    -3.615103578431601
    C               -1.700796335961571     2.849703539545355     1.217436421568399
    C               -0.412796335961571     3.381703539545356     1.924436421568399
    H               -1.434796335961571     2.375703539545355     0.268436421568399
    H               -2.201796335961571     2.115703539545356     1.851436421568399
    H               -2.390796335961571     3.671703539545356     1.018436421568399
    H               -0.686796335961571     3.850703539545356     2.869436421568399
    H                0.099703664038429     4.125103539545356     1.296146421568399
    H                0.293833664038429     2.561303539545356     2.118506421568399

}
e, wfn = energy('scf', return_wfn=True)
gdma(wfn)
dmavals = variable('DMA DISTRIBUTED MULTIPOLES')
charges = np.array(dmavals)
print(charges)
np.save('SSI-110PHE-226LEU-1-dimer.npy', np.array(charges))--------------------------------------------------------------------------

*** tstart() called on ds3
*** at Mon Apr 27 18:54:59 2020

   => Loading Basis Set <=

    Name: CC-PVDZ
    Role: ORBITAL
    Keyword: BASIS
    atoms 1-7, 16-17  entry C          line   138 file /theoryfs2/ds/metcalf/miniconda2/envs/tf2gpu/share/psi4/basis/cc-pvdz.gbs
    atoms 8-15, 18-23 entry H          line    22 file /theoryfs2/ds/metcalf/miniconda2/envs/tf2gpu/share/psi4/basis/cc-pvdz.gbs

         ---------------------------------------------------------
                                   SCF
               by Justin Turney, Rob Parrish, Andy Simmonett
                          and Daniel G. A. Smith
                              RHF Reference
                        1 Threads,    500 MiB Core
         ---------------------------------------------------------

  ==> Geometry <==

    Molecular point group: c1
    Full point group: C1

    Geometry (in Angstrom), charge = 0, multiplicity = 1:

       Center              X                  Y                   Z               Mass
    ------------   -----------------  -----------------  -----------------  -----------------
         C            0.740203664038    -0.530296460455    -2.923563578432    12.000000000000
         C           -0.900796335962    -0.671296460455     0.592436421568    12.000000000000
         C           -0.704796335962    -0.418296460455    -0.791563578432    12.000000000000
         C            0.087203664038    -1.365296460455     1.319436421568    12.000000000000
         C            0.457203664038    -0.851296460455    -1.448563578432    12.000000000000
         C            1.246203664038    -1.800296460455     0.669436421568    12.000000000000
         C            1.419203664038    -1.546296460455    -0.704563578432    12.000000000000
         H           -1.799796335962    -0.333296460455     1.097436421568     1.007825032230
         H           -1.452796335962     0.118703539545    -1.359563578432     1.007825032230
         H           -0.042796335962    -1.563296460455     2.375436421568     1.007825032230
         H            2.008203664038    -2.326296460455     1.224436421568     1.007825032230
         H            1.557203664038    -1.179296460455    -3.245563578432     1.007825032230
         H            1.087203664038     0.504703539545    -2.963563578432     1.007825032230
         H            2.313203664038    -1.890296460455    -1.208563578432     1.007825032230
         H           -0.098266335962    -0.699796460455    -3.615103578432     1.007825032230
         C           -1.700796335962     2.849703539545     1.217436421568    12.000000000000
         C           -0.412796335962     3.381703539545     1.924436421568    12.000000000000
         H           -1.434796335962     2.375703539545     0.268436421568     1.007825032230
         H           -2.201796335962     2.115703539545     1.851436421568     1.007825032230
         H           -2.390796335962     3.671703539545     1.018436421568     1.007825032230
         H           -0.686796335962     3.850703539545     2.869436421568     1.007825032230
         H            0.099703664038     4.125103539545     1.296146421568     1.007825032230
         H            0.293833664038     2.561303539545     2.118506421568     1.007825032230

  Running in c1 symmetry.

  Rotational constants: A =      0.06588  B =      0.02539  C =      0.02138 [cm^-1]
  Rotational constants: A =   1975.11602  B =    761.03561  C =    641.08703 [MHz]
  Nuclear repulsion =  403.496123512717531

  Charge       = 0
  Multiplicity = 1
  Electrons    = 68
  Nalpha       = 34
  Nbeta        = 34

  ==> Algorithm <==

  SCF Algorithm Type is PK.
  DIIS enabled.
  MOM disabled.
  Fractional occupation disabled.
  Guess Type is SAD.
  Energy threshold   = 1.00e-06
  Density threshold  = 1.00e-10
  Integral threshold = 0.00e+00

  ==> Primary Basis <==

  Basis Set: CC-PVDZ
    Blend: CC-PVDZ
    Number of shells: 96
    Number of basis function: 196
    Number of Cartesian functions: 205
    Spherical Harmonics?: true
    Max angular momentum: 2

  ==> Pre-Iterations <==

   -------------------------------------------------------
    Irrep   Nso     Nmo     Nalpha   Nbeta   Ndocc  Nsocc
   -------------------------------------------------------
     A        196     196       0       0       0       0
   -------------------------------------------------------
    Total     196     196      34      34      34       0
   -------------------------------------------------------

  ==> Integral Setup <==

  Using integral reordering PK algorithm.
  Sizing the integral batches needed.
  Building batch lookup table.
   Calculation information:
      Number of atoms:                  23
      Number of AO shells:              96
      Number of primitives:            268
      Number of atomic orbitals:       205
      Number of basis functions:       196

      Integral cutoff                 1.00e-12
      Number of threads:                 1

	Batch   1 pq = [       0,    9405] index = [             0,44231715] size =     44231715
	Batch   2 pq = [    9405,   13301] index = [      44231715,88464951] size =     44233236
	Batch   3 pq = [   13301,   16290] index = [      88464951,132690195] size =     44225244
	Batch   4 pq = [   16290,   18810] index = [     132690195,176917455] size =     44227260
	Batch   5 pq = [   18810,   19306] index = [     176917455,186370471] size =      9453016
  Task number: 17
  Buffer size: 11059200
  Buffer per thread: 2
  We computed 9379543 shell quartets total.
  Whereas there are 10841496 unique shell quartets.

  ==> DiskJK: Disk-Based J/K Matrices <==

    J tasked:                  Yes
    K tasked:                  Yes
    wK tasked:                  No
    Memory [MiB]:              375
    Schwarz Cutoff:          1E-12

    OpenMP threads:              1

  Minimum eigenvalue in the overlap matrix is 3.3488262294E-04.
  Using Symmetric Orthogonalization.

  SCF Guess: Superposition of Atomic Densities via on-the-fly atomic UHF.

  ==> Iterations <==

                        Total Energy        Delta E     RMS |[F,P]|

   @RHF iter SAD:  -347.59928374531768   -3.47599e+02   0.00000e+00
   @RHF iter   1:  -348.77459502745108   -1.17531e+00   2.81172e-03 DIIS
   @RHF iter   2:  -348.95944679894041   -1.84852e-01   1.15189e-03 DIIS
   @RHF iter   3:  -348.98748381386247   -2.80370e-02   2.53652e-04 DIIS
   @RHF iter   4:  -348.98989290476334   -2.40909e-03   4.85231e-05 DIIS
   @RHF iter   5:  -348.98995643303869   -6.35283e-05   1.67009e-05 DIIS
   @RHF iter   6:  -348.98996323739783   -6.80436e-06   4.49887e-06 DIIS
   @RHF iter   7:  -348.98996379622037   -5.58823e-07   1.22127e-06 DIIS
   @RHF iter   8:  -348.98996384072422   -4.45038e-08   2.60254e-07 DIIS
   @RHF iter   9:  -348.98996384402182   -3.29760e-09   9.91596e-08 DIIS
   @RHF iter  10:  -348.98996384447190   -4.50086e-10   3.98256e-08 DIIS
   @RHF iter  11:  -348.98996384460338   -1.31479e-10   1.75899e-08 DIIS
   @RHF iter  12:  -348.98996384463049   -2.71143e-11   9.70892e-09 DIIS
   @RHF iter  13:  -348.98996384464130   -1.08002e-11   3.86983e-09 DIIS
   @RHF iter  14:  -348.98996384464203   -7.38964e-13   1.10187e-09 DIIS
   @RHF iter  15:  -348.98996384464056    1.47793e-12   3.58092e-10 DIIS
   @RHF iter  16:  -348.98996384464044    1.13687e-13   1.08101e-10 DIIS
   @RHF iter  17:  -348.98996384464255   -2.10321e-12   4.47141e-11 DIIS
  Energy and wave function converged.

  ==> Post-Iterations <==

    Orbital Energies [Eh]
    ---------------------

    Doubly Occupied:

       1A    -11.245839     2A    -11.242574     3A    -11.238814
       4A    -11.236328     5A    -11.235748     6A    -11.234373
       7A    -11.233721     8A    -11.218030     9A    -11.217289
      10A     -1.143799    11A     -1.038984    12A     -1.006361
      13A     -1.003382    14A     -0.929950    15A     -0.836848
      16A     -0.824139    17A     -0.791924    18A     -0.687519
      19A     -0.632174    20A     -0.624302    21A     -0.591061
      22A     -0.588669    23A     -0.579021    24A     -0.577111
      25A     -0.561118    26A     -0.533605    27A     -0.491684
      28A     -0.487671    29A     -0.486348    30A     -0.482017
      31A     -0.480600    32A     -0.479502    33A     -0.327117
      34A     -0.322637

    Virtual:

      35A      0.130379    36A      0.139038    37A      0.175736
      38A      0.194236    39A      0.203998    40A      0.216205
      41A      0.235271    42A      0.239787    43A      0.254481
      44A      0.259032    45A      0.263696    46A      0.274668
      47A      0.283719    48A      0.293960    49A      0.306485
      50A      0.331001    51A      0.361786    52A      0.373630
      53A      0.389489    54A      0.450275    55A      0.457261
      56A      0.470695    57A      0.491100    58A      0.563523
      59A      0.580616    60A      0.596490    61A      0.600377
      62A      0.623671    63A      0.634730    64A      0.668415
      65A      0.673215    66A      0.690084    67A      0.695106
      68A      0.706661    69A      0.719063    70A      0.730744
      71A      0.739427    72A      0.745242    73A      0.749729
      74A      0.771955    75A      0.787962    76A      0.800965
      77A      0.828970    78A      0.841946    79A      0.856251
      80A      0.867697    81A      0.875927    82A      0.881455
      83A      0.889748    84A      0.893689    85A      0.898386
      86A      0.905468    87A      0.914425    88A      0.919878
      89A      0.925928    90A      0.938768    91A      0.947365
      92A      0.972631    93A      0.984882    94A      0.999375
      95A      1.019457    96A      1.056101    97A      1.108115
      98A      1.122667    99A      1.127473   100A      1.144748
     101A      1.149433   102A      1.157598   103A      1.187831
     104A      1.215388   105A      1.231681   106A      1.237874
     107A      1.246892   108A      1.269991   109A      1.291655
     110A      1.297361   111A      1.314731   112A      1.322269
     113A      1.410320   114A      1.467695   115A      1.476744
     116A      1.495091   117A      1.519330   118A      1.543424
     119A      1.588576   120A      1.607211   121A      1.662699
     122A      1.686451   123A      1.693616   124A      1.699474
     125A      1.733516   126A      1.740041   127A      1.764352
     128A      1.785967   129A      1.802686   130A      1.849044
     131A      1.865424   132A      1.868924   133A      1.877584
     134A      1.880017   135A      1.892407   136A      1.906360
     137A      1.917732   138A      1.925186   139A      1.927148
     140A      1.934856   141A      1.940222   142A      1.942954
     143A      1.946692   144A      1.955949   145A      1.959467
     146A      1.963088   147A      1.990348   148A      1.996693
     149A      2.024198   150A      2.060484   151A      2.062814
     152A      2.095390   153A      2.104036   154A      2.111254
     155A      2.119527   156A      2.140058   157A      2.152619
     158A      2.153757   159A      2.173393   160A      2.253039
     161A      2.258965   162A      2.281266   163A      2.291540
     164A      2.302199   165A      2.308784   166A      2.321834
     167A      2.326518   168A      2.431529   169A      2.451537
     170A      2.460977   171A      2.466472   172A      2.482160
     173A      2.517450   174A      2.552984   175A      2.564813
     176A      2.617279   177A      2.717303   178A      2.737362
     179A      2.759243   180A      2.764920   181A      2.769777
     182A      2.790127   183A      2.800387   184A      2.829165
     185A      2.846027   186A      2.852710   187A      2.858737
     188A      2.946200   189A      2.954182   190A      2.961592
     191A      2.979942   192A      3.016491   193A      3.128332
     194A      3.159279   195A      3.268683   196A      3.905342

    Final Occupation by Irrep:
              A
    DOCC [    34 ]

  @RHF Final Energy:  -348.98996384464255

   => Energetics <=

    Nuclear Repulsion Energy =            403.4961235127175314
    One-Electron Energy =               -1269.7516575381464463
    Two-Electron Energy =                 517.2655701807864261
    Total Energy =                       -348.9899638446424888

Computation Completed

Properties will be evaluated at   0.000000,   0.000000,   0.000000 [a0]

Properties computed using the SCF density matrix

  Nuclear Dipole Moment: [e a0]
     X:    -2.5766      Y:    10.6228      Z:     1.6193

  Electronic Dipole Moment: [e a0]
     X:     2.6396      Y:   -10.6132      Z:    -1.7586

  Dipole Moment: [e a0]
     X:     0.0630      Y:     0.0096      Z:    -0.1392     Total:     0.1531

  Dipole Moment: [D]
     X:     0.1602      Y:     0.0244      Z:    -0.3539     Total:     0.3892

*** tstop() called on ds3 at Mon Apr 27 18:56:29 2020
Module time:
	user time   =      64.39 seconds =       1.07 minutes
	system time =      28.85 seconds =       0.48 minutes
	total time  =         90 seconds =       1.50 minutes
Total time:
	user time   =      64.39 seconds =       1.07 minutes
	system time =      28.85 seconds =       0.48 minutes
	total time  =         90 seconds =       1.50 minutes
                                     G D M A

                                 by Anthony Stone

                           version 2.2.06, 22 June 2011

               Distributed Multipoles from Gaussian wavefunctions

Starting at 18:56:29 on 27 Apr 2020

Using SCF density matrix from file ./SSI/SSI-110PHE-226LEU-1-dimer.test.31242.fchk

                         Distributed Multipole Analysis

Standard DMA

Positions and radii in angstrom
Multipole moments in atomic units, ea_0^k for rank k

C          x =  0.740204  y = -0.530296  z = -2.923564 angstrom
           Maximum rank =  0   Radius =  0.650 angstrom
                   Q00  =  -0.208448

C          x = -0.900796  y = -0.671296  z =  0.592436 angstrom
           Maximum rank =  0   Radius =  0.650 angstrom
                   Q00  =  -0.077953

C          x = -0.704796  y = -0.418296  z = -0.791564 angstrom
           Maximum rank =  0   Radius =  0.650 angstrom
                   Q00  =  -0.063516

C          x =  0.087204  y = -1.365296  z =  1.319436 angstrom
           Maximum rank =  0   Radius =  0.650 angstrom
                   Q00  =  -0.090075

C          x =  0.457204  y = -0.851296  z = -1.448564 angstrom
           Maximum rank =  0   Radius =  0.650 angstrom
                   Q00  =  -0.109216

C          x =  1.246204  y = -1.800296  z =  0.669436 angstrom
           Maximum rank =  0   Radius =  0.650 angstrom
                   Q00  =  -0.068320

C          x =  1.419204  y = -1.546296  z = -0.704564 angstrom
           Maximum rank =  0   Radius =  0.650 angstrom
                   Q00  =  -0.017484

H          x = -1.799796  y = -0.333296  z =  1.097436 angstrom
           Maximum rank =  0   Radius =  0.325 angstrom
                   Q00  =   0.072684

H          x = -1.452796  y =  0.118704  z = -1.359564 angstrom
           Maximum rank =  0   Radius =  0.325 angstrom
                   Q00  =   0.060820

H          x = -0.042796  y = -1.563296  z =  2.375436 angstrom
           Maximum rank =  0   Radius =  0.325 angstrom
                   Q00  =   0.065182

H          x =  2.008204  y = -2.326296  z =  1.224436 angstrom
           Maximum rank =  0   Radius =  0.325 angstrom
                   Q00  =   0.067739

H          x =  1.557204  y = -1.179296  z = -3.245564 angstrom
           Maximum rank =  0   Radius =  0.325 angstrom
                   Q00  =   0.096890

H          x =  1.087204  y =  0.504704  z = -2.963564 angstrom
           Maximum rank =  0   Radius =  0.325 angstrom
                   Q00  =   0.107116

H          x =  2.313204  y = -1.890296  z = -1.208564 angstrom
           Maximum rank =  0   Radius =  0.325 angstrom
                   Q00  =   0.059503

H          x = -0.098266  y = -0.699796  z = -3.615104 angstrom
           Maximum rank =  0   Radius =  0.325 angstrom
                   Q00  =   0.105587

C          x = -1.700796  y =  2.849704  z =  1.217436 angstrom
           Maximum rank =  0   Radius =  0.650 angstrom
                   Q00  =  -0.245243

C          x = -0.412796  y =  3.381704  z =  1.924436 angstrom
           Maximum rank =  0   Radius =  0.650 angstrom
                   Q00  =  -0.245610

H          x = -1.434796  y =  2.375704  z =  0.268436 angstrom
           Maximum rank =  0   Radius =  0.325 angstrom
                   Q00  =   0.086559

H          x = -2.201796  y =  2.115704  z =  1.851436 angstrom
           Maximum rank =  0   Radius =  0.325 angstrom
                   Q00  =   0.078001

H          x = -2.390796  y =  3.671704  z =  1.018436 angstrom
           Maximum rank =  0   Radius =  0.325 angstrom
                   Q00  =   0.079121

H          x = -0.686796  y =  3.850704  z =  2.869436 angstrom
           Maximum rank =  0   Radius =  0.325 angstrom
                   Q00  =   0.079056

H          x =  0.099704  y =  4.125104  z =  1.296146 angstrom
           Maximum rank =  0   Radius =  0.325 angstrom
                   Q00  =   0.080439

H          x =  0.293834  y =  2.561304  z =  2.118506 angstrom
           Maximum rank =  0   Radius =  0.325 angstrom
                   Q00  =   0.087167

Total multipoles referred to origin at
           x =   0.000000,  y =    0.000000,  z =    0.000000 angstrom
                   Q00  =  -0.000000

Finished at 18:56:29 on 27 Apr 2020

  DMA results are available in the Python driver through the
	  variable('DMA DISTRIBUTED MULTIPOLES')
  and
	  variable('DMA TOTAL MULTIPOLES')
  commands.

    Psi4 stopped on: Monday, 27 April 2020 06:56PM
    Psi4 wall time for execution: 0:01:30.19

*** Psi4 exiting successfully. Buy a developer a beer!
