                               Psi4 1.3.2 release

  ==> Input File <==

--------------------------------------------------------------------------
import numpy as np
set {scf_type pk
basis cc-pvdz
d_convergence 10
gdma_switch   0
gdma_limit    0
gdma_origin   [ 0.0,  0.0,  0.0 ]
}
molecule test {
    units Angstrom
    0 1
    --
    0 1
    C               -3.613351215831012    -0.118225418337698     0.112199310575810
    C               -1.006351215831012     0.279774581662302    -0.344800689424190
    C               -2.378351215831012     0.117774581662302    -0.776800689424190
    C               -0.227351215831012     0.457774581662302    -1.510800689424190
    C               -2.339351215831011     0.211774581662302    -2.151800689424189
    C                1.066648784168988     0.543774581662302     0.941199310575810
    C                1.774648784168988     0.691774581662302    -0.233800689424190
    C               -0.341351215831012     0.285774581662302     0.902199310575810
    C                1.133648784168988     0.673774581662302    -1.461800689424190
    N               -1.068351215831012     0.445774581662302    -2.581800689424189
    H                1.575648784168988     0.625774581662302     1.887199310575810
    H                2.840648784168988     0.859774581662302    -0.193800689424190
    H               -0.907351215831012     0.134774581662302     1.806199310575810
    H                1.691648784168988     0.817774581662302    -2.375800689424190
    H               -4.425351215831011     0.512774581662302    -0.239800689424190
    H               -3.372351215831012     0.177774581662302     1.134199310575810
    H               -3.208351215831012     0.121774581662302    -2.793800689424190
    H               -0.786351215831012     0.489774581662302    -3.558800689424189
    H               -3.975249215831012    -1.156905418337698     0.098659310575810
    C                2.854648784168988    -1.009225418337698     3.570199310575811
    C                3.587648784168988    -2.092225418337698     2.738199310575810
    H                3.027648784168989    -1.178225418337698     4.634199310575810
    H                3.245648784168988    -0.025225418337698     3.305199310575810
    H                1.783648784168988    -1.030225418337698     3.374199310575811
    H                3.343648784168988    -1.922225418337698     1.689199310575810
    H                3.242917784168988    -3.096565418337698     3.025359310575810
    H                4.681575784168988    -2.030855418337698     2.835959310575811

}
e, wfn = energy('scf', return_wfn=True)
gdma(wfn)
dmavals = variable('DMA DISTRIBUTED MULTIPOLES')
charges = np.array(dmavals)
print(charges)
np.save('SSI-002TRP-012VAL-1-dimer.npy', np.array(charges))--------------------------------------------------------------------------

*** tstart() called on ds3
*** at Tue Apr 28 01:19:57 2020

   => Loading Basis Set <=

    Name: CC-PVDZ
    Role: ORBITAL
    Keyword: BASIS
    atoms 1-9, 20-21   entry C          line   138 file /theoryfs2/ds/metcalf/miniconda2/envs/tf2gpu/share/psi4/basis/cc-pvdz.gbs
    atoms 10           entry N          line   168 file /theoryfs2/ds/metcalf/miniconda2/envs/tf2gpu/share/psi4/basis/cc-pvdz.gbs
    atoms 11-19, 22-27 entry H          line    22 file /theoryfs2/ds/metcalf/miniconda2/envs/tf2gpu/share/psi4/basis/cc-pvdz.gbs

         ---------------------------------------------------------
                                   SCF
               by Justin Turney, Rob Parrish, Andy Simmonett
                          and Daniel G. A. Smith
                              RHF Reference
                        1 Threads,    500 MiB Core
         ---------------------------------------------------------

  ==> Geometry <==

    Molecular point group: c1
    Full point group: C1

    Geometry (in Angstrom), charge = 0, multiplicity = 1:

       Center              X                  Y                   Z               Mass
    ------------   -----------------  -----------------  -----------------  -----------------
         C           -3.613351215831    -0.118225418338     0.112199310576    12.000000000000
         C           -1.006351215831     0.279774581662    -0.344800689424    12.000000000000
         C           -2.378351215831     0.117774581662    -0.776800689424    12.000000000000
         C           -0.227351215831     0.457774581662    -1.510800689424    12.000000000000
         C           -2.339351215831     0.211774581662    -2.151800689424    12.000000000000
         C            1.066648784169     0.543774581662     0.941199310576    12.000000000000
         C            1.774648784169     0.691774581662    -0.233800689424    12.000000000000
         C           -0.341351215831     0.285774581662     0.902199310576    12.000000000000
         C            1.133648784169     0.673774581662    -1.461800689424    12.000000000000
         N           -1.068351215831     0.445774581662    -2.581800689424    14.003074004430
         H            1.575648784169     0.625774581662     1.887199310576     1.007825032230
         H            2.840648784169     0.859774581662    -0.193800689424     1.007825032230
         H           -0.907351215831     0.134774581662     1.806199310576     1.007825032230
         H            1.691648784169     0.817774581662    -2.375800689424     1.007825032230
         H           -4.425351215831     0.512774581662    -0.239800689424     1.007825032230
         H           -3.372351215831     0.177774581662     1.134199310576     1.007825032230
         H           -3.208351215831     0.121774581662    -2.793800689424     1.007825032230
         H           -0.786351215831     0.489774581662    -3.558800689424     1.007825032230
         H           -3.975249215831    -1.156905418338     0.098659310576     1.007825032230
         C            2.854648784169    -1.009225418338     3.570199310576    12.000000000000
         C            3.587648784169    -2.092225418338     2.738199310576    12.000000000000
         H            3.027648784169    -1.178225418338     4.634199310576     1.007825032230
         H            3.245648784169    -0.025225418338     3.305199310576     1.007825032230
         H            1.783648784169    -1.030225418338     3.374199310576     1.007825032230
         H            3.343648784169    -1.922225418338     1.689199310576     1.007825032230
         H            3.242917784169    -3.096565418338     3.025359310576     1.007825032230
         H            4.681575784169    -2.030855418338     2.835959310576     1.007825032230

  Running in c1 symmetry.

  Rotational constants: A =      0.05344  B =      0.01407  C =      0.01192 [cm^-1]
  Rotational constants: A =   1601.96195  B =    421.70531  C =    357.39762 [MHz]
  Nuclear repulsion =  641.199791089021460

  Charge       = 0
  Multiplicity = 1
  Electrons    = 88
  Nalpha       = 44
  Nbeta        = 44

  ==> Algorithm <==

  SCF Algorithm Type is PK.
  DIIS enabled.
  MOM disabled.
  Fractional occupation disabled.
  Guess Type is SAD.
  Energy threshold   = 1.00e-06
  Density threshold  = 1.00e-10
  Integral threshold = 0.00e+00

  ==> Primary Basis <==

  Basis Set: CC-PVDZ
    Blend: CC-PVDZ
    Number of shells: 117
    Number of basis function: 243
    Number of Cartesian functions: 255
    Spherical Harmonics?: true
    Max angular momentum: 2

  ==> Pre-Iterations <==

   -------------------------------------------------------
    Irrep   Nso     Nmo     Nalpha   Nbeta   Ndocc  Nsocc
   -------------------------------------------------------
     A        243     243       0       0       0       0
   -------------------------------------------------------
    Total     243     243      44      44      44       0
   -------------------------------------------------------

  ==> Integral Setup <==

  Using integral reordering PK algorithm.
  Sizing the integral batches needed.
  Building batch lookup table.
   Calculation information:
      Number of atoms:                  27
      Number of AO shells:             117
      Number of primitives:            339
      Number of atomic orbitals:       255
      Number of basis functions:       243

      Integral cutoff                 1.00e-12
      Number of threads:                 1

	Batch   1 pq = [       0,    9405] index = [             0,44231715] size =     44231715
	Batch   2 pq = [    9405,   13301] index = [      44231715,88464951] size =     44233236
	Batch   3 pq = [   13301,   16290] index = [      88464951,132690195] size =     44225244
	Batch   4 pq = [   16290,   18810] index = [     132690195,176917455] size =     44227260
	Batch   5 pq = [   18810,   21030] index = [     176917455,221140965] size =     44223510
	Batch   6 pq = [   21030,   23037] index = [     221140965,265363203] size =     44222238
	Batch   7 pq = [   23037,   24883] index = [     265363203,309594286] size =     44231083
	Batch   8 pq = [   24883,   26601] index = [     309594286,353819901] size =     44225615
	Batch   9 pq = [   26601,   28214] index = [     353819901,398029005] size =     44209104
	Batch  10 pq = [   28214,   29646] index = [     398029005,439457481] size =     41428476
  Task number: 40
  Buffer size: 11059200
  Buffer per thread: 2
  We computed 19633583 shell quartets total.
  Whereas there are 23829156 unique shell quartets.

  ==> DiskJK: Disk-Based J/K Matrices <==

    J tasked:                  Yes
    K tasked:                  Yes
    wK tasked:                  No
    Memory [MiB]:              375
    Schwarz Cutoff:          1E-12

    OpenMP threads:              1

  Minimum eigenvalue in the overlap matrix is 2.4691584912E-04.
  Using Symmetric Orthogonalization.

  SCF Guess: Superposition of Atomic Densities via on-the-fly atomic UHF.

  ==> Iterations <==

                        Total Energy        Delta E     RMS |[F,P]|

   @RHF iter SAD:  -478.92446452162710   -4.78924e+02   0.00000e+00
   @RHF iter   1:  -479.48924871324243   -5.64784e-01   2.56200e-03 DIIS
   @RHF iter   2:  -479.71751616946244   -2.28267e-01   1.11869e-03 DIIS
   @RHF iter   3:  -479.75691562722443   -3.93995e-02   2.93117e-04 DIIS
   @RHF iter   4:  -479.76057935328959   -3.66373e-03   1.31643e-04 DIIS
   @RHF iter   5:  -479.76115322349642   -5.73870e-04   2.01683e-05 DIIS
   @RHF iter   6:  -479.76118138439563   -2.81609e-05   9.46381e-06 DIIS
   @RHF iter   7:  -479.76118715719264   -5.77280e-06   3.64982e-06 DIIS
   @RHF iter   8:  -479.76118875060916   -1.59342e-06   1.49145e-06 DIIS
   @RHF iter   9:  -479.76118906699952   -3.16390e-07   6.31951e-07 DIIS
   @RHF iter  10:  -479.76118913093393   -6.39344e-08   2.95008e-07 DIIS
   @RHF iter  11:  -479.76118914630564   -1.53717e-08   1.12502e-07 DIIS
   @RHF iter  12:  -479.76118914856761   -2.26197e-09   4.04974e-08 DIIS
   @RHF iter  13:  -479.76118914874746   -1.79853e-10   1.36868e-08 DIIS
   @RHF iter  14:  -479.76118914876707   -1.96110e-11   6.16145e-09 DIIS
   @RHF iter  15:  -479.76118914877372   -6.65068e-12   2.91066e-09 DIIS
   @RHF iter  16:  -479.76118914877594   -2.21689e-12   1.18152e-09 DIIS
   @RHF iter  17:  -479.76118914877242    3.52429e-12   5.10747e-10 DIIS
   @RHF iter  18:  -479.76118914877497   -2.55795e-12   1.75838e-10 DIIS
   @RHF iter  19:  -479.76118914877628   -1.30740e-12   6.83049e-11 DIIS
  Energy and wave function converged.

  ==> Post-Iterations <==

    Orbital Energies [Eh]
    ---------------------

    Doubly Occupied:

       1A    -15.603100     2A    -11.267379     3A    -11.260604
       4A    -11.234561     5A    -11.230569     6A    -11.226665
       7A    -11.224887     8A    -11.224410     9A    -11.223174
      10A    -11.221679    11A    -11.215860    12A    -11.215191
      13A     -1.301344    14A     -1.126238    15A     -1.066436
      16A     -1.008951    17A     -0.993818    18A     -0.985310
      19A     -0.929663    20A     -0.843201    21A     -0.835123
      22A     -0.798928    23A     -0.754394    24A     -0.722333
      25A     -0.662208    26A     -0.643723    27A     -0.601843
      28A     -0.592625    29A     -0.591420    30A     -0.590215
      31A     -0.584197    32A     -0.567320    33A     -0.551301
      34A     -0.534282    35A     -0.525409    36A     -0.500741
      37A     -0.491248    38A     -0.483599    39A     -0.478321
      40A     -0.469723    41A     -0.459809    42A     -0.370990
      43A     -0.296782    44A     -0.270258

    Virtual:

      45A      0.121901    46A      0.169824    47A      0.178210
      48A      0.182031    49A      0.192552    50A      0.214258
      51A      0.216507    52A      0.223282    53A      0.232726
      54A      0.246739    55A      0.251599    56A      0.264997
      57A      0.270447    58A      0.287828    59A      0.293578
      60A      0.301513    61A      0.315174    62A      0.347541
      63A      0.368364    64A      0.381763    65A      0.393943
      66A      0.402900    67A      0.431737    68A      0.444984
      69A      0.467845    70A      0.484623    71A      0.506586
      72A      0.519055    73A      0.592644    74A      0.595288
      75A      0.598669    76A      0.617467    77A      0.622867
      78A      0.640853    79A      0.651475    80A      0.663629
      81A      0.688924    82A      0.698235    83A      0.700613
      84A      0.711205    85A      0.723562    86A      0.731738
      87A      0.734362    88A      0.742294    89A      0.749511
      90A      0.758281    91A      0.760762    92A      0.771810
      93A      0.791182    94A      0.793394    95A      0.807670
      96A      0.835709    97A      0.849528    98A      0.855139
      99A      0.865385   100A      0.877766   101A      0.879600
     102A      0.892142   103A      0.897485   104A      0.898085
     105A      0.905782   106A      0.914637   107A      0.933270
     108A      0.938466   109A      0.944303   110A      0.954348
     111A      0.967626   112A      0.976171   113A      0.979843
     114A      0.988724   115A      1.001325   116A      1.020278
     117A      1.051822   118A      1.068693   119A      1.095713
     120A      1.120548   121A      1.130538   122A      1.139650
     123A      1.148742   124A      1.159146   125A      1.168500
     126A      1.183599   127A      1.214917   128A      1.220323
     129A      1.224768   130A      1.232271   131A      1.244745
     132A      1.270997   133A      1.280176   134A      1.288078
     135A      1.304995   136A      1.331677   137A      1.336731
     138A      1.356763   139A      1.370311   140A      1.427062
     141A      1.458504   142A      1.463858   143A      1.485437
     144A      1.509976   145A      1.537878   146A      1.559076
     147A      1.579096   148A      1.609347   149A      1.624428
     150A      1.636213   151A      1.654571   152A      1.688565
     153A      1.691778   154A      1.696858   155A      1.710492
     156A      1.743952   157A      1.755441   158A      1.764397
     159A      1.782759   160A      1.808019   161A      1.825136
     162A      1.832711   163A      1.868041   164A      1.877792
     165A      1.881709   166A      1.889298   167A      1.891124
     168A      1.897625   169A      1.911765   170A      1.917106
     171A      1.926159   172A      1.933927   173A      1.939127
     174A      1.941449   175A      1.950005   176A      1.955466
     177A      1.968286   178A      1.979774   179A      1.984979
     180A      1.999448   181A      2.014219   182A      2.025312
     183A      2.029973   184A      2.067578   185A      2.071485
     186A      2.084370   187A      2.086676   188A      2.092971
     189A      2.115849   190A      2.118944   191A      2.135419
     192A      2.157068   193A      2.169240   194A      2.173771
     195A      2.197180   196A      2.219846   197A      2.256138
     198A      2.275172   199A      2.295146   200A      2.302356
     201A      2.316111   202A      2.317813   203A      2.344311
     204A      2.354498   205A      2.379096   206A      2.395418
     207A      2.454732   208A      2.459879   209A      2.471158
     210A      2.476496   211A      2.531317   212A      2.553647
     213A      2.574760   214A      2.582592   215A      2.592443
     216A      2.623293   217A      2.664965   218A      2.684406
     219A      2.727642   220A      2.765749   221A      2.766114
     222A      2.777802   223A      2.786696   224A      2.793910
     225A      2.804795   226A      2.812363   227A      2.840441
     228A      2.860361   229A      2.864394   230A      2.867217
     231A      2.919749   232A      2.949330   233A      2.963325
     234A      2.977211   235A      3.011114   236A      3.052150
     237A      3.069207   238A      3.115456   239A      3.203372
     240A      3.281511   241A      3.372065   242A      3.740681
     243A      3.940486

    Final Occupation by Irrep:
              A
    DOCC [    44 ]

  @RHF Final Energy:  -479.76118914877628

   => Energetics <=

    Nuclear Repulsion Energy =            641.1997910890214598
    One-Electron Energy =               -1920.3622929432574438
    Two-Electron Energy =                 799.4013127054596453
    Total Energy =                       -479.7611891487762250

Computation Completed

Properties will be evaluated at   0.000000,   0.000000,   0.000000 [a0]

Properties computed using the SCF density matrix

  Nuclear Dipole Moment: [e a0]
     X:     8.2135      Y:    -6.2824      Z:    13.7211

  Electronic Dipole Moment: [e a0]
     X:    -8.5168      Y:     6.2766      Z:   -14.5597

  Dipole Moment: [e a0]
     X:    -0.3033      Y:    -0.0057      Z:    -0.8385     Total:     0.8917

  Dipole Moment: [D]
     X:    -0.7708      Y:    -0.0146      Z:    -2.1313     Total:     2.2664

*** tstop() called on ds3 at Tue Apr 28 01:23:29 2020
Module time:
	user time   =     152.96 seconds =       2.55 minutes
	system time =      67.49 seconds =       1.12 minutes
	total time  =        212 seconds =       3.53 minutes
Total time:
	user time   =     152.96 seconds =       2.55 minutes
	system time =      67.49 seconds =       1.12 minutes
	total time  =        212 seconds =       3.53 minutes
                                     G D M A

                                 by Anthony Stone

                           version 2.2.06, 22 June 2011

               Distributed Multipoles from Gaussian wavefunctions

Starting at 1:23:29 on 28 Apr 2020

Using SCF density matrix from file ./SSI/SSI-002TRP-012VAL-1-dimer.test.7864.fchk

                         Distributed Multipole Analysis

Standard DMA

Positions and radii in angstrom
Multipole moments in atomic units, ea_0^k for rank k

C          x = -3.613351  y = -0.118225  z =  0.112199 angstrom
           Maximum rank =  0   Radius =  0.650 angstrom
                   Q00  =  -0.217200

C          x = -1.006351  y =  0.279775  z = -0.344801 angstrom
           Maximum rank =  0   Radius =  0.650 angstrom
                   Q00  =  -0.037568

C          x = -2.378351  y =  0.117775  z = -0.776801 angstrom
           Maximum rank =  0   Radius =  0.650 angstrom
                   Q00  =  -0.149461

C          x = -0.227351  y =  0.457775  z = -1.510801 angstrom
           Maximum rank =  0   Radius =  0.650 angstrom
                   Q00  =   0.276005

C          x = -2.339351  y =  0.211775  z = -2.151801 angstrom
           Maximum rank =  0   Radius =  0.650 angstrom
                   Q00  =   0.080606

C          x =  1.066649  y =  0.543775  z =  0.941199 angstrom
           Maximum rank =  0   Radius =  0.650 angstrom
                   Q00  =  -0.104271

C          x =  1.774649  y =  0.691775  z = -0.233801 angstrom
           Maximum rank =  0   Radius =  0.650 angstrom
                   Q00  =  -0.038215

C          x = -0.341351  y =  0.285775  z =  0.902199 angstrom
           Maximum rank =  0   Radius =  0.650 angstrom
                   Q00  =  -0.106456

C          x =  1.133649  y =  0.673775  z = -1.461801 angstrom
           Maximum rank =  0   Radius =  0.650 angstrom
                   Q00  =  -0.127795

N          x = -1.068351  y =  0.445775  z = -2.581801 angstrom
           Maximum rank =  0   Radius =  0.650 angstrom
                   Q00  =  -0.485852

H          x =  1.575649  y =  0.625775  z =  1.887199 angstrom
           Maximum rank =  0   Radius =  0.325 angstrom
                   Q00  =   0.069020

H          x =  2.840649  y =  0.859775  z = -0.193801 angstrom
           Maximum rank =  0   Radius =  0.325 angstrom
                   Q00  =   0.059977

H          x = -0.907351  y =  0.134775  z =  1.806199 angstrom
           Maximum rank =  0   Radius =  0.325 angstrom
                   Q00  =   0.072871

H          x =  1.691649  y =  0.817775  z = -2.375801 angstrom
           Maximum rank =  0   Radius =  0.325 angstrom
                   Q00  =   0.070367

H          x = -4.425351  y =  0.512775  z = -0.239801 angstrom
           Maximum rank =  0   Radius =  0.325 angstrom
                   Q00  =   0.105449

H          x = -3.372351  y =  0.177775  z =  1.134199 angstrom
           Maximum rank =  0   Radius =  0.325 angstrom
                   Q00  =   0.109359

H          x = -3.208351  y =  0.121775  z = -2.793801 angstrom
           Maximum rank =  0   Radius =  0.325 angstrom
                   Q00  =   0.099112

H          x = -0.786351  y =  0.489775  z = -3.558801 angstrom
           Maximum rank =  0   Radius =  0.325 angstrom
                   Q00  =   0.219926

H          x = -3.975249  y = -1.156905  z =  0.098659 angstrom
           Maximum rank =  0   Radius =  0.325 angstrom
                   Q00  =   0.102488

C          x =  2.854649  y = -1.009225  z =  3.570199 angstrom
           Maximum rank =  0   Radius =  0.650 angstrom
                   Q00  =  -0.236622

C          x =  3.587649  y = -2.092225  z =  2.738199 angstrom
           Maximum rank =  0   Radius =  0.650 angstrom
                   Q00  =  -0.245809

H          x =  3.027649  y = -1.178225  z =  4.634199 angstrom
           Maximum rank =  0   Radius =  0.325 angstrom
                   Q00  =   0.078216

H          x =  3.245649  y = -0.025225  z =  3.305199 angstrom
           Maximum rank =  0   Radius =  0.325 angstrom
                   Q00  =   0.075295

H          x =  1.783649  y = -1.030225  z =  3.374199 angstrom
           Maximum rank =  0   Radius =  0.325 angstrom
                   Q00  =   0.086108

H          x =  3.343649  y = -1.922225  z =  1.689199 angstrom
           Maximum rank =  0   Radius =  0.325 angstrom
                   Q00  =   0.084448

H          x =  3.242918  y = -3.096565  z =  3.025359 angstrom
           Maximum rank =  0   Radius =  0.325 angstrom
                   Q00  =   0.080852

H          x =  4.681576  y = -2.030855  z =  2.835959 angstrom
           Maximum rank =  0   Radius =  0.325 angstrom
                   Q00  =   0.079153

Total multipoles referred to origin at
           x =   0.000000,  y =    0.000000,  z =    0.000000 angstrom
                   Q00  =  -0.000000

Finished at 1:23:29 on 28 Apr 2020

  DMA results are available in the Python driver through the
	  variable('DMA DISTRIBUTED MULTIPOLES')
  and
	  variable('DMA TOTAL MULTIPOLES')
  commands.

    Psi4 stopped on: Tuesday, 28 April 2020 01:23AM
    Psi4 wall time for execution: 0:03:32.60

*** Psi4 exiting successfully. Buy a developer a beer!
