                               Psi4 1.3.2 release

  ==> Input File <==

--------------------------------------------------------------------------
import numpy as np
set {scf_type pk
basis cc-pvdz
d_convergence 10
gdma_switch   0
gdma_limit    0
gdma_origin   [ 0.0,  0.0,  0.0 ]
}
molecule test {
    units Angstrom
    0 1
    --
    0 1
    C                2.769805030766190     1.582314079824532    -1.326050501075983
    C                3.484805030766191     1.464314079824532     0.019949498924017
    H                3.282805030766191     2.310314079824532    -1.953050501075983
    H                2.780805030766190     0.615314079824532    -1.828050501075983
    H                1.739805030766191     1.894314079824532    -1.165050501075983
    H                4.506805030766190     1.157314079824532    -0.156050501075983
    H                2.960945030766191     0.743294079824532     0.664699498924017
    H                3.545055030766191     2.453014079824532     0.498329498924017
    C               -1.999194969233809    -0.248685920175468     2.888949498924017
    C               -0.336194969233810    -0.521685920175468    -1.081050501075983
    C               -1.188194969233809     0.527314079824532    -0.759050501075983
    C               -0.017194969233810    -1.474685920175468    -0.111050501075983
    C               -1.720194969233809     0.625314079824532     0.520949498924017
    C               -0.548194969233810    -1.355685920175468     1.167949498924017
    C               -1.401194969233809    -0.314685920175468     1.500949498924017
    O                0.179805030766190    -0.630685920175468    -2.343050501075983
    H               -1.444194969233809     1.261314079824532    -1.507050501075983
    H               -0.265194969233810    -0.022685920175468    -2.956050501075983
    H                0.627805030766190    -2.302685920175468    -0.362050501075983
    H               -2.405194969233809     1.432314079824532     0.741949498924017
    H               -0.310194969233810    -2.111685920175468     1.903949498924017
    H               -1.464194969233809    -0.935685920175468     3.547949498924017
    H               -3.017194969233810    -0.612685920175468     2.806949498924017
    H               -2.011483969233809     0.748204079824532     3.353779498924017

}
e, wfn = energy('scf', return_wfn=True)
gdma(wfn)
dmavals = variable('DMA DISTRIBUTED MULTIPOLES')
charges = np.array(dmavals)
print(charges)
np.save('SSI-038LEU-047TYR-2-dimer.npy', np.array(charges))--------------------------------------------------------------------------

*** tstart() called on ds3
*** at Sun Apr 26 17:28:22 2020

   => Loading Basis Set <=

    Name: CC-PVDZ
    Role: ORBITAL
    Keyword: BASIS
    atoms 1-2, 9-15  entry C          line   138 file /theoryfs2/ds/metcalf/miniconda2/envs/tf2gpu/share/psi4/basis/cc-pvdz.gbs
    atoms 3-8, 17-24 entry H          line    22 file /theoryfs2/ds/metcalf/miniconda2/envs/tf2gpu/share/psi4/basis/cc-pvdz.gbs
    atoms 16         entry O          line   198 file /theoryfs2/ds/metcalf/miniconda2/envs/tf2gpu/share/psi4/basis/cc-pvdz.gbs

         ---------------------------------------------------------
                                   SCF
               by Justin Turney, Rob Parrish, Andy Simmonett
                          and Daniel G. A. Smith
                              RHF Reference
                        1 Threads,    500 MiB Core
         ---------------------------------------------------------

  ==> Geometry <==

    Molecular point group: c1
    Full point group: C1

    Geometry (in Angstrom), charge = 0, multiplicity = 1:

       Center              X                  Y                   Z               Mass
    ------------   -----------------  -----------------  -----------------  -----------------
         C            2.769805030766     1.582314079825    -1.326050501076    12.000000000000
         C            3.484805030766     1.464314079825     0.019949498924    12.000000000000
         H            3.282805030766     2.310314079825    -1.953050501076     1.007825032230
         H            2.780805030766     0.615314079825    -1.828050501076     1.007825032230
         H            1.739805030766     1.894314079825    -1.165050501076     1.007825032230
         H            4.506805030766     1.157314079825    -0.156050501076     1.007825032230
         H            2.960945030766     0.743294079825     0.664699498924     1.007825032230
         H            3.545055030766     2.453014079825     0.498329498924     1.007825032230
         C           -1.999194969234    -0.248685920175     2.888949498924    12.000000000000
         C           -0.336194969234    -0.521685920175    -1.081050501076    12.000000000000
         C           -1.188194969234     0.527314079825    -0.759050501076    12.000000000000
         C           -0.017194969234    -1.474685920175    -0.111050501076    12.000000000000
         C           -1.720194969234     0.625314079825     0.520949498924    12.000000000000
         C           -0.548194969234    -1.355685920175     1.167949498924    12.000000000000
         C           -1.401194969234    -0.314685920175     1.500949498924    12.000000000000
         O            0.179805030766    -0.630685920175    -2.343050501076    15.994914619570
         H           -1.444194969234     1.261314079825    -1.507050501076     1.007825032230
         H           -0.265194969234    -0.022685920175    -2.956050501076     1.007825032230
         H            0.627805030766    -2.302685920175    -0.362050501076     1.007825032230
         H           -2.405194969234     1.432314079825     0.741949498924     1.007825032230
         H           -0.310194969234    -2.111685920175     1.903949498924     1.007825032230
         H           -1.464194969234    -0.935685920175     3.547949498924     1.007825032230
         H           -3.017194969234    -0.612685920175     2.806949498924     1.007825032230
         H           -2.011483969234     0.748204079825     3.353779498924     1.007825032230

  Running in c1 symmetry.

  Rotational constants: A =      0.05239  B =      0.02344  C =      0.01988 [cm^-1]
  Rotational constants: A =   1570.49933  B =    702.59165  C =    595.98044 [MHz]
  Nuclear repulsion =  499.588143715058777

  Charge       = 0
  Multiplicity = 1
  Electrons    = 76
  Nalpha       = 38
  Nbeta        = 38

  ==> Algorithm <==

  SCF Algorithm Type is PK.
  DIIS enabled.
  MOM disabled.
  Fractional occupation disabled.
  Guess Type is SAD.
  Energy threshold   = 1.00e-06
  Density threshold  = 1.00e-10
  Integral threshold = 0.00e+00

  ==> Primary Basis <==

  Basis Set: CC-PVDZ
    Blend: CC-PVDZ
    Number of shells: 102
    Number of basis function: 210
    Number of Cartesian functions: 220
    Spherical Harmonics?: true
    Max angular momentum: 2

  ==> Pre-Iterations <==

   -------------------------------------------------------
    Irrep   Nso     Nmo     Nalpha   Nbeta   Ndocc  Nsocc
   -------------------------------------------------------
     A        210     210       0       0       0       0
   -------------------------------------------------------
    Total     210     210      38      38      38       0
   -------------------------------------------------------

  ==> Integral Setup <==

  Using integral reordering PK algorithm.
  Sizing the integral batches needed.
  Building batch lookup table.
   Calculation information:
      Number of atoms:                  24
      Number of AO shells:             102
      Number of primitives:            290
      Number of atomic orbitals:       220
      Number of basis functions:       210

      Integral cutoff                 1.00e-12
      Number of threads:                 1

	Batch   1 pq = [       0,    9405] index = [             0,44231715] size =     44231715
	Batch   2 pq = [    9405,   13301] index = [      44231715,88464951] size =     44233236
	Batch   3 pq = [   13301,   16290] index = [      88464951,132690195] size =     44225244
	Batch   4 pq = [   16290,   18810] index = [     132690195,176917455] size =     44227260
	Batch   5 pq = [   18810,   21030] index = [     176917455,221140965] size =     44223510
	Batch   6 pq = [   21030,   22155] index = [     221140965,245433090] size =     24292125
  Task number: 23
  Buffer size: 11059200
  Buffer per thread: 2
  We computed 12082758 shell quartets total.
  Whereas there are 13799631 unique shell quartets.

  ==> DiskJK: Disk-Based J/K Matrices <==

    J tasked:                  Yes
    K tasked:                  Yes
    wK tasked:                  No
    Memory [MiB]:              375
    Schwarz Cutoff:          1E-12

    OpenMP threads:              1

  Minimum eigenvalue in the overlap matrix is 3.1538605205E-04.
  Using Symmetric Orthogonalization.

  SCF Guess: Superposition of Atomic Densities via on-the-fly atomic UHF.

  ==> Iterations <==

                        Total Energy        Delta E     RMS |[F,P]|

   @RHF iter SAD:  -422.67659547617751   -4.22677e+02   0.00000e+00
   @RHF iter   1:  -423.60042620681986   -9.23831e-01   2.99117e-03 DIIS
   @RHF iter   2:  -423.81773351137764   -2.17307e-01   1.27345e-03 DIIS
   @RHF iter   3:  -423.85345558032481   -3.57221e-02   2.83773e-04 DIIS
   @RHF iter   4:  -423.85633195259942   -2.87637e-03   1.17006e-04 DIIS
   @RHF iter   5:  -423.85668395326184   -3.52001e-04   2.10438e-05 DIIS
   @RHF iter   6:  -423.85670177557290   -1.78223e-05   6.41554e-06 DIIS
   @RHF iter   7:  -423.85670339541912   -1.61985e-06   2.01497e-06 DIIS
   @RHF iter   8:  -423.85670359427746   -1.98858e-07   7.37888e-07 DIIS
   @RHF iter   9:  -423.85670361980698   -2.55295e-08   2.50494e-07 DIIS
   @RHF iter  10:  -423.85670362315375   -3.34677e-09   8.54326e-08 DIIS
   @RHF iter  11:  -423.85670362379096   -6.37215e-10   3.81221e-08 DIIS
   @RHF iter  12:  -423.85670362395530   -1.64334e-10   2.25885e-08 DIIS
   @RHF iter  13:  -423.85670362401049   -5.51950e-11   7.89996e-09 DIIS
   @RHF iter  14:  -423.85670362401470   -4.20641e-12   2.18435e-09 DIIS
   @RHF iter  15:  -423.85670362401532   -6.25278e-13   6.82417e-10 DIIS
   @RHF iter  16:  -423.85670362401504    2.84217e-13   2.03724e-10 DIIS
   @RHF iter  17:  -423.85670362401487    1.70530e-13   7.84971e-11 DIIS
  Energy and wave function converged.

  ==> Post-Iterations <==

    Orbital Energies [Eh]
    ---------------------

    Doubly Occupied:

       1A    -20.584641     2A    -11.299410     3A    -11.239431
       4A    -11.237133     5A    -11.234403     6A    -11.233718
       7A    -11.231043     8A    -11.228796     9A    -11.208669
      10A    -11.205329    11A     -1.396633    12A     -1.152689
      13A     -1.037621    14A     -1.019255    15A     -1.008930
      16A     -0.927088    17A     -0.844090    18A     -0.826573
      19A     -0.803337    20A     -0.730406    21A     -0.668268
      22A     -0.641887    23A     -0.609598    24A     -0.595431
      25A     -0.587941    26A     -0.586608    27A     -0.582308
      28A     -0.572671    29A     -0.563860    30A     -0.527492
      31A     -0.498241    32A     -0.487709    33A     -0.486335
      34A     -0.479935    35A     -0.474076    36A     -0.467096
      37A     -0.340165    38A     -0.302812

    Virtual:

      39A      0.129242    40A      0.156071    41A      0.172934
      42A      0.185720    43A      0.199014    44A      0.215872
      45A      0.220156    46A      0.251609    47A      0.255291
      48A      0.261143    49A      0.269992    50A      0.273626
      51A      0.276969    52A      0.290940    53A      0.296723
      54A      0.311401    55A      0.368886    56A      0.375833
      57A      0.400323    58A      0.429331    59A      0.454074
      60A      0.486746    61A      0.492710    62A      0.506576
      63A      0.589666    64A      0.605711    65A      0.607081
      66A      0.621186    67A      0.627636    68A      0.647951
      69A      0.657254    70A      0.676836    71A      0.683959
      72A      0.693000    73A      0.709931    74A      0.727360
      75A      0.732501    76A      0.738587    77A      0.743702
      78A      0.769286    79A      0.783705    80A      0.787486
      81A      0.817687    82A      0.832200    83A      0.850517
      84A      0.858435    85A      0.876659    86A      0.877622
      87A      0.882388    88A      0.888502    89A      0.898565
      90A      0.903562    91A      0.911168    92A      0.920399
      93A      0.925779    94A      0.934799    95A      0.944800
      96A      0.946916    97A      0.952609    98A      0.984868
      99A      0.991300   100A      1.013973   101A      1.030440
     102A      1.063225   103A      1.126240   104A      1.135994
     105A      1.141873   106A      1.145039   107A      1.155930
     108A      1.171081   109A      1.208934   110A      1.232202
     111A      1.246821   112A      1.254032   113A      1.271766
     114A      1.284325   115A      1.307586   116A      1.315574
     117A      1.317415   118A      1.353211   119A      1.363420
     120A      1.381941   121A      1.478945   122A      1.493263
     123A      1.494954   124A      1.503710   125A      1.509532
     126A      1.564298   127A      1.581128   128A      1.617360
     129A      1.629629   130A      1.670883   131A      1.688357
     132A      1.696442   133A      1.707180   134A      1.734603
     135A      1.749919   136A      1.783510   137A      1.812590
     138A      1.813275   139A      1.874769   140A      1.877416
     141A      1.881408   142A      1.887106   143A      1.889071
     144A      1.911243   145A      1.917377   146A      1.930636
     147A      1.930923   148A      1.942021   149A      1.950749
     150A      1.961255   151A      1.965237   152A      1.967879
     153A      1.969718   154A      1.977264   155A      1.984308
     156A      1.987648   157A      2.037646   158A      2.049547
     159A      2.066539   160A      2.076127   161A      2.088549
     162A      2.110499   163A      2.124164   164A      2.135389
     165A      2.144327   166A      2.174759   167A      2.205193
     168A      2.219132   169A      2.258464   170A      2.276942
     171A      2.299073   172A      2.306441   173A      2.319543
     174A      2.354271   175A      2.387061   176A      2.401508
     177A      2.445096   178A      2.462849   179A      2.472675
     180A      2.477779   181A      2.478873   182A      2.543397
     183A      2.565804   184A      2.583003   185A      2.600343
     186A      2.616471   187A      2.633935   188A      2.742137
     189A      2.766740   190A      2.780464   191A      2.784885
     192A      2.806942   193A      2.811146   194A      2.849066
     195A      2.851424   196A      2.874461   197A      2.897249
     198A      2.953681   199A      2.984211   200A      2.987866
     201A      3.006065   202A      3.091942   203A      3.137841
     204A      3.257204   205A      3.284923   206A      3.343015
     207A      3.578860   208A      3.672700   209A      3.966825
     210A      4.172703

    Final Occupation by Irrep:
              A
    DOCC [    38 ]

  @RHF Final Energy:  -423.85670362401487

   => Energetics <=

    Nuclear Repulsion Energy =            499.5881437150587772
    One-Electron Energy =               -1565.0464334167957077
    Two-Electron Energy =                 641.6015860777220041
    Total Energy =                       -423.8567036240149264

Computation Completed

Properties will be evaluated at   0.000000,   0.000000,   0.000000 [a0]

Properties computed using the SCF density matrix

  Nuclear Dipole Moment: [e a0]
     X:     7.9941      Y:     6.2124      Z:     3.3545

  Electronic Dipole Moment: [e a0]
     X:    -8.5299      Y:    -5.9045      Z:    -3.3527

  Dipole Moment: [e a0]
     X:    -0.5358      Y:     0.3079      Z:     0.0018     Total:     0.6180

  Dipole Moment: [D]
     X:    -1.3620      Y:     0.7826      Z:     0.0045     Total:     1.5708

*** tstop() called on ds3 at Sun Apr 26 17:31:33 2020
Module time:
	user time   =      93.30 seconds =       1.55 minutes
	system time =      36.52 seconds =       0.61 minutes
	total time  =        191 seconds =       3.18 minutes
Total time:
	user time   =      93.30 seconds =       1.55 minutes
	system time =      36.52 seconds =       0.61 minutes
	total time  =        191 seconds =       3.18 minutes
                                     G D M A

                                 by Anthony Stone

                           version 2.2.06, 22 June 2011

               Distributed Multipoles from Gaussian wavefunctions

Starting at 17:31:33 on 26 Apr 2020

Using SCF density matrix from file ./SSI/SSI-038LEU-047TYR-2-dimer.test.18630.fchk

                         Distributed Multipole Analysis

Standard DMA

Positions and radii in angstrom
Multipole moments in atomic units, ea_0^k for rank k

C          x =  2.769805  y =  1.582314  z = -1.326051 angstrom
           Maximum rank =  0   Radius =  0.650 angstrom
                   Q00  =  -0.237257

C          x =  3.484805  y =  1.464314  z =  0.019949 angstrom
           Maximum rank =  0   Radius =  0.650 angstrom
                   Q00  =  -0.232991

H          x =  3.282805  y =  2.310314  z = -1.953051 angstrom
           Maximum rank =  0   Radius =  0.325 angstrom
                   Q00  =   0.070336

H          x =  2.780805  y =  0.615314  z = -1.828051 angstrom
           Maximum rank =  0   Radius =  0.325 angstrom
                   Q00  =   0.085834

H          x =  1.739805  y =  1.894314  z = -1.165051 angstrom
           Maximum rank =  0   Radius =  0.325 angstrom
                   Q00  =   0.078247

H          x =  4.506805  y =  1.157314  z = -0.156051 angstrom
           Maximum rank =  0   Radius =  0.325 angstrom
                   Q00  =   0.074621

H          x =  2.960945  y =  0.743294  z =  0.664700 angstrom
           Maximum rank =  0   Radius =  0.325 angstrom
                   Q00  =   0.085455

H          x =  3.545055  y =  2.453014  z =  0.498329 angstrom
           Maximum rank =  0   Radius =  0.325 angstrom
                   Q00  =   0.071114

C          x = -1.999195  y = -0.248686  z =  2.888949 angstrom
           Maximum rank =  0   Radius =  0.650 angstrom
                   Q00  =  -0.204488

C          x = -0.336195  y = -0.521686  z = -1.081050 angstrom
           Maximum rank =  0   Radius =  0.650 angstrom
                   Q00  =   0.314995

C          x = -1.188195  y =  0.527314  z = -0.759051 angstrom
           Maximum rank =  0   Radius =  0.650 angstrom
                   Q00  =  -0.193393

C          x = -0.017195  y = -1.474686  z = -0.111051 angstrom
           Maximum rank =  0   Radius =  0.650 angstrom
                   Q00  =  -0.111956

C          x = -1.720195  y =  0.625314  z =  0.520949 angstrom
           Maximum rank =  0   Radius =  0.650 angstrom
                   Q00  =  -0.025101

C          x = -0.548195  y = -1.355686  z =  1.167949 angstrom
           Maximum rank =  0   Radius =  0.650 angstrom
                   Q00  =   0.037632

C          x = -1.401195  y = -0.314686  z =  1.500949 angstrom
           Maximum rank =  0   Radius =  0.650 angstrom
                   Q00  =  -0.131978

O          x =  0.179805  y = -0.630686  z = -2.343051 angstrom
           Maximum rank =  0   Radius =  0.650 angstrom
                   Q00  =  -0.668819

H          x = -1.444195  y =  1.261314  z = -1.507050 angstrom
           Maximum rank =  0   Radius =  0.325 angstrom
                   Q00  =   0.070828

H          x = -0.265195  y = -0.022686  z = -2.956051 angstrom
           Maximum rank =  0   Radius =  0.325 angstrom
                   Q00  =   0.409170

H          x =  0.627805  y = -2.302686  z = -0.362051 angstrom
           Maximum rank =  0   Radius =  0.325 angstrom
                   Q00  =   0.081263

H          x = -2.405195  y =  1.432314  z =  0.741949 angstrom
           Maximum rank =  0   Radius =  0.325 angstrom
                   Q00  =   0.067327

H          x = -0.310195  y = -2.111686  z =  1.903950 angstrom
           Maximum rank =  0   Radius =  0.325 angstrom
                   Q00  =   0.062682

H          x = -1.464195  y = -0.935686  z =  3.547950 angstrom
           Maximum rank =  0   Radius =  0.325 angstrom
                   Q00  =   0.096460

H          x = -3.017195  y = -0.612686  z =  2.806950 angstrom
           Maximum rank =  0   Radius =  0.325 angstrom
                   Q00  =   0.099408

H          x = -2.011484  y =  0.748204  z =  3.353780 angstrom
           Maximum rank =  0   Radius =  0.325 angstrom
                   Q00  =   0.100611

Total multipoles referred to origin at
           x =   0.000000,  y =    0.000000,  z =    0.000000 angstrom
                   Q00  =  -0.000000

Finished at 17:31:33 on 26 Apr 2020

  DMA results are available in the Python driver through the
	  variable('DMA DISTRIBUTED MULTIPOLES')
  and
	  variable('DMA TOTAL MULTIPOLES')
  commands.

    Psi4 stopped on: Sunday, 26 April 2020 05:31PM
    Psi4 wall time for execution: 0:03:10.84

*** Psi4 exiting successfully. Buy a developer a beer!
