                               Psi4 1.3.2 release

  ==> Input File <==

--------------------------------------------------------------------------
import numpy as np
set {scf_type pk
basis cc-pvdz
d_convergence 10
gdma_switch   0
gdma_limit    0
gdma_origin   [ 0.0,  0.0,  0.0 ]
}
molecule test {
    units Angstrom
    0 1
    --
    0 1
    C               -0.744560176027341     2.158957013125641    -0.792805382118888
    C               -1.515560176027341     3.236957013125641    -1.525805382118888
    C                0.117439823972659     4.347957013125641    -0.162805382118888
    C                0.759439823972659     0.948957013125641     1.386194617881112
    C                0.912439823972659     2.439957013125641     1.060194617881112
    O                1.604439823972659     3.184957013125641     1.775194617881112
    N                0.201439823972659     2.909957013125641     0.035194617881112
    H               -1.429560176027341     1.565957013125641    -0.184805382118888
    H               -0.216560176027341     1.519957013125641    -1.488805382118888
    H               -2.443560176027341     3.444957013125641    -0.991805382118888
    H               -1.739560176027341     2.929957013125641    -2.544805382118888
    H                1.092439823972659     4.827957013125642    -0.205805382118888
    H                0.573439823972659     0.382957013125641     0.475194617881112
    H               -0.865200176027341     4.123807013125640    -1.502735382118888
    H               -0.410470176027341     4.433896013125641    -1.124015382118888
    H               -0.513020176027341     4.789062013125641     0.623294617881112
    H                1.637069823972659     0.533676013125641     1.903204617881112
    H               -0.067270176027341     0.798385013125641     2.096034617881112
    C               -0.627560176027341    -3.061042986874359     2.581194617881112
    C               -0.472560176027341    -2.131042986874359     0.137194617881112
    C                0.088439823972659    -2.721042986874359     1.322194617881112
    C                0.563439823972659    -2.103042986874359    -0.838805382118888
    C                1.386439823972659    -2.999042986874359     1.049194617881112
    C               -1.935560176027341    -1.117042986874359    -1.512805382118888
    C               -0.871560176027341    -1.108042986874359    -2.440805382118888
    C               -1.747560176027341    -1.662042986874359    -0.224805382118888
    C                0.385439823972659    -1.568042986874359    -2.101805382118888
    N                1.675439823972659    -2.617042986874359    -0.235805382118888
    H               -2.908560176027341    -0.748042986874359    -1.802805382118888
    H               -1.046560176027341    -0.726042986874359    -3.436805382118888
    H               -2.564560176027341    -1.703042986874359     0.451194617881112
    H                1.198439823972659    -1.556042986874359    -2.812805382118888
    H               -1.217560176027341    -2.213042986874359     2.918194617881112
    H                0.100439823972659    -3.299042986874359     3.358194617881112
    H                2.079439823972659    -3.480042986874359     1.733194617881112
    H                2.570439823972659    -2.766042986874359    -0.697805382118888
    H               -1.293710176027341    -3.922742986874359     2.427194617881112

}
e, wfn = energy('scf', return_wfn=True)
gdma(wfn)
dmavals = variable('DMA DISTRIBUTED MULTIPOLES')
charges = np.array(dmavals)
print(charges)
np.save('SSI-067PRO-095TRP-1-dimer.npy', np.array(charges))--------------------------------------------------------------------------

*** tstart() called on ds3
*** at Mon Apr 27 17:52:19 2020

   => Loading Basis Set <=

    Name: CC-PVDZ
    Role: ORBITAL
    Keyword: BASIS
    atoms 1-5, 19-27  entry C          line   138 file /theoryfs2/ds/metcalf/miniconda2/envs/tf2gpu/share/psi4/basis/cc-pvdz.gbs
    atoms 6           entry O          line   198 file /theoryfs2/ds/metcalf/miniconda2/envs/tf2gpu/share/psi4/basis/cc-pvdz.gbs
    atoms 7, 28       entry N          line   168 file /theoryfs2/ds/metcalf/miniconda2/envs/tf2gpu/share/psi4/basis/cc-pvdz.gbs
    atoms 8-18, 29-37 entry H          line    22 file /theoryfs2/ds/metcalf/miniconda2/envs/tf2gpu/share/psi4/basis/cc-pvdz.gbs

         ---------------------------------------------------------
                                   SCF
               by Justin Turney, Rob Parrish, Andy Simmonett
                          and Daniel G. A. Smith
                              RHF Reference
                        1 Threads,    500 MiB Core
         ---------------------------------------------------------

  ==> Geometry <==

    Molecular point group: c1
    Full point group: C1

    Geometry (in Angstrom), charge = 0, multiplicity = 1:

       Center              X                  Y                   Z               Mass
    ------------   -----------------  -----------------  -----------------  -----------------
         C           -0.744560176027     2.158957013126    -0.792805382119    12.000000000000
         C           -1.515560176027     3.236957013126    -1.525805382119    12.000000000000
         C            0.117439823973     4.347957013126    -0.162805382119    12.000000000000
         C            0.759439823973     0.948957013126     1.386194617881    12.000000000000
         C            0.912439823973     2.439957013126     1.060194617881    12.000000000000
         O            1.604439823973     3.184957013126     1.775194617881    15.994914619570
         N            0.201439823973     2.909957013126     0.035194617881    14.003074004430
         H           -1.429560176027     1.565957013126    -0.184805382119     1.007825032230
         H           -0.216560176027     1.519957013126    -1.488805382119     1.007825032230
         H           -2.443560176027     3.444957013126    -0.991805382119     1.007825032230
         H           -1.739560176027     2.929957013126    -2.544805382119     1.007825032230
         H            1.092439823973     4.827957013126    -0.205805382119     1.007825032230
         H            0.573439823973     0.382957013126     0.475194617881     1.007825032230
         H           -0.865200176027     4.123807013126    -1.502735382119     1.007825032230
         H           -0.410470176027     4.433896013126    -1.124015382119     1.007825032230
         H           -0.513020176027     4.789062013126     0.623294617881     1.007825032230
         H            1.637069823973     0.533676013126     1.903204617881     1.007825032230
         H           -0.067270176027     0.798385013126     2.096034617881     1.007825032230
         C           -0.627560176027    -3.061042986874     2.581194617881    12.000000000000
         C           -0.472560176027    -2.131042986874     0.137194617881    12.000000000000
         C            0.088439823973    -2.721042986874     1.322194617881    12.000000000000
         C            0.563439823973    -2.103042986874    -0.838805382119    12.000000000000
         C            1.386439823973    -2.999042986874     1.049194617881    12.000000000000
         C           -1.935560176027    -1.117042986874    -1.512805382119    12.000000000000
         C           -0.871560176027    -1.108042986874    -2.440805382119    12.000000000000
         C           -1.747560176027    -1.662042986874    -0.224805382119    12.000000000000
         C            0.385439823973    -1.568042986874    -2.101805382119    12.000000000000
         N            1.675439823973    -2.617042986874    -0.235805382119    14.003074004430
         H           -2.908560176027    -0.748042986874    -1.802805382119     1.007825032230
         H           -1.046560176027    -0.726042986874    -3.436805382119     1.007825032230
         H           -2.564560176027    -1.703042986874     0.451194617881     1.007825032230
         H            1.198439823973    -1.556042986874    -2.812805382119     1.007825032230
         H           -1.217560176027    -2.213042986874     2.918194617881     1.007825032230
         H            0.100439823973    -3.299042986874     3.358194617881     1.007825032230
         H            2.079439823973    -3.480042986874     1.733194617881     1.007825032230
         H            2.570439823973    -2.766042986874    -0.697805382119     1.007825032230
         H           -1.293710176027    -3.922742986874     2.427194617881     1.007825032230

  Running in c1 symmetry.

  Rotational constants: A =      0.02163  B =      0.00960  C =      0.00797 [cm^-1]
  Rotational constants: A =    648.32031  B =    287.65245  C =    238.88751 [MHz]
  Nuclear repulsion = 1203.260770660183198

  Charge       = 0
  Multiplicity = 1
  Electrons    = 126
  Nalpha       = 63
  Nbeta        = 63

  ==> Algorithm <==

  SCF Algorithm Type is PK.
  DIIS enabled.
  MOM disabled.
  Fractional occupation disabled.
  Guess Type is SAD.
  Energy threshold   = 1.00e-06
  Density threshold  = 1.00e-10
  Integral threshold = 0.00e+00

  ==> Primary Basis <==

  Basis Set: CC-PVDZ
    Blend: CC-PVDZ
    Number of shells: 162
    Number of basis function: 338
    Number of Cartesian functions: 355
    Spherical Harmonics?: true
    Max angular momentum: 2

  ==> Pre-Iterations <==

   -------------------------------------------------------
    Irrep   Nso     Nmo     Nalpha   Nbeta   Ndocc  Nsocc
   -------------------------------------------------------
     A        338     338       0       0       0       0
   -------------------------------------------------------
    Total     338     338      63      63      63       0
   -------------------------------------------------------

  ==> Integral Setup <==

  Using integral reordering PK algorithm.
  Sizing the integral batches needed.
  Building batch lookup table.
   Calculation information:
      Number of atoms:                  37
      Number of AO shells:             162
      Number of primitives:            474
      Number of atomic orbitals:       355
      Number of basis functions:       338

      Integral cutoff                 1.00e-12
      Number of threads:                 1

	Batch   1 pq = [       0,    9405] index = [             0,44231715] size =     44231715
	Batch   2 pq = [    9405,   13301] index = [      44231715,88464951] size =     44233236
	Batch   3 pq = [   13301,   16290] index = [      88464951,132690195] size =     44225244
	Batch   4 pq = [   16290,   18810] index = [     132690195,176917455] size =     44227260
	Batch   5 pq = [   18810,   21030] index = [     176917455,221140965] size =     44223510
	Batch   6 pq = [   21030,   23037] index = [     221140965,265363203] size =     44222238
	Batch   7 pq = [   23037,   24883] index = [     265363203,309594286] size =     44231083
	Batch   8 pq = [   24883,   26601] index = [     309594286,353819901] size =     44225615
	Batch   9 pq = [   26601,   28214] index = [     353819901,398029005] size =     44209104
	Batch  10 pq = [   28214,   29740] index = [     398029005,442248670] size =     44219665
	Batch  11 pq = [   29740,   31191] index = [     442248670,486454836] size =     44206166
	Batch  12 pq = [   31191,   32578] index = [     486454836,530679331] size =     44224495
	Batch  13 pq = [   32578,   33908] index = [     530679331,574893186] size =     44213855
	Batch  14 pq = [   33908,   35188] index = [     574893186,619115266] size =     44222080
	Batch  15 pq = [   35188,   36423] index = [     619115266,663335676] size =     44220410
	Batch  16 pq = [   36423,   37617] index = [     663335676,707538153] size =     44202477
	Batch  17 pq = [   37617,   38775] index = [     707538153,751769700] size =     44231547
	Batch  18 pq = [   38775,   39899] index = [     751769700,795985050] size =     44215350
	Batch  19 pq = [   39899,   40992] index = [     795985050,840192528] size =     44207478
	Batch  20 pq = [   40992,   42057] index = [     840192528,884416653] size =     44224125
	Batch  21 pq = [   42057,   43095] index = [     884416653,928611060] size =     44194407
	Batch  22 pq = [   43095,   44109] index = [     928611060,972823995] size =     44212935
	Batch  23 pq = [   44109,   45100] index = [     972823995,1017027550] size =     44203555
	Batch  24 pq = [   45100,   46070] index = [    1017027550,1061245485] size =     44217935
	Batch  25 pq = [   46070,   47020] index = [    1061245485,1105463710] size =     44218225
	Batch  26 pq = [   47020,   47951] index = [    1105463710,1149673176] size =     44209466
	Batch  27 pq = [   47951,   48864] index = [    1149673176,1193869680] size =     44196504
	Batch  28 pq = [   48864,   49761] index = [    1193869680,1238103441] size =     44233761
	Batch  29 pq = [   49761,   50642] index = [    1238103441,1282331403] size =     44227962
	Batch  30 pq = [   50642,   51508] index = [    1282331403,1326562786] size =     44231383
	Batch  31 pq = [   51508,   52359] index = [    1326562786,1370758620] size =     44195834
	Batch  32 pq = [   52359,   53197] index = [    1370758620,1414987003] size =     44228383
	Batch  33 pq = [   53197,   54022] index = [    1414987003,1459215253] size =     44228250
	Batch  34 pq = [   54022,   54834] index = [    1459215253,1503411195] size =     44195942
	Batch  35 pq = [   54834,   55634] index = [    1503411195,1547598795] size =     44187600
	Batch  36 pq = [   55634,   56423] index = [    1547598795,1591805676] size =     44206881
	Batch  37 pq = [   56423,   57201] index = [    1591805676,1636005801] size =     44200125
	Batch  38 pq = [   57201,   57291] index = [    1636005801,1641157986] size =      5152185
  Task number: 149
  Buffer size: 11059200
  Buffer per thread: 2
  We computed 108643409 shell quartets total.
  Whereas there are 87166206 unique shell quartets.
    24.64 percent of shell quartets recomputed by reordering.

  ==> DiskJK: Disk-Based J/K Matrices <==

    J tasked:                  Yes
    K tasked:                  Yes
    wK tasked:                  No
    Memory [MiB]:              375
    Schwarz Cutoff:          1E-12

    OpenMP threads:              1

  Minimum eigenvalue in the overlap matrix is 2.4715545308E-04.
  Using Symmetric Orthogonalization.

  SCF Guess: Superposition of Atomic Densities via on-the-fly atomic UHF.

  ==> Iterations <==

                        Total Energy        Delta E     RMS |[F,P]|

   @RHF iter SAD:  -725.11671325649797   -7.25117e+02   0.00000e+00
   @RHF iter   1:  -725.01405954662141    1.02654e-01   2.37954e-03 DIIS
   @RHF iter   2:  -725.33865321902090   -3.24594e-01   1.25219e-03 DIIS
   @RHF iter   3:  -725.41304678131712   -7.43936e-02   3.29031e-04 DIIS
   @RHF iter   4:  -725.42037055543835   -7.32377e-03   1.23332e-04 DIIS
   @RHF iter   5:  -725.42143235507865   -1.06180e-03   2.22202e-05 DIIS
   @RHF iter   6:  -725.42150582724219   -7.34722e-05   1.18291e-05 DIIS
   @RHF iter   7:  -725.42152364255548   -1.78153e-05   4.41177e-06 DIIS
   @RHF iter   8:  -725.42152772878489   -4.08623e-06   1.69213e-06 DIIS
   @RHF iter   9:  -725.42152832201850   -5.93234e-07   7.23988e-07 DIIS
   @RHF iter  10:  -725.42152842698863   -1.04970e-07   3.03802e-07 DIIS
   @RHF iter  11:  -725.42152845257090   -2.55823e-08   1.43114e-07 DIIS
   @RHF iter  12:  -725.42152845805731   -5.48641e-09   6.51580e-08 DIIS
   @RHF iter  13:  -725.42152845927512   -1.21781e-09   2.81085e-08 DIIS
   @RHF iter  14:  -725.42152845947840   -2.03272e-10   9.81524e-09 DIIS
   @RHF iter  15:  -725.42152845948999   -1.15961e-11   3.51658e-09 DIIS
   @RHF iter  16:  -725.42152845949522   -5.22959e-12   1.45866e-09 DIIS
   @RHF iter  17:  -725.42152845950102   -5.79803e-12   5.50300e-10 DIIS
   @RHF iter  18:  -725.42152845949045    1.05729e-11   2.33089e-10 DIIS
   @RHF iter  19:  -725.42152845949624   -5.79803e-12   1.23948e-10 DIIS
   @RHF iter  20:  -725.42152845949045    5.79803e-12   4.97008e-11 DIIS
  Energy and wave function converged.

  ==> Post-Iterations <==

    Orbital Energies [Eh]
    ---------------------

    Doubly Occupied:

       1A    -20.484010     2A    -15.609537     3A    -15.570179
       4A    -11.327691     5A    -11.273518     6A    -11.271491
       7A    -11.261395     8A    -11.243156     9A    -11.241533
      10A    -11.239714    11A    -11.235987    12A    -11.235253
      13A    -11.231643    14A    -11.231317    15A    -11.223924
      16A    -11.220814    17A    -11.210877    18A     -1.344697
      19A     -1.306401    20A     -1.243139    21A     -1.136707
      22A     -1.084032    23A     -1.058047    24A     -1.007161
      25A     -0.997846    26A     -0.994844    27A     -0.955341
      28A     -0.939084    29A     -0.850360    30A     -0.844007
      31A     -0.813349    32A     -0.761687    33A     -0.745892
      34A     -0.729323    35A     -0.716618    36A     -0.674762
      37A     -0.663807    38A     -0.651793    39A     -0.636746
      40A     -0.612275    41A     -0.605245    42A     -0.600968
      43A     -0.598749    44A     -0.585678    45A     -0.576942
      46A     -0.564384    47A     -0.556074    48A     -0.545771
      49A     -0.537329    50A     -0.535102    51A     -0.524164
      52A     -0.520010    53A     -0.511629    54A     -0.507661
      55A     -0.479788    56A     -0.471174    57A     -0.467702
      58A     -0.393020    59A     -0.384266    60A     -0.380033
      61A     -0.347926    62A     -0.304084    63A     -0.284913

    Virtual:

      64A      0.112962    65A      0.152529    66A      0.165260
      67A      0.174276    68A      0.180099    69A      0.191359
      70A      0.203609    71A      0.210928    72A      0.219627
      73A      0.221795    74A      0.228000    75A      0.244622
      76A      0.247263    77A      0.252776    78A      0.261290
      79A      0.268299    80A      0.277907    81A      0.281276
      82A      0.282080    83A      0.286175    84A      0.304433
      85A      0.317696    86A      0.335820    87A      0.345620
      88A      0.363269    89A      0.368438    90A      0.373448
      91A      0.386684    92A      0.404132    93A      0.408946
      94A      0.423739    95A      0.435544    96A      0.459936
      97A      0.465835    98A      0.475002    99A      0.491959
     100A      0.506221   101A      0.514713   102A      0.528120
     103A      0.560377   104A      0.576563   105A      0.592197
     106A      0.611813   107A      0.617640   108A      0.627887
     109A      0.636275   110A      0.650594   111A      0.652870
     112A      0.668113   113A      0.675068   114A      0.687146
     115A      0.702129   116A      0.708193   117A      0.717767
     118A      0.719910   119A      0.723375   120A      0.732590
     121A      0.742366   122A      0.747778   123A      0.756038
     124A      0.764417   125A      0.770156   126A      0.774489
     127A      0.787763   128A      0.796279   129A      0.804574
     130A      0.813876   131A      0.823876   132A      0.841854
     133A      0.855566   134A      0.860431   135A      0.865278
     136A      0.872628   137A      0.876790   138A      0.879195
     139A      0.883314   140A      0.887900   141A      0.890706
     142A      0.899471   143A      0.903968   144A      0.911786
     145A      0.914898   146A      0.932306   147A      0.938465
     148A      0.941783   149A      0.945622   150A      0.952445
     151A      0.958955   152A      0.963651   153A      0.981999
     154A      0.991622   155A      1.000527   156A      1.005207
     157A      1.012294   158A      1.019169   159A      1.039343
     160A      1.056300   161A      1.072446   162A      1.078796
     163A      1.088503   164A      1.095119   165A      1.127040
     166A      1.130048   167A      1.136984   168A      1.142880
     169A      1.157266   170A      1.172912   171A      1.178494
     172A      1.188694   173A      1.206056   174A      1.222946
     175A      1.229314   176A      1.231214   177A      1.242972
     178A      1.256306   179A      1.263888   180A      1.265158
     181A      1.284769   182A      1.288952   183A      1.311437
     184A      1.328688   185A      1.331820   186A      1.352298
     187A      1.360394   188A      1.365910   189A      1.388254
     190A      1.394646   191A      1.407012   192A      1.431173
     193A      1.443369   194A      1.451117   195A      1.477120
     196A      1.507771   197A      1.519702   198A      1.554957
     199A      1.564894   200A      1.570868   201A      1.580338
     202A      1.584333   203A      1.605546   204A      1.618280
     205A      1.627337   206A      1.634663   207A      1.641604
     208A      1.651166   209A      1.662520   210A      1.687027
     211A      1.691673   212A      1.694026   213A      1.717081
     214A      1.742249   215A      1.750915   216A      1.769313
     217A      1.772684   218A      1.785924   219A      1.791563
     220A      1.804852   221A      1.828131   222A      1.834514
     223A      1.849340   224A      1.855706   225A      1.859970
     226A      1.874866   227A      1.880064   228A      1.889200
     229A      1.898801   230A      1.903518   231A      1.910157
     232A      1.921946   233A      1.930665   234A      1.933825
     235A      1.940064   236A      1.953832   237A      1.955842
     238A      1.961684   239A      1.975000   240A      1.977658
     241A      1.993277   242A      2.001113   243A      2.006539
     244A      2.021780   245A      2.031067   246A      2.032406
     247A      2.043015   248A      2.055748   249A      2.069197
     250A      2.073443   251A      2.081358   252A      2.092787
     253A      2.093917   254A      2.112566   255A      2.116554
     256A      2.125189   257A      2.129498   258A      2.135450
     259A      2.139378   260A      2.144939   261A      2.155501
     262A      2.173547   263A      2.180500   264A      2.186013
     265A      2.199005   266A      2.206399   267A      2.224077
     268A      2.235642   269A      2.246785   270A      2.266904
     271A      2.281546   272A      2.291384   273A      2.299478
     274A      2.305029   275A      2.318483   276A      2.336006
     277A      2.349203   278A      2.357500   279A      2.375440
     280A      2.391154   281A      2.419487   282A      2.429664
     283A      2.440044   284A      2.452208   285A      2.456299
     286A      2.515556   287A      2.525336   288A      2.535064
     289A      2.569632   290A      2.580221   291A      2.590388
     292A      2.607321   293A      2.626181   294A      2.642829
     295A      2.658986   296A      2.673634   297A      2.679307
     298A      2.700374   299A      2.725384   300A      2.759302
     301A      2.765055   302A      2.774023   303A      2.778107
     304A      2.782837   305A      2.788260   306A      2.800431
     307A      2.809740   308A      2.818617   309A      2.841335
     310A      2.856405   311A      2.862435   312A      2.874811
     313A      2.876480   314A      2.894233   315A      2.920271
     316A      2.949989   317A      2.966681   318A      3.002092
     319A      3.034231   320A      3.038541   321A      3.053503
     322A      3.085740   323A      3.104539   324A      3.118402
     325A      3.146053   326A      3.183570   327A      3.194135
     328A      3.239966   329A      3.304698   330A      3.322038
     331A      3.380313   332A      3.383403   333A      3.529339
     334A      3.738393   335A      3.832307   336A      3.906068
     337A      3.929431   338A      5.031697

    Final Occupation by Irrep:
              A
    DOCC [    63 ]

  @RHF Final Energy:  -725.42152845949045

   => Energetics <=

    Nuclear Repulsion Energy =           1203.2607706601831978
    One-Electron Energy =               -3375.0394591690214838
    Two-Electron Energy =                1446.3571600493476126
    Total Energy =                       -725.4215284594904460

Computation Completed

Properties will be evaluated at   0.000000,   0.000000,   0.000000 [a0]

Properties computed using the SCF density matrix

  Nuclear Dipole Moment: [e a0]
     X:    -6.9954      Y:     8.3921      Z:    -0.7477

  Electronic Dipole Moment: [e a0]
     X:     6.5679      Y:    -9.6075      Z:    -0.3922

  Dipole Moment: [e a0]
     X:    -0.4275      Y:    -1.2153      Z:    -1.1399     Total:     1.7202

  Dipole Moment: [D]
     X:    -1.0867      Y:    -3.0891      Z:    -2.8974     Total:     4.3724

*** tstop() called on ds3 at Mon Apr 27 20:33:39 2020
Module time:
	user time   =     987.71 seconds =      16.46 minutes
	system time =     375.03 seconds =       6.25 minutes
	total time  =       9680 seconds =     161.33 minutes
Total time:
	user time   =     987.71 seconds =      16.46 minutes
	system time =     375.03 seconds =       6.25 minutes
	total time  =       9680 seconds =     161.33 minutes
                                     G D M A

                                 by Anthony Stone

                           version 2.2.06, 22 June 2011

               Distributed Multipoles from Gaussian wavefunctions

Starting at 20:33:39 on 27 Apr 2020

Using SCF density matrix from file ./SSI/SSI-067PRO-095TRP-1-dimer.test.18341.fchk

                         Distributed Multipole Analysis

Standard DMA

Positions and radii in angstrom
Multipole moments in atomic units, ea_0^k for rank k

C          x = -0.744560  y =  2.158957  z = -0.792805 angstrom
           Maximum rank =  0   Radius =  0.650 angstrom
                   Q00  =   0.019776

C          x = -1.515560  y =  3.236957  z = -1.525805 angstrom
           Maximum rank =  0   Radius =  0.650 angstrom
                   Q00  =  -0.258554

C          x =  0.117440  y =  4.347957  z = -0.162805 angstrom
           Maximum rank =  0   Radius =  0.650 angstrom
                   Q00  =  -0.086104

C          x =  0.759440  y =  0.948957  z =  1.386195 angstrom
           Maximum rank =  0   Radius =  0.650 angstrom
                   Q00  =  -0.271107

C          x =  0.912440  y =  2.439957  z =  1.060195 angstrom
           Maximum rank =  0   Radius =  0.650 angstrom
                   Q00  =   0.744615

O          x =  1.604440  y =  3.184957  z =  1.775195 angstrom
           Maximum rank =  0   Radius =  0.650 angstrom
                   Q00  =  -0.796857

N          x =  0.201440  y =  2.909957  z =  0.035195 angstrom
           Maximum rank =  0   Radius =  0.650 angstrom
                   Q00  =  -0.452393

H          x = -1.429560  y =  1.565957  z = -0.184805 angstrom
           Maximum rank =  0   Radius =  0.325 angstrom
                   Q00  =   0.081468

H          x = -0.216560  y =  1.519957  z = -1.488805 angstrom
           Maximum rank =  0   Radius =  0.325 angstrom
                   Q00  =   0.072547

H          x = -2.443560  y =  3.444957  z = -0.991805 angstrom
           Maximum rank =  0   Radius =  0.325 angstrom
                   Q00  =   0.097252

H          x = -1.739560  y =  2.929957  z = -2.544805 angstrom
           Maximum rank =  0   Radius =  0.325 angstrom
                   Q00  =   0.090318

H          x =  1.092440  y =  4.827957  z = -0.205805 angstrom
           Maximum rank =  0   Radius =  0.325 angstrom
                   Q00  =   0.115252

H          x =  0.573440  y =  0.382957  z =  0.475195 angstrom
           Maximum rank =  0   Radius =  0.325 angstrom
                   Q00  =   0.102749

H          x = -0.865200  y =  4.123807  z = -1.502735 angstrom
           Maximum rank =  0   Radius =  0.325 angstrom
                   Q00  =   0.110121

H          x = -0.410470  y =  4.433896  z = -1.124015 angstrom
           Maximum rank =  0   Radius =  0.325 angstrom
                   Q00  =   0.095323

H          x = -0.513020  y =  4.789062  z =  0.623295 angstrom
           Maximum rank =  0   Radius =  0.325 angstrom
                   Q00  =   0.086174

H          x =  1.637070  y =  0.533676  z =  1.903205 angstrom
           Maximum rank =  0   Radius =  0.325 angstrom
                   Q00  =   0.123094

H          x = -0.067270  y =  0.798385  z =  2.096035 angstrom
           Maximum rank =  0   Radius =  0.325 angstrom
                   Q00  =   0.118197

C          x = -0.627560  y = -3.061043  z =  2.581195 angstrom
           Maximum rank =  0   Radius =  0.650 angstrom
                   Q00  =  -0.202601

C          x = -0.472560  y = -2.131043  z =  0.137195 angstrom
           Maximum rank =  0   Radius =  0.650 angstrom
                   Q00  =  -0.054515

C          x =  0.088440  y = -2.721043  z =  1.322195 angstrom
           Maximum rank =  0   Radius =  0.650 angstrom
                   Q00  =  -0.120853

C          x =  0.563440  y = -2.103043  z = -0.838805 angstrom
           Maximum rank =  0   Radius =  0.650 angstrom
                   Q00  =   0.279790

C          x =  1.386440  y = -2.999043  z =  1.049195 angstrom
           Maximum rank =  0   Radius =  0.650 angstrom
                   Q00  =   0.077472

C          x = -1.935560  y = -1.117043  z = -1.512805 angstrom
           Maximum rank =  0   Radius =  0.650 angstrom
                   Q00  =  -0.100353

C          x = -0.871560  y = -1.108043  z = -2.440805 angstrom
           Maximum rank =  0   Radius =  0.650 angstrom
                   Q00  =  -0.043670

C          x = -1.747560  y = -1.662043  z = -0.224805 angstrom
           Maximum rank =  0   Radius =  0.650 angstrom
                   Q00  =  -0.106033

C          x =  0.385440  y = -1.568043  z = -2.101805 angstrom
           Maximum rank =  0   Radius =  0.650 angstrom
                   Q00  =  -0.126886

N          x =  1.675440  y = -2.617043  z = -0.235805 angstrom
           Maximum rank =  0   Radius =  0.650 angstrom
                   Q00  =  -0.497696

H          x = -2.908560  y = -0.748043  z = -1.802805 angstrom
           Maximum rank =  0   Radius =  0.325 angstrom
                   Q00  =   0.065680

H          x = -1.046560  y = -0.726043  z = -3.436805 angstrom
           Maximum rank =  0   Radius =  0.325 angstrom
                   Q00  =   0.065564

H          x = -2.564560  y = -1.703043  z =  0.451195 angstrom
           Maximum rank =  0   Radius =  0.325 angstrom
                   Q00  =   0.073142

H          x =  1.198440  y = -1.556043  z = -2.812805 angstrom
           Maximum rank =  0   Radius =  0.325 angstrom
                   Q00  =   0.075959

H          x = -1.217560  y = -2.213043  z =  2.918195 angstrom
           Maximum rank =  0   Radius =  0.325 angstrom
                   Q00  =   0.097676

H          x =  0.100440  y = -3.299043  z =  3.358195 angstrom
           Maximum rank =  0   Radius =  0.325 angstrom
                   Q00  =   0.105541

H          x =  2.079440  y = -3.480043  z =  1.733195 angstrom
           Maximum rank =  0   Radius =  0.325 angstrom
                   Q00  =   0.105510

H          x =  2.570440  y = -2.766043  z = -0.697805 angstrom
           Maximum rank =  0   Radius =  0.325 angstrom
                   Q00  =   0.217369

H          x = -1.293710  y = -3.922743  z =  2.427195 angstrom
           Maximum rank =  0   Radius =  0.325 angstrom
                   Q00  =   0.097035

Total multipoles referred to origin at
           x =   0.000000,  y =    0.000000,  z =    0.000000 angstrom
                   Q00  =  -0.000000

Finished at 20:33:39 on 27 Apr 2020

  DMA results are available in the Python driver through the
	  variable('DMA DISTRIBUTED MULTIPOLES')
  and
	  variable('DMA TOTAL MULTIPOLES')
  commands.

    Psi4 stopped on: Monday, 27 April 2020 08:33PM
    Psi4 wall time for execution: 2:41:20.45

*** Psi4 exiting successfully. Buy a developer a beer!
