                               Psi4 1.3.2 release

  ==> Input File <==

--------------------------------------------------------------------------
import numpy as np
set {scf_type pk
basis cc-pvdz
d_convergence 10
gdma_switch   0
gdma_limit    0
gdma_origin   [ 0.0,  0.0,  0.0 ]
}
molecule test {
    units Angstrom
    0 1
    --
    0 1
    C               -1.177329949168700     0.002131923346711    -3.275926157175956
    C               -1.053329949168700     0.205131923346711     0.524073842824044
    C               -0.963329949168700    -1.139868076653289     0.867073842824044
    C               -1.128329949168700     0.566131923346711    -0.821926157175956
    C               -1.093329949168700    -0.397868076653289    -1.825926157175956
    C               -0.915329949168699    -2.112868076653289    -0.123926157175956
    C               -0.979329949168700    -1.737868076653289    -1.474926157175956
    O               -0.874329949168700    -1.532868076653289     2.151073842824044
    H               -1.077329949168700     0.951131923346711     1.303073842824043
    H               -1.201329949168700     1.611131923346711    -1.088926157175957
    H               -0.853329949168700    -3.151868076653288     0.143073842824044
    H               -0.786329949168700    -2.479868076653288     2.227073842824044
    H               -0.954329949168700    -0.858868076653289    -3.907926157175956
    H               -0.432329949168700     0.768131923346711    -3.469926157175957
    H               -0.956329949168700    -2.499868076653288    -2.243926157175956
    H               -2.176003949168699     0.389018823346711    -3.526856157175956
    C                1.921670050831300     1.868131923346711     1.306073842824043
    C                2.881670050831300     2.948131923346712     1.829073842824043
    C                2.658670050831300     0.978131923346712     0.281073842824044
    H                1.547670050831300     1.253131923346711     2.123073842824043
    H                1.081670050831300     2.347131923346712     0.802073842824044
    H                3.334670050831301     3.419131923346712     0.954073842824044
    H                3.406670050831301     0.361131923346711     0.777073842824044
    H                1.937670050831300     0.316131923346711    -0.199926157175956
    H                3.138670050831300     1.585131923346712    -0.485926157175956
    H                2.354572050831300     3.751902923346712     2.363973842824044
    H                3.705700050831300     2.523139923346712     2.420973842824043

}
e, wfn = energy('scf', return_wfn=True)
gdma(wfn)
dmavals = variable('DMA DISTRIBUTED MULTIPOLES')
charges = np.array(dmavals)
print(charges)
np.save('SSI-047TYR-075ILE-1-dimer.npy', np.array(charges))--------------------------------------------------------------------------

*** tstart() called on ds3
*** at Mon Apr 27 20:47:45 2020

   => Loading Basis Set <=

    Name: CC-PVDZ
    Role: ORBITAL
    Keyword: BASIS
    atoms 1-7, 17-19  entry C          line   138 file /theoryfs2/ds/metcalf/miniconda2/envs/tf2gpu/share/psi4/basis/cc-pvdz.gbs
    atoms 8           entry O          line   198 file /theoryfs2/ds/metcalf/miniconda2/envs/tf2gpu/share/psi4/basis/cc-pvdz.gbs
    atoms 9-16, 20-27 entry H          line    22 file /theoryfs2/ds/metcalf/miniconda2/envs/tf2gpu/share/psi4/basis/cc-pvdz.gbs

         ---------------------------------------------------------
                                   SCF
               by Justin Turney, Rob Parrish, Andy Simmonett
                          and Daniel G. A. Smith
                              RHF Reference
                        1 Threads,    500 MiB Core
         ---------------------------------------------------------

  ==> Geometry <==

    Molecular point group: c1
    Full point group: C1

    Geometry (in Angstrom), charge = 0, multiplicity = 1:

       Center              X                  Y                   Z               Mass
    ------------   -----------------  -----------------  -----------------  -----------------
         C           -1.177329949169     0.002131923347    -3.275926157176    12.000000000000
         C           -1.053329949169     0.205131923347     0.524073842824    12.000000000000
         C           -0.963329949169    -1.139868076653     0.867073842824    12.000000000000
         C           -1.128329949169     0.566131923347    -0.821926157176    12.000000000000
         C           -1.093329949169    -0.397868076653    -1.825926157176    12.000000000000
         C           -0.915329949169    -2.112868076653    -0.123926157176    12.000000000000
         C           -0.979329949169    -1.737868076653    -1.474926157176    12.000000000000
         O           -0.874329949169    -1.532868076653     2.151073842824    15.994914619570
         H           -1.077329949169     0.951131923347     1.303073842824     1.007825032230
         H           -1.201329949169     1.611131923347    -1.088926157176     1.007825032230
         H           -0.853329949169    -3.151868076653     0.143073842824     1.007825032230
         H           -0.786329949169    -2.479868076653     2.227073842824     1.007825032230
         H           -0.954329949169    -0.858868076653    -3.907926157176     1.007825032230
         H           -0.432329949169     0.768131923347    -3.469926157176     1.007825032230
         H           -0.956329949169    -2.499868076653    -2.243926157176     1.007825032230
         H           -2.176003949169     0.389018823347    -3.526856157176     1.007825032230
         C            1.921670050831     1.868131923347     1.306073842824    12.000000000000
         C            2.881670050831     2.948131923347     1.829073842824    12.000000000000
         C            2.658670050831     0.978131923347     0.281073842824    12.000000000000
         H            1.547670050831     1.253131923347     2.123073842824     1.007825032230
         H            1.081670050831     2.347131923347     0.802073842824     1.007825032230
         H            3.334670050831     3.419131923347     0.954073842824     1.007825032230
         H            3.406670050831     0.361131923347     0.777073842824     1.007825032230
         H            1.937670050831     0.316131923347    -0.199926157176     1.007825032230
         H            3.138670050831     1.585131923347    -0.485926157176     1.007825032230
         H            2.354572050831     3.751902923347     2.363973842824     1.007825032230
         H            3.705700050831     2.523139923347     2.420973842824     1.007825032230

  Running in c1 symmetry.

  Rotational constants: A =      0.04141  B =      0.01925  C =      0.01501 [cm^-1]
  Rotational constants: A =   1241.39375  B =    577.11623  C =    449.88569 [MHz]
  Nuclear repulsion =  585.823040973065417

  Charge       = 0
  Multiplicity = 1
  Electrons    = 84
  Nalpha       = 42
  Nbeta        = 42

  ==> Algorithm <==

  SCF Algorithm Type is PK.
  DIIS enabled.
  MOM disabled.
  Fractional occupation disabled.
  Guess Type is SAD.
  Energy threshold   = 1.00e-06
  Density threshold  = 1.00e-10
  Integral threshold = 0.00e+00

  ==> Primary Basis <==

  Basis Set: CC-PVDZ
    Blend: CC-PVDZ
    Number of shells: 114
    Number of basis function: 234
    Number of Cartesian functions: 245
    Spherical Harmonics?: true
    Max angular momentum: 2

  ==> Pre-Iterations <==

   -------------------------------------------------------
    Irrep   Nso     Nmo     Nalpha   Nbeta   Ndocc  Nsocc
   -------------------------------------------------------
     A        234     234       0       0       0       0
   -------------------------------------------------------
    Total     234     234      42      42      42       0
   -------------------------------------------------------

  ==> Integral Setup <==

  Using integral reordering PK algorithm.
  Sizing the integral batches needed.
  Building batch lookup table.
   Calculation information:
      Number of atoms:                  27
      Number of AO shells:             114
      Number of primitives:            322
      Number of atomic orbitals:       245
      Number of basis functions:       234

      Integral cutoff                 1.00e-12
      Number of threads:                 1

	Batch   1 pq = [       0,    9405] index = [             0,44231715] size =     44231715
	Batch   2 pq = [    9405,   13301] index = [      44231715,88464951] size =     44233236
	Batch   3 pq = [   13301,   16290] index = [      88464951,132690195] size =     44225244
	Batch   4 pq = [   16290,   18810] index = [     132690195,176917455] size =     44227260
	Batch   5 pq = [   18810,   21030] index = [     176917455,221140965] size =     44223510
	Batch   6 pq = [   21030,   23037] index = [     221140965,265363203] size =     44222238
	Batch   7 pq = [   23037,   24883] index = [     265363203,309594286] size =     44231083
	Batch   8 pq = [   24883,   26601] index = [     309594286,353819901] size =     44225615
	Batch   9 pq = [   26601,   27495] index = [     353819901,378001260] size =     24181359
  Task number: 35
  Buffer size: 11059200
  Buffer per thread: 2
  We computed 20043793 shell quartets total.
  Whereas there are 21487290 unique shell quartets.

  ==> DiskJK: Disk-Based J/K Matrices <==

    J tasked:                  Yes
    K tasked:                  Yes
    wK tasked:                  No
    Memory [MiB]:              375
    Schwarz Cutoff:          1E-12

    OpenMP threads:              1

  Minimum eigenvalue in the overlap matrix is 3.2584724756E-04.
  Using Symmetric Orthogonalization.

  SCF Guess: Superposition of Atomic Densities via on-the-fly atomic UHF.

  ==> Iterations <==

                        Total Energy        Delta E     RMS |[F,P]|

   @RHF iter SAD:  -461.72437887373070   -4.61724e+02   0.00000e+00
   @RHF iter   1:  -462.60648588374011   -8.82107e-01   2.81368e-03 DIIS
   @RHF iter   2:  -462.84849811228071   -2.42012e-01   1.18879e-03 DIIS
   @RHF iter   3:  -462.88770223423978   -3.92041e-02   2.67123e-04 DIIS
   @RHF iter   4:  -462.89091763402308   -3.21540e-03   1.03367e-04 DIIS
   @RHF iter   5:  -462.89125908919380   -3.41455e-04   2.02446e-05 DIIS
   @RHF iter   6:  -462.89127834745608   -1.92583e-05   6.34610e-06 DIIS
   @RHF iter   7:  -462.89128033216696   -1.98471e-06   1.87359e-06 DIIS
   @RHF iter   8:  -462.89128059478571   -2.62619e-07   7.35287e-07 DIIS
   @RHF iter   9:  -462.89128064282170   -4.80360e-08   3.26260e-07 DIIS
   @RHF iter  10:  -462.89128065348075   -1.06591e-08   1.38777e-07 DIIS
   @RHF iter  11:  -462.89128065695002   -3.46927e-09   6.00039e-08 DIIS
   @RHF iter  12:  -462.89128065751589   -5.65876e-10   2.54552e-08 DIIS
   @RHF iter  13:  -462.89128065758564   -6.97469e-11   8.18192e-09 DIIS
   @RHF iter  14:  -462.89128065759081   -5.17275e-12   2.04995e-09 DIIS
   @RHF iter  15:  -462.89128065759007    7.38964e-13   8.51476e-10 DIIS
   @RHF iter  16:  -462.89128065758939    6.82121e-13   3.64551e-10 DIIS
   @RHF iter  17:  -462.89128065759394   -4.54747e-12   1.69839e-10 DIIS
   @RHF iter  18:  -462.89128065759405   -1.13687e-13   7.87573e-11 DIIS
  Energy and wave function converged.

  ==> Post-Iterations <==

    Orbital Energies [Eh]
    ---------------------

    Doubly Occupied:

       1A    -20.583017     2A    -11.298336     3A    -11.239312
       4A    -11.238473     5A    -11.231983     6A    -11.231621
       7A    -11.230791     8A    -11.227425     9A    -11.214642
      10A    -11.211887    11A    -11.205928    12A     -1.410117
      13A     -1.150473    14A     -1.043730    15A     -1.038176
      16A     -1.016493    17A     -0.926696    18A     -0.913261
      19A     -0.847487    20A     -0.804538    21A     -0.792349
      22A     -0.735740    23A     -0.670184    24A     -0.643658
      25A     -0.618586    26A     -0.606883    27A     -0.593681
      28A     -0.587446    29A     -0.583539    30A     -0.572722
      31A     -0.569973    32A     -0.539245    33A     -0.527304
      34A     -0.520904    35A     -0.495686    36A     -0.486667
      37A     -0.467728    38A     -0.466243    39A     -0.465771
      40A     -0.455172    41A     -0.337119    42A     -0.301303

    Virtual:

      43A      0.127133    44A      0.158110    45A      0.177188
      46A      0.181053    47A      0.195304    48A      0.210158
      49A      0.220147    50A      0.236107    51A      0.239441
      52A      0.257898    53A      0.261154    54A      0.266564
      55A      0.274656    56A      0.294037    57A      0.296945
      58A      0.306561    59A      0.309953    60A      0.317946
      61A      0.366930    62A      0.375783    63A      0.384740
      64A      0.426443    65A      0.438744    66A      0.457983
      67A      0.481374    68A      0.497201    69A      0.516553
      70A      0.580090    71A      0.601919    72A      0.610034
      73A      0.614786    74A      0.617116    75A      0.635396
      76A      0.647602    77A      0.652502    78A      0.670079
      79A      0.691009    80A      0.702115    81A      0.725002
      82A      0.730551    83A      0.742031    84A      0.760771
      85A      0.774542    86A      0.785780    87A      0.788234
      88A      0.801571    89A      0.814486    90A      0.825116
      91A      0.832005    92A      0.846290    93A      0.856662
      94A      0.864991    95A      0.880630    96A      0.885065
      97A      0.893476    98A      0.898333    99A      0.902788
     100A      0.906236   101A      0.911592   102A      0.915685
     103A      0.921118   104A      0.935085   105A      0.942436
     106A      0.944369   107A      0.954776   108A      0.958785
     109A      0.974928   110A      0.994692   111A      1.017379
     112A      1.027757   113A      1.054644   114A      1.081295
     115A      1.120719   116A      1.128979   117A      1.135069
     118A      1.146779   119A      1.151906   120A      1.179845
     121A      1.201496   122A      1.222070   123A      1.240162
     124A      1.248771   125A      1.262141   126A      1.288145
     127A      1.301048   128A      1.312669   129A      1.315039
     130A      1.347776   131A      1.366458   132A      1.398515
     133A      1.407676   134A      1.469568   135A      1.478515
     136A      1.484054   137A      1.499715   138A      1.542919
     139A      1.562906   140A      1.573883   141A      1.615427
     142A      1.621418   143A      1.653252   144A      1.679070
     145A      1.684712   146A      1.693569   147A      1.703586
     148A      1.718732   149A      1.739077   150A      1.745250
     151A      1.784385   152A      1.818695   153A      1.822913
     154A      1.859586   155A      1.864632   156A      1.870418
     157A      1.885976   158A      1.899285   159A      1.900491
     160A      1.903694   161A      1.913319   162A      1.920200
     163A      1.934893   164A      1.946556   165A      1.949961
     166A      1.954778   167A      1.962709   168A      1.966818
     169A      1.970712   170A      1.981229   171A      1.990946
     172A      1.998990   173A      2.013492   174A      2.023851
     175A      2.047524   176A      2.053157   177A      2.060881
     178A      2.072041   179A      2.082148   180A      2.094941
     181A      2.125909   182A      2.137276   183A      2.141781
     184A      2.152878   185A      2.177899   186A      2.198726
     187A      2.225527   188A      2.257623   189A      2.270337
     190A      2.299007   191A      2.310777   192A      2.326831
     193A      2.332497   194A      2.354045   195A      2.361585
     196A      2.391056   197A      2.409891   198A      2.472279
     199A      2.474637   200A      2.489328   201A      2.499777
     202A      2.526270   203A      2.546010   204A      2.556347
     205A      2.571428   206A      2.616239   207A      2.618206
     208A      2.639955   209A      2.659951   210A      2.748999
     211A      2.757475   212A      2.775025   213A      2.788033
     214A      2.795134   215A      2.797224   216A      2.812066
     217A      2.843490   218A      2.854666   219A      2.892084
     220A      2.903383   221A      2.957013   222A      2.976882
     223A      2.987938   224A      3.006086   225A      3.065896
     226A      3.096865   227A      3.123334   228A      3.262521
     229A      3.284758   230A      3.357403   231A      3.592001
     232A      3.684888   233A      3.991925   234A      4.203838

    Final Occupation by Irrep:
              A
    DOCC [    42 ]

  @RHF Final Energy:  -462.89128065759405

   => Energetics <=

    Nuclear Repulsion Energy =            585.8230409730654173
    One-Electron Energy =               -1789.2240577219326951
    Two-Electron Energy =                 740.5097360912732256
    Total Energy =                       -462.8912806575940522

Computation Completed

Properties will be evaluated at   0.000000,   0.000000,   0.000000 [a0]

Properties computed using the SCF density matrix

  Nuclear Dipole Moment: [e a0]
     X:    11.3110      Y:     9.6352      Z:    -1.6855

  Electronic Dipole Moment: [e a0]
     X:   -11.3673      Y:   -10.1466      Z:     1.3572

  Dipole Moment: [e a0]
     X:    -0.0563      Y:    -0.5114      Z:    -0.3283     Total:     0.6103

  Dipole Moment: [D]
     X:    -0.1430      Y:    -1.2998      Z:    -0.8344     Total:     1.5512

*** tstop() called on ds3 at Mon Apr 27 20:51:30 2020
Module time:
	user time   =     144.69 seconds =       2.41 minutes
	system time =      60.84 seconds =       1.01 minutes
	total time  =        225 seconds =       3.75 minutes
Total time:
	user time   =     144.69 seconds =       2.41 minutes
	system time =      60.84 seconds =       1.01 minutes
	total time  =        225 seconds =       3.75 minutes
                                     G D M A

                                 by Anthony Stone

                           version 2.2.06, 22 June 2011

               Distributed Multipoles from Gaussian wavefunctions

Starting at 20:51:30 on 27 Apr 2020

Using SCF density matrix from file ./SSI/SSI-047TYR-075ILE-1-dimer.test.18893.fchk

                         Distributed Multipole Analysis

Standard DMA

Positions and radii in angstrom
Multipole moments in atomic units, ea_0^k for rank k

C          x = -1.177330  y =  0.002132  z = -3.275926 angstrom
           Maximum rank =  0   Radius =  0.650 angstrom
                   Q00  =  -0.190663

C          x = -1.053330  y =  0.205132  z =  0.524074 angstrom
           Maximum rank =  0   Radius =  0.650 angstrom
                   Q00  =  -0.121924

C          x = -0.963330  y = -1.139868  z =  0.867074 angstrom
           Maximum rank =  0   Radius =  0.650 angstrom
                   Q00  =   0.289409

C          x = -1.128330  y =  0.566132  z = -0.821926 angstrom
           Maximum rank =  0   Radius =  0.650 angstrom
                   Q00  =   0.047594

C          x = -1.093330  y = -0.397868  z = -1.825926 angstrom
           Maximum rank =  0   Radius =  0.650 angstrom
                   Q00  =  -0.137908

C          x = -0.915330  y = -2.112868  z = -0.123926 angstrom
           Maximum rank =  0   Radius =  0.650 angstrom
                   Q00  =  -0.167797

C          x = -0.979330  y = -1.737868  z = -1.474926 angstrom
           Maximum rank =  0   Radius =  0.650 angstrom
                   Q00  =  -0.061676

O          x = -0.874330  y = -1.532868  z =  2.151074 angstrom
           Maximum rank =  0   Radius =  0.650 angstrom
                   Q00  =  -0.633226

H          x = -1.077330  y =  0.951132  z =  1.303074 angstrom
           Maximum rank =  0   Radius =  0.325 angstrom
                   Q00  =   0.083761

H          x = -1.201330  y =  1.611132  z = -1.088926 angstrom
           Maximum rank =  0   Radius =  0.325 angstrom
                   Q00  =   0.061610

H          x = -0.853330  y = -3.151868  z =  0.143074 angstrom
           Maximum rank =  0   Radius =  0.325 angstrom
                   Q00  =   0.069705

H          x = -0.786330  y = -2.479868  z =  2.227074 angstrom
           Maximum rank =  0   Radius =  0.325 angstrom
                   Q00  =   0.404702

H          x = -0.954330  y = -0.858868  z = -3.907926 angstrom
           Maximum rank =  0   Radius =  0.325 angstrom
                   Q00  =   0.095641

H          x = -0.432330  y =  0.768132  z = -3.469926 angstrom
           Maximum rank =  0   Radius =  0.325 angstrom
                   Q00  =   0.097358

H          x = -0.956330  y = -2.499868  z = -2.243926 angstrom
           Maximum rank =  0   Radius =  0.325 angstrom
                   Q00  =   0.070969

H          x = -2.176004  y =  0.389019  z = -3.526856 angstrom
           Maximum rank =  0   Radius =  0.325 angstrom
                   Q00  =   0.097781

C          x =  1.921670  y =  1.868132  z =  1.306074 angstrom
           Maximum rank =  0   Radius =  0.650 angstrom
                   Q00  =  -0.083950

C          x =  2.881670  y =  2.948132  z =  1.829074 angstrom
           Maximum rank =  0   Radius =  0.650 angstrom
                   Q00  =  -0.235348

C          x =  2.658670  y =  0.978132  z =  0.281074 angstrom
           Maximum rank =  0   Radius =  0.650 angstrom
                   Q00  =  -0.259665

H          x =  1.547670  y =  1.253132  z =  2.123074 angstrom
           Maximum rank =  0   Radius =  0.325 angstrom
                   Q00  =   0.057467

H          x =  1.081670  y =  2.347132  z =  0.802074 angstrom
           Maximum rank =  0   Radius =  0.325 angstrom
                   Q00  =   0.044375

H          x =  3.334670  y =  3.419132  z =  0.954074 angstrom
           Maximum rank =  0   Radius =  0.325 angstrom
                   Q00  =   0.068237

H          x =  3.406670  y =  0.361132  z =  0.777074 angstrom
           Maximum rank =  0   Radius =  0.325 angstrom
                   Q00  =   0.075142

H          x =  1.937670  y =  0.316132  z = -0.199926 angstrom
           Maximum rank =  0   Radius =  0.325 angstrom
                   Q00  =   0.095937

H          x =  3.138670  y =  1.585132  z = -0.485926 angstrom
           Maximum rank =  0   Radius =  0.325 angstrom
                   Q00  =   0.071862

H          x =  2.354572  y =  3.751903  z =  2.363974 angstrom
           Maximum rank =  0   Radius =  0.325 angstrom
                   Q00  =   0.081232

H          x =  3.705700  y =  2.523140  z =  2.420974 angstrom
           Maximum rank =  0   Radius =  0.325 angstrom
                   Q00  =   0.079374

Total multipoles referred to origin at
           x =   0.000000,  y =    0.000000,  z =    0.000000 angstrom
                   Q00  =  -0.000000

Finished at 20:51:30 on 27 Apr 2020

  DMA results are available in the Python driver through the
	  variable('DMA DISTRIBUTED MULTIPOLES')
  and
	  variable('DMA TOTAL MULTIPOLES')
  commands.

    Psi4 stopped on: Monday, 27 April 2020 08:51PM
    Psi4 wall time for execution: 0:03:44.96

*** Psi4 exiting successfully. Buy a developer a beer!
