                               Psi4 1.3.2 release

  ==> Input File <==

--------------------------------------------------------------------------
import numpy as np
set {scf_type pk
basis cc-pvdz
d_convergence 10
gdma_switch   0
gdma_limit    0
gdma_origin   [ 0.0,  0.0,  0.0 ]
}
molecule test {
    units Angstrom
    1 1
    --
    1 1
    C                1.138142450077560     3.070741300347688     1.718529292534686
    C                0.867142450077560     3.715741300347688     0.367529292534686
    H                0.887142450077560     3.752741300347688     2.530529292534687
    H                0.522142450077560     2.181741300347688     1.823529292534686
    H                2.195142450077560     2.807741300347688     1.799529292534686
    H                1.215142450077560     3.041741300347689    -0.418470707465314
    H                1.409622450077560     4.669221300347688     0.286379292534686
    H               -0.214907549922440     3.857131300347688     0.229029292534686
    C                0.166142450077560    -0.437258699652312     0.934529292534686
    C                1.298142450077560    -1.172258699652312     1.682529292534686
    C               -0.874857549922440    -1.320258699652312    -1.158470707465314
    N               -0.759857549922440    -1.296258699652312     0.164529292534686
    N               -0.063857549922440    -0.618258699652312    -1.922470707465314
    N               -1.805857549922440    -2.063258699652311    -1.727470707465314
    H               -0.431857549922440     0.081741300347688     1.686529292534686
    H                0.606142450077560     0.331741300347688     0.298529292534686
    H                1.877142450077560    -1.768258699652312     0.975529292534686
    H                0.854142450077560    -1.841258699652312     2.421529292534686
    H               -1.463857549922440    -1.837258699652312     0.666529292534686
    H                0.705142450077560    -0.116258699652312    -1.514470707465314
    H               -0.124857549922440    -0.691258699652312    -2.926470707465314
    H               -2.451857549922440    -2.537258699652312    -1.095470707465314
    H               -1.907857549922440    -2.128258699652312    -2.726470707465314
    H                1.964842450077560    -0.456518699652312     2.185749292534686

}
e, wfn = energy('scf', return_wfn=True)
gdma(wfn)
dmavals = variable('DMA DISTRIBUTED MULTIPOLES')
charges = np.array(dmavals)
print(charges)
np.save('SSI-077ALA-138ARG-1-dimer.npy', np.array(charges))--------------------------------------------------------------------------

*** tstart() called on ds3
*** at Tue Apr 28 00:38:12 2020

   => Loading Basis Set <=

    Name: CC-PVDZ
    Role: ORBITAL
    Keyword: BASIS
    atoms 1-2, 9-11  entry C          line   138 file /theoryfs2/ds/metcalf/miniconda2/envs/tf2gpu/share/psi4/basis/cc-pvdz.gbs
    atoms 3-8, 15-24 entry H          line    22 file /theoryfs2/ds/metcalf/miniconda2/envs/tf2gpu/share/psi4/basis/cc-pvdz.gbs
    atoms 12-14      entry N          line   168 file /theoryfs2/ds/metcalf/miniconda2/envs/tf2gpu/share/psi4/basis/cc-pvdz.gbs

         ---------------------------------------------------------
                                   SCF
               by Justin Turney, Rob Parrish, Andy Simmonett
                          and Daniel G. A. Smith
                              RHF Reference
                        1 Threads,    500 MiB Core
         ---------------------------------------------------------

  ==> Geometry <==

    Molecular point group: c1
    Full point group: C1

    Geometry (in Angstrom), charge = 1, multiplicity = 1:

       Center              X                  Y                   Z               Mass
    ------------   -----------------  -----------------  -----------------  -----------------
         C            1.138142450078     3.070741300348     1.718529292535    12.000000000000
         C            0.867142450078     3.715741300348     0.367529292535    12.000000000000
         H            0.887142450078     3.752741300348     2.530529292535     1.007825032230
         H            0.522142450078     2.181741300348     1.823529292535     1.007825032230
         H            2.195142450078     2.807741300348     1.799529292535     1.007825032230
         H            1.215142450078     3.041741300348    -0.418470707465     1.007825032230
         H            1.409622450078     4.669221300348     0.286379292535     1.007825032230
         H           -0.214907549922     3.857131300348     0.229029292535     1.007825032230
         C            0.166142450078    -0.437258699652     0.934529292535    12.000000000000
         C            1.298142450078    -1.172258699652     1.682529292535    12.000000000000
         C           -0.874857549922    -1.320258699652    -1.158470707465    12.000000000000
         N           -0.759857549922    -1.296258699652     0.164529292535    14.003074004430
         N           -0.063857549922    -0.618258699652    -1.922470707465    14.003074004430
         N           -1.805857549922    -2.063258699652    -1.727470707465    14.003074004430
         H           -0.431857549922     0.081741300348     1.686529292535     1.007825032230
         H            0.606142450078     0.331741300348     0.298529292535     1.007825032230
         H            1.877142450078    -1.768258699652     0.975529292535     1.007825032230
         H            0.854142450078    -1.841258699652     2.421529292535     1.007825032230
         H           -1.463857549922    -1.837258699652     0.666529292535     1.007825032230
         H            0.705142450078    -0.116258699652    -1.514470707465     1.007825032230
         H           -0.124857549922    -0.691258699652    -2.926470707465     1.007825032230
         H           -2.451857549922    -2.537258699652    -1.095470707465     1.007825032230
         H           -1.907857549922    -2.128258699652    -2.726470707465     1.007825032230
         H            1.964842450078    -0.456518699652     2.185749292535     1.007825032230

  Running in c1 symmetry.

  Rotational constants: A =      0.07620  B =      0.02416  C =      0.02002 [cm^-1]
  Rotational constants: A =   2284.42694  B =    724.22461  C =    600.29735 [MHz]
  Nuclear repulsion =  390.993498771131613

  Charge       = 1
  Multiplicity = 1
  Electrons    = 66
  Nalpha       = 33
  Nbeta        = 33

  ==> Algorithm <==

  SCF Algorithm Type is PK.
  DIIS enabled.
  MOM disabled.
  Fractional occupation disabled.
  Guess Type is SAD.
  Energy threshold   = 1.00e-06
  Density threshold  = 1.00e-10
  Integral threshold = 0.00e+00

  ==> Primary Basis <==

  Basis Set: CC-PVDZ
    Blend: CC-PVDZ
    Number of shells: 96
    Number of basis function: 192
    Number of Cartesian functions: 200
    Spherical Harmonics?: true
    Max angular momentum: 2

  ==> Pre-Iterations <==

   -------------------------------------------------------
    Irrep   Nso     Nmo     Nalpha   Nbeta   Ndocc  Nsocc
   -------------------------------------------------------
     A        192     192       0       0       0       0
   -------------------------------------------------------
    Total     192     192      33      33      33       0
   -------------------------------------------------------

  ==> Integral Setup <==

  Using integral reordering PK algorithm.
  Sizing the integral batches needed.
  Building batch lookup table.
   Calculation information:
      Number of atoms:                  24
      Number of AO shells:              96
      Number of primitives:            256
      Number of atomic orbitals:       200
      Number of basis functions:       192

      Integral cutoff                 1.00e-12
      Number of threads:                 1

	Batch   1 pq = [       0,    9405] index = [             0,44231715] size =     44231715
	Batch   2 pq = [    9405,   13301] index = [      44231715,88464951] size =     44233236
	Batch   3 pq = [   13301,   16290] index = [      88464951,132690195] size =     44225244
	Batch   4 pq = [   16290,   18528] index = [     132690195,171652656] size =     38962461
  Task number: 16
  Buffer size: 11059200
  Buffer per thread: 2
  We computed 9078913 shell quartets total.
  Whereas there are 10841496 unique shell quartets.

  ==> DiskJK: Disk-Based J/K Matrices <==

    J tasked:                  Yes
    K tasked:                  Yes
    wK tasked:                  No
    Memory [MiB]:              375
    Schwarz Cutoff:          1E-12

    OpenMP threads:              1

  Minimum eigenvalue in the overlap matrix is 3.9402427565E-03.
  Using Symmetric Orthogonalization.

  SCF Guess: Superposition of Atomic Densities via on-the-fly atomic UHF.

  ==> Iterations <==

                        Total Energy        Delta E     RMS |[F,P]|

   @RHF iter SAD:  -361.08584902796258   -3.61086e+02   0.00000e+00
   @RHF iter   1:  -361.61748912181156   -5.31640e-01   3.21713e-03 DIIS
   @RHF iter   2:  -361.81951047564223   -2.02021e-01   1.27373e-03 DIIS
   @RHF iter   3:  -361.84957393499332   -3.00635e-02   2.99676e-04 DIIS
   @RHF iter   4:  -361.85241644328795   -2.84251e-03   5.25612e-05 DIIS
   @RHF iter   5:  -361.85249622295993   -7.97797e-05   2.02694e-05 DIIS
   @RHF iter   6:  -361.85250760109716   -1.13781e-05   4.18144e-06 DIIS
   @RHF iter   7:  -361.85250829969829   -6.98601e-07   1.59478e-06 DIIS
   @RHF iter   8:  -361.85250837157878   -7.18805e-08   4.54168e-07 DIIS
   @RHF iter   9:  -361.85250837841602   -6.83724e-09   1.08135e-07 DIIS
   @RHF iter  10:  -361.85250837888526   -4.69242e-10   3.18042e-08 DIIS
   @RHF iter  11:  -361.85250837892818   -4.29168e-11   1.09991e-08 DIIS
   @RHF iter  12:  -361.85250837893500   -6.82121e-12   4.05048e-09 DIIS
   @RHF iter  13:  -361.85250837893500    0.00000e+00   1.35081e-09 DIIS
   @RHF iter  14:  -361.85250837893375    1.25056e-12   3.62598e-10 DIIS
   @RHF iter  15:  -361.85250837893403   -2.84217e-13   7.57647e-11 DIIS
  Energy and wave function converged.

  ==> Post-Iterations <==

    Orbital Energies [Eh]
    ---------------------

    Doubly Occupied:

       1A    -15.788042     2A    -15.785606     3A    -15.785038
       4A    -11.587906     5A    -11.438797     6A    -11.366612
       7A    -11.316269     8A    -11.314358     9A     -1.543962
      10A     -1.398903    11A     -1.390540    12A     -1.181819
      13A     -1.118552    14A     -1.055979    15A     -1.009357
      16A     -0.973735    17A     -0.936849    18A     -0.932680
      19A     -0.858480    20A     -0.851344    21A     -0.818625
      22A     -0.794040    23A     -0.759295    24A     -0.703122
      25A     -0.698669    26A     -0.693953    27A     -0.666974
      28A     -0.649177    29A     -0.616601    30A     -0.598780
      31A     -0.587566    32A     -0.580230    33A     -0.573614

    Virtual:

      34A     -0.011079    35A      0.015862    36A      0.028943
      37A      0.034170    38A      0.060227    39A      0.078867
      40A      0.092496    41A      0.109493    42A      0.110618
      43A      0.133672    44A      0.146206    45A      0.164903
      46A      0.171059    47A      0.179370    48A      0.185017
      49A      0.205381    50A      0.212591    51A      0.233948
      52A      0.262253    53A      0.277820    54A      0.303636
      55A      0.351755    56A      0.352415    57A      0.441832
      58A      0.449783    59A      0.477977    60A      0.498220
      61A      0.503631    62A      0.510277    63A      0.514390
      64A      0.530963    65A      0.544743    66A      0.554618
      67A      0.557267    68A      0.569046    69A      0.579643
      70A      0.594581    71A      0.639861    72A      0.693637
      73A      0.723510    74A      0.731260    75A      0.740926
      76A      0.747465    77A      0.754776    78A      0.762594
      79A      0.770853    80A      0.783085    81A      0.786591
      82A      0.797221    83A      0.804055    84A      0.806358
      85A      0.808784    86A      0.824674    87A      0.831842
      88A      0.856509    89A      0.877876    90A      0.884413
      91A      0.902715    92A      0.912145    93A      0.951413
      94A      0.957024    95A      1.002159    96A      1.029380
      97A      1.036624    98A      1.058379    99A      1.114381
     100A      1.138446   101A      1.159617   102A      1.164755
     103A      1.200802   104A      1.216038   105A      1.222978
     106A      1.284474   107A      1.327675   108A      1.340752
     109A      1.374946   110A      1.380710   111A      1.390390
     112A      1.432219   113A      1.474395   114A      1.478941
     115A      1.512185   116A      1.545892   117A      1.552988
     118A      1.584644   119A      1.591290   120A      1.636017
     121A      1.638473   122A      1.662734   123A      1.702587
     124A      1.714109   125A      1.723099   126A      1.737778
     127A      1.741461   128A      1.765880   129A      1.776321
     130A      1.782742   131A      1.792363   132A      1.794499
     133A      1.806395   134A      1.823802   135A      1.833745
     136A      1.843765   137A      1.846048   138A      1.855325
     139A      1.859145   140A      1.879251   141A      1.886479
     142A      1.898991   143A      1.915182   144A      1.960321
     145A      1.990335   146A      2.000299   147A      2.012212
     148A      2.040136   149A      2.056283   150A      2.083227
     151A      2.141653   152A      2.180208   153A      2.194956
     154A      2.207926   155A      2.220707   156A      2.241397
     157A      2.262776   158A      2.271761   159A      2.315390
     160A      2.325647   161A      2.354507   162A      2.366532
     163A      2.373125   164A      2.389770   165A      2.407269
     166A      2.439695   167A      2.472693   168A      2.475420
     169A      2.504871   170A      2.561436   171A      2.613113
     172A      2.625964   173A      2.637066   174A      2.668104
     175A      2.696953   176A      2.698652   177A      2.713189
     178A      2.747325   179A      2.763607   180A      2.766544
     181A      2.786592   182A      2.799709   183A      2.826468
     184A      2.853322   185A      2.870854   186A      2.890803
     187A      2.950953   188A      3.074660   189A      3.107637
     190A      3.129917   191A      3.548911   192A      3.656915

    Final Occupation by Irrep:
              A
    DOCC [    33 ]

  @RHF Final Energy:  -361.85250837893403

   => Energetics <=

    Nuclear Repulsion Energy =            390.9934987711316126
    One-Electron Energy =               -1252.9410605615871646
    Two-Electron Energy =                 500.0950534115215191
    Total Energy =                       -361.8525083789340329

Computation Completed

Properties will be evaluated at   0.000000,   0.000000,   0.000000 [a0]

Properties computed using the SCF density matrix

  Nuclear Dipole Moment: [e a0]
     X:     5.2963      Y:     8.7745      Z:     5.8431

  Electronic Dipole Moment: [e a0]
     X:    -6.6149      Y:   -10.9580      Z:    -7.5127

  Dipole Moment: [e a0]
     X:    -1.3186      Y:    -2.1835      Z:    -1.6696     Total:     3.0485

  Dipole Moment: [D]
     X:    -3.3515      Y:    -5.5498      Z:    -4.2436     Total:     7.7486

*** tstop() called on ds3 at Tue Apr 28 00:39:58 2020
Module time:
	user time   =      52.40 seconds =       0.87 minutes
	system time =      21.16 seconds =       0.35 minutes
	total time  =        106 seconds =       1.77 minutes
Total time:
	user time   =      52.40 seconds =       0.87 minutes
	system time =      21.16 seconds =       0.35 minutes
	total time  =        106 seconds =       1.77 minutes
                                     G D M A

                                 by Anthony Stone

                           version 2.2.06, 22 June 2011

               Distributed Multipoles from Gaussian wavefunctions

Starting at 0:39:58 on 28 Apr 2020

Using SCF density matrix from file ./SSI/SSI-077ALA-138ARG-1-dimer.test.6450.fchk

                         Distributed Multipole Analysis

Standard DMA

Positions and radii in angstrom
Multipole moments in atomic units, ea_0^k for rank k

C          x =  1.138142  y =  3.070741  z =  1.718529 angstrom
           Maximum rank =  0   Radius =  0.650 angstrom
                   Q00  =  -0.230998

C          x =  0.867142  y =  3.715741  z =  0.367529 angstrom
           Maximum rank =  0   Radius =  0.650 angstrom
                   Q00  =  -0.239918

H          x =  0.887142  y =  3.752741  z =  2.530529 angstrom
           Maximum rank =  0   Radius =  0.325 angstrom
                   Q00  =   0.105654

H          x =  0.522142  y =  2.181741  z =  1.823529 angstrom
           Maximum rank =  0   Radius =  0.325 angstrom
                   Q00  =   0.046804

H          x =  2.195142  y =  2.807741  z =  1.799529 angstrom
           Maximum rank =  0   Radius =  0.325 angstrom
                   Q00  =   0.083166

H          x =  1.215142  y =  3.041741  z = -0.418471 angstrom
           Maximum rank =  0   Radius =  0.325 angstrom
                   Q00  =   0.046203

H          x =  1.409622  y =  4.669221  z =  0.286379 angstrom
           Maximum rank =  0   Radius =  0.325 angstrom
                   Q00  =   0.107553

H          x = -0.214908  y =  3.857131  z =  0.229029 angstrom
           Maximum rank =  0   Radius =  0.325 angstrom
                   Q00  =   0.080951

C          x =  0.166142  y = -0.437259  z =  0.934529 angstrom
           Maximum rank =  0   Radius =  0.650 angstrom
                   Q00  =  -0.003545

C          x =  1.298142  y = -1.172259  z =  1.682529 angstrom
           Maximum rank =  0   Radius =  0.650 angstrom
                   Q00  =  -0.229614

C          x = -0.874858  y = -1.320259  z = -1.158471 angstrom
           Maximum rank =  0   Radius =  0.650 angstrom
                   Q00  =   1.086327

N          x = -0.759858  y = -1.296259  z =  0.164529 angstrom
           Maximum rank =  0   Radius =  0.650 angstrom
                   Q00  =  -0.502780

N          x = -0.063858  y = -0.618259  z = -1.922471 angstrom
           Maximum rank =  0   Radius =  0.650 angstrom
                   Q00  =  -0.581320

N          x = -1.805858  y = -2.063259  z = -1.727471 angstrom
           Maximum rank =  0   Radius =  0.650 angstrom
                   Q00  =  -0.599875

H          x = -0.431858  y =  0.081741  z =  1.686529 angstrom
           Maximum rank =  0   Radius =  0.325 angstrom
                   Q00  =   0.117605

H          x =  0.606142  y =  0.331741  z =  0.298529 angstrom
           Maximum rank =  0   Radius =  0.325 angstrom
                   Q00  =   0.077435

H          x =  1.877142  y = -1.768259  z =  0.975529 angstrom
           Maximum rank =  0   Radius =  0.325 angstrom
                   Q00  =   0.096427

H          x =  0.854142  y = -1.841259  z =  2.421529 angstrom
           Maximum rank =  0   Radius =  0.325 angstrom
                   Q00  =   0.110007

H          x = -1.463858  y = -1.837259  z =  0.666529 angstrom
           Maximum rank =  0   Radius =  0.325 angstrom
                   Q00  =   0.229556

H          x =  0.705142  y = -0.116259  z = -1.514471 angstrom
           Maximum rank =  0   Radius =  0.325 angstrom
                   Q00  =   0.267377

H          x = -0.124858  y = -0.691259  z = -2.926471 angstrom
           Maximum rank =  0   Radius =  0.325 angstrom
                   Q00  =   0.264858

H          x = -2.451858  y = -2.537259  z = -1.095471 angstrom
           Maximum rank =  0   Radius =  0.325 angstrom
                   Q00  =   0.261738

H          x = -1.907858  y = -2.128259  z = -2.726471 angstrom
           Maximum rank =  0   Radius =  0.325 angstrom
                   Q00  =   0.275970

H          x =  1.964842  y = -0.456519  z =  2.185749 angstrom
           Maximum rank =  0   Radius =  0.325 angstrom
                   Q00  =   0.130420

Total multipoles referred to origin at
           x =   0.000000,  y =    0.000000,  z =    0.000000 angstrom
                   Q00  =   1.000000

Finished at 0:39:58 on 28 Apr 2020

  DMA results are available in the Python driver through the
	  variable('DMA DISTRIBUTED MULTIPOLES')
  and
	  variable('DMA TOTAL MULTIPOLES')
  commands.

    Psi4 stopped on: Tuesday, 28 April 2020 12:39AM
    Psi4 wall time for execution: 0:01:46.63

*** Psi4 exiting successfully. Buy a developer a beer!
