                               Psi4 1.3.2 release

  ==> Input File <==

--------------------------------------------------------------------------
import numpy as np
set {scf_type pk
basis cc-pvdz
d_convergence 10
gdma_switch   0
gdma_limit    0
gdma_origin   [ 0.0,  0.0,  0.0 ]
}
molecule test {
    units Angstrom
    -1 1
    --
    -1 1
    C                0.206309807954595    -2.381925132593181    -0.257100770979296
    C               -0.105690192045405    -2.024925132593181     1.190899229020704
    O               -0.156690192045405    -2.896925132593180     2.060899229020704
    N               -0.319690192045405    -0.745925132593180     1.463899229020704
    H               -0.516690192045405    -0.484925132593180     2.414899229020704
    H               -0.244690192045405    -0.028925132593180     0.742899229020704
    H                1.184309807954595    -2.863925132593180    -0.279100770979296
    H                0.280309807954595    -1.478925132593180    -0.862100770979296
    H               -0.532710192045405    -3.070869132593181    -0.692070770979296
    C               -0.723690192045405     2.756074867406820    -2.036100770979296
    C                0.132309807954595     1.947074867406820    -1.062100770979296
    O               -0.116690192045405     1.983074867406820     0.162899229020704
    O                1.084309807954595     1.284074867406819    -1.532100770979296
    H               -1.016690192045405     2.130074867406819    -2.882100770979296
    H               -0.114690192045405     3.576074867406819    -2.420100770979296
    H               -1.623895192045405     3.181844867406820    -1.568820770979296

}
e, wfn = energy('scf', return_wfn=True)
gdma(wfn)
dmavals = variable('DMA DISTRIBUTED MULTIPOLES')
charges = np.array(dmavals)
print(charges)
np.save('SSI-038GLN-042ASP-1-dimer.npy', np.array(charges))--------------------------------------------------------------------------

*** tstart() called on ds3
*** at Sun Apr 26 17:36:27 2020

   => Loading Basis Set <=

    Name: CC-PVDZ
    Role: ORBITAL
    Keyword: BASIS
    atoms 1-2, 10-11 entry C          line   138 file /theoryfs2/ds/metcalf/miniconda2/envs/tf2gpu/share/psi4/basis/cc-pvdz.gbs
    atoms 3, 12-13   entry O          line   198 file /theoryfs2/ds/metcalf/miniconda2/envs/tf2gpu/share/psi4/basis/cc-pvdz.gbs
    atoms 4          entry N          line   168 file /theoryfs2/ds/metcalf/miniconda2/envs/tf2gpu/share/psi4/basis/cc-pvdz.gbs
    atoms 5-9, 14-16 entry H          line    22 file /theoryfs2/ds/metcalf/miniconda2/envs/tf2gpu/share/psi4/basis/cc-pvdz.gbs

         ---------------------------------------------------------
                                   SCF
               by Justin Turney, Rob Parrish, Andy Simmonett
                          and Daniel G. A. Smith
                              RHF Reference
                        1 Threads,    500 MiB Core
         ---------------------------------------------------------

  ==> Geometry <==

    Molecular point group: c1
    Full point group: C1

    Geometry (in Angstrom), charge = -1, multiplicity = 1:

       Center              X                  Y                   Z               Mass
    ------------   -----------------  -----------------  -----------------  -----------------
         C            0.206309807955    -2.381925132593    -0.257100770979    12.000000000000
         C           -0.105690192045    -2.024925132593     1.190899229021    12.000000000000
         O           -0.156690192045    -2.896925132593     2.060899229021    15.994914619570
         N           -0.319690192045    -0.745925132593     1.463899229021    14.003074004430
         H           -0.516690192045    -0.484925132593     2.414899229021     1.007825032230
         H           -0.244690192045    -0.028925132593     0.742899229021     1.007825032230
         H            1.184309807955    -2.863925132593    -0.279100770979     1.007825032230
         H            0.280309807955    -1.478925132593    -0.862100770979     1.007825032230
         H           -0.532710192045    -3.070869132593    -0.692070770979     1.007825032230
         C           -0.723690192045     2.756074867407    -2.036100770979    12.000000000000
         C            0.132309807955     1.947074867407    -1.062100770979    12.000000000000
         O           -0.116690192045     1.983074867407     0.162899229021    15.994914619570
         O            1.084309807955     1.284074867407    -1.532100770979    15.994914619570
         H           -1.016690192045     2.130074867407    -2.882100770979     1.007825032230
         H           -0.114690192045     3.576074867407    -2.420100770979     1.007825032230
         H           -1.623895192045     3.181844867407    -1.568820770979     1.007825032230

  Running in c1 symmetry.

  Rotational constants: A =      0.14509  B =      0.02345  C =      0.02156 [cm^-1]
  Rotational constants: A =   4349.61458  B =    703.14389  C =    646.33443 [MHz]
  Nuclear repulsion =  349.471082202189450

  Charge       = -1
  Multiplicity = 1
  Electrons    = 64
  Nalpha       = 32
  Nbeta        = 32

  ==> Algorithm <==

  SCF Algorithm Type is PK.
  DIIS enabled.
  MOM disabled.
  Fractional occupation disabled.
  Guess Type is SAD.
  Energy threshold   = 1.00e-06
  Density threshold  = 1.00e-10
  Integral threshold = 0.00e+00

  ==> Primary Basis <==

  Basis Set: CC-PVDZ
    Blend: CC-PVDZ
    Number of shells: 72
    Number of basis function: 152
    Number of Cartesian functions: 160
    Spherical Harmonics?: true
    Max angular momentum: 2

  ==> Pre-Iterations <==

   -------------------------------------------------------
    Irrep   Nso     Nmo     Nalpha   Nbeta   Ndocc  Nsocc
   -------------------------------------------------------
     A        152     152       0       0       0       0
   -------------------------------------------------------
    Total     152     152      32      32      32       0
   -------------------------------------------------------

  ==> Integral Setup <==

  Using integral reordering PK algorithm.
  Sizing the integral batches needed.
  Building batch lookup table.
   Calculation information:
      Number of atoms:                  16
      Number of AO shells:              72
      Number of primitives:            216
      Number of atomic orbitals:       160
      Number of basis functions:       152

      Integral cutoff                 1.00e-12
      Number of threads:                 1

	Batch   1 pq = [       0,    9405] index = [             0,44231715] size =     44231715
	Batch   2 pq = [    9405,   11628] index = [      44231715,67611006] size =     23379291
  Task number: 7
  Buffer size: 11059200
  Buffer per thread: 2
  We computed 2697299 shell quartets total.
  Whereas there are 3454506 unique shell quartets.

  ==> DiskJK: Disk-Based J/K Matrices <==

    J tasked:                  Yes
    K tasked:                  Yes
    wK tasked:                  No
    Memory [MiB]:              375
    Schwarz Cutoff:          1E-12

    OpenMP threads:              1

  Minimum eigenvalue in the overlap matrix is 4.5860192454E-03.
  Using Symmetric Orthogonalization.

  SCF Guess: Superposition of Atomic Densities via on-the-fly atomic UHF.

  ==> Iterations <==

                        Total Energy        Delta E     RMS |[F,P]|

   @RHF iter SAD:  -433.42423654577499   -4.33424e+02   0.00000e+00
   @RHF iter   1:  -434.95291495671148   -1.52868e+00   5.42723e-03 DIIS
   @RHF iter   2:  -435.18197827352122   -2.29063e-01   3.18612e-03 DIIS
   @RHF iter   3:  -435.26353531650477   -8.15570e-02   4.73562e-04 DIIS
   @RHF iter   4:  -435.26675447017760   -3.21915e-03   1.82540e-04 DIIS
   @RHF iter   5:  -435.26729395534136   -5.39485e-04   3.73718e-05 DIIS
   @RHF iter   6:  -435.26732017536909   -2.62200e-05   1.89090e-05 DIIS
   @RHF iter   7:  -435.26732615988840   -5.98452e-06   4.97013e-06 DIIS
   @RHF iter   8:  -435.26732704490161   -8.85013e-07   2.14474e-06 DIIS
   @RHF iter   9:  -435.26732718330686   -1.38405e-07   8.46876e-07 DIIS
   @RHF iter  10:  -435.26732720412929   -2.08224e-08   1.99609e-07 DIIS
   @RHF iter  11:  -435.26732720527036   -1.14107e-09   7.23706e-08 DIIS
   @RHF iter  12:  -435.26732720534437   -7.40101e-11   2.58229e-08 DIIS
   @RHF iter  13:  -435.26732720535688   -1.25056e-11   6.66750e-09 DIIS
   @RHF iter  14:  -435.26732720535841   -1.53477e-12   2.01893e-09 DIIS
   @RHF iter  15:  -435.26732720536000   -1.59162e-12   6.65548e-10 DIIS
   @RHF iter  16:  -435.26732720535949    5.11591e-13   2.39697e-10 DIIS
   @RHF iter  17:  -435.26732720535898    5.11591e-13   1.11586e-10 DIIS
   @RHF iter  18:  -435.26732720535642    2.55795e-12   4.84008e-11 DIIS
  Energy and wave function converged.

  ==> Post-Iterations <==

    Orbital Energies [Eh]
    ---------------------

    Doubly Occupied:

       1A    -20.367470     2A    -20.291005     3A    -20.284110
       4A    -15.434097     5A    -11.212072     6A    -11.143567
       7A    -11.109392     8A    -11.071291     9A     -1.230616
      10A     -1.178522    11A     -1.066864    12A     -1.062004
      13A     -0.862998    14A     -0.816058    15A     -0.652752
      16A     -0.574484    17A     -0.524463    18A     -0.518677
      19A     -0.476166    20A     -0.435915    21A     -0.431074
      22A     -0.429615    23A     -0.426163    24A     -0.421397
      25A     -0.386278    26A     -0.366438    27A     -0.330112
      28A     -0.277611    29A     -0.260678    30A     -0.211335
      31A     -0.198512    32A     -0.189394

    Virtual:

      33A      0.313558    34A      0.328113    35A      0.336993
      36A      0.350909    37A      0.375460    38A      0.398691
      39A      0.404055    40A      0.417880    41A      0.459344
      42A      0.481381    43A      0.536647    44A      0.555252
      45A      0.590221    46A      0.685206    47A      0.718734
      48A      0.744339    49A      0.764582    50A      0.798268
      51A      0.816375    52A      0.829701    53A      0.847363
      54A      0.868165    55A      0.875580    56A      0.897062
      57A      0.933581    58A      0.956732    59A      0.980446
      60A      1.006893    61A      1.013199    62A      1.016310
      63A      1.019165    64A      1.039045    65A      1.062993
      66A      1.065668    67A      1.096672    68A      1.109070
      69A      1.152624    70A      1.159703    71A      1.191683
      72A      1.211858    73A      1.262882    74A      1.282076
      75A      1.325553    76A      1.368172    77A      1.398867
      78A      1.473490    79A      1.492924    80A      1.503308
      81A      1.525762    82A      1.541883    83A      1.544743
      84A      1.565307    85A      1.584605    86A      1.596251
      87A      1.612381    88A      1.625112    89A      1.665200
      90A      1.696326    91A      1.735098    92A      1.753824
      93A      1.798034    94A      1.824056    95A      1.831460
      96A      1.864794    97A      1.984749    98A      1.991203
      99A      2.014949   100A      2.030471   101A      2.049891
     102A      2.056205   103A      2.062396   104A      2.080246
     105A      2.088269   106A      2.103423   107A      2.133810
     108A      2.191807   109A      2.199246   110A      2.237982
     111A      2.244327   112A      2.277821   113A      2.331137
     114A      2.363305   115A      2.408351   116A      2.426238
     117A      2.462669   118A      2.553801   119A      2.561800
     120A      2.568247   121A      2.605328   122A      2.634737
     123A      2.685974   124A      2.709467   125A      2.718552
     126A      2.763625   127A      2.789269   128A      2.874335
     129A      2.893769   130A      2.925115   131A      2.943755
     132A      2.947242   133A      2.968971   134A      2.976962
     135A      3.130133   136A      3.216597   137A      3.228534
     138A      3.249023   139A      3.259268   140A      3.280589
     141A      3.333271   142A      3.452013   143A      3.616979
     144A      3.645100   145A      3.659292   146A      3.750926
     147A      3.807582   148A      3.992907   149A      4.031715
     150A      4.052507   151A      4.060481   152A      4.174969

    Final Occupation by Irrep:
              A
    DOCC [    32 ]

  @RHF Final Energy:  -435.26732720535642

   => Energetics <=

    Nuclear Repulsion Energy =            349.4710822021894501
    One-Electron Energy =               -1300.9945505997409327
    Two-Electron Energy =                 516.2561411921950594
    Total Energy =                       -435.2673272053564233

Computation Completed

Properties will be evaluated at   0.000000,   0.000000,   0.000000 [a0]

Properties computed using the SCF density matrix

  Nuclear Dipole Moment: [e a0]
     X:    -2.4183      Y:     0.9043      Z:    -5.2006

  Electronic Dipole Moment: [e a0]
     X:     1.4852      Y:    -1.6072      Z:     4.9685

  Dipole Moment: [e a0]
     X:    -0.9331      Y:    -0.7029      Z:    -0.2321     Total:     1.1910

  Dipole Moment: [D]
     X:    -2.3716      Y:    -1.7865      Z:    -0.5898     Total:     3.0272

*** tstop() called on ds3 at Sun Apr 26 17:37:02 2020
Module time:
	user time   =      23.80 seconds =       0.40 minutes
	system time =      11.44 seconds =       0.19 minutes
	total time  =         35 seconds =       0.58 minutes
Total time:
	user time   =      23.80 seconds =       0.40 minutes
	system time =      11.44 seconds =       0.19 minutes
	total time  =         35 seconds =       0.58 minutes
                                     G D M A

                                 by Anthony Stone

                           version 2.2.06, 22 June 2011

               Distributed Multipoles from Gaussian wavefunctions

Starting at 17:37:2 on 26 Apr 2020

Using SCF density matrix from file ./SSI/SSI-038GLN-042ASP-1-dimer.test.19359.fchk

                         Distributed Multipole Analysis

Standard DMA

Positions and radii in angstrom
Multipole moments in atomic units, ea_0^k for rank k

C          x =  0.206310  y = -2.381925  z = -0.257101 angstrom
           Maximum rank =  0   Radius =  0.650 angstrom
                   Q00  =  -0.252219

C          x = -0.105690  y = -2.024925  z =  1.190899 angstrom
           Maximum rank =  0   Radius =  0.650 angstrom
                   Q00  =   0.832930

O          x = -0.156690  y = -2.896925  z =  2.060899 angstrom
           Maximum rank =  0   Radius =  0.650 angstrom
                   Q00  =  -0.856735

N          x = -0.319690  y = -0.745925  z =  1.463899 angstrom
           Maximum rank =  0   Radius =  0.650 angstrom
                   Q00  =  -0.521032

H          x = -0.516690  y = -0.484925  z =  2.414899 angstrom
           Maximum rank =  0   Radius =  0.325 angstrom
                   Q00  =   0.193861

H          x = -0.244690  y = -0.028925  z =  0.742899 angstrom
           Maximum rank =  0   Radius =  0.325 angstrom
                   Q00  =   0.269368

H          x =  1.184310  y = -2.863925  z = -0.279101 angstrom
           Maximum rank =  0   Radius =  0.325 angstrom
                   Q00  =   0.107648

H          x =  0.280310  y = -1.478925  z = -0.862101 angstrom
           Maximum rank =  0   Radius =  0.325 angstrom
                   Q00  =   0.101188

H          x = -0.532710  y = -3.070869  z = -0.692071 angstrom
           Maximum rank =  0   Radius =  0.325 angstrom
                   Q00  =   0.097291

C          x = -0.723690  y =  2.756075  z = -2.036101 angstrom
           Maximum rank =  0   Radius =  0.650 angstrom
                   Q00  =  -0.279147

C          x =  0.132310  y =  1.947075  z = -1.062101 angstrom
           Maximum rank =  0   Radius =  0.650 angstrom
                   Q00  =   0.941426

O          x = -0.116690  y =  1.983075  z =  0.162899 angstrom
           Maximum rank =  0   Radius =  0.650 angstrom
                   Q00  =  -0.925590

O          x =  1.084310  y =  1.284075  z = -1.532101 angstrom
           Maximum rank =  0   Radius =  0.650 angstrom
                   Q00  =  -0.918139

H          x = -1.016690  y =  2.130075  z = -2.882101 angstrom
           Maximum rank =  0   Radius =  0.325 angstrom
                   Q00  =   0.069266

H          x = -0.114690  y =  3.576075  z = -2.420101 angstrom
           Maximum rank =  0   Radius =  0.325 angstrom
                   Q00  =   0.084777

H          x = -1.623895  y =  3.181845  z = -1.568821 angstrom
           Maximum rank =  0   Radius =  0.325 angstrom
                   Q00  =   0.055108

Total multipoles referred to origin at
           x =   0.000000,  y =    0.000000,  z =    0.000000 angstrom
                   Q00  =  -1.000000

Finished at 17:37:2 on 26 Apr 2020

  DMA results are available in the Python driver through the
	  variable('DMA DISTRIBUTED MULTIPOLES')
  and
	  variable('DMA TOTAL MULTIPOLES')
  commands.

    Psi4 stopped on: Sunday, 26 April 2020 05:37PM
    Psi4 wall time for execution: 0:00:35.89

*** Psi4 exiting successfully. Buy a developer a beer!
