                               Psi4 1.3.2 release

  ==> Input File <==

--------------------------------------------------------------------------
import numpy as np
set {scf_type pk
basis cc-pvdz
d_convergence 10
gdma_switch   0
gdma_limit    0
gdma_origin   [ 0.0,  0.0,  0.0 ]
}
molecule test {
    units Angstrom
    0 1
    --
    0 1
    C               -2.403729900473495    -2.822280856287705     0.024275843827138
    C               -0.640729900473495    -0.073280856287705     1.626275843827138
    C               -0.311729900473495    -1.301280856287705    -0.171724156172862
    C               -1.455729900473494    -1.728280856287705     0.423275843827138
    N                0.177270099526505    -0.272280856287705     0.600275843827138
    N               -1.633729900473495    -0.946280856287705     1.545275843827138
    H                1.032270099526506     0.241719143712295     0.413275843827138
    H               -0.521729900473495     0.673719143712295     2.402275843827139
    H                0.124270099526505    -1.696280856287705    -1.078724156172862
    H               -2.650729900473495    -3.401280856287705     0.913275843827138
    H               -1.894729900473495    -3.480280856287706    -0.680724156172862
    H               -3.330579900473495    -2.458720856287705    -0.443460156172862
    C                1.357270099526505     2.252719143712294    -0.927724156172862
    C                1.900270099526505     2.998719143712294    -2.152724156172861
    O                2.220270099526505     1.204719143712295    -0.530724156172862
    H                1.223270099526506     2.944719143712295    -0.096724156172862
    H                0.388270099526505     1.831719143712295    -1.186724156172862
    H                1.247270099526505     3.846719143712294    -2.349724156172862
    H                3.073270099526505     1.572719143712295    -0.260724156172862
    H                1.915367099526506     2.350309143712295    -3.041171156172862
    H                2.900776099526505     3.407749143712295    -1.948569156172862

}
e, wfn = energy('scf', return_wfn=True)
gdma(wfn)
dmavals = variable('DMA DISTRIBUTED MULTIPOLES')
charges = np.array(dmavals)
print(charges)
np.save('SSI-096HIE-103SER-1-dimer.npy', np.array(charges))--------------------------------------------------------------------------

*** tstart() called on ds3
*** at Mon Apr 27 13:46:01 2020

   => Loading Basis Set <=

    Name: CC-PVDZ
    Role: ORBITAL
    Keyword: BASIS
    atoms 1-4, 13-14  entry C          line   138 file /theoryfs2/ds/metcalf/miniconda2/envs/tf2gpu/share/psi4/basis/cc-pvdz.gbs
    atoms 5-6         entry N          line   168 file /theoryfs2/ds/metcalf/miniconda2/envs/tf2gpu/share/psi4/basis/cc-pvdz.gbs
    atoms 7-12, 16-21 entry H          line    22 file /theoryfs2/ds/metcalf/miniconda2/envs/tf2gpu/share/psi4/basis/cc-pvdz.gbs
    atoms 15          entry O          line   198 file /theoryfs2/ds/metcalf/miniconda2/envs/tf2gpu/share/psi4/basis/cc-pvdz.gbs

         ---------------------------------------------------------
                                   SCF
               by Justin Turney, Rob Parrish, Andy Simmonett
                          and Daniel G. A. Smith
                              RHF Reference
                        1 Threads,    500 MiB Core
         ---------------------------------------------------------

  ==> Geometry <==

    Molecular point group: c1
    Full point group: C1

    Geometry (in Angstrom), charge = 0, multiplicity = 1:

       Center              X                  Y                   Z               Mass
    ------------   -----------------  -----------------  -----------------  -----------------
         C           -2.403729900473    -2.822280856288     0.024275843827    12.000000000000
         C           -0.640729900473    -0.073280856288     1.626275843827    12.000000000000
         C           -0.311729900473    -1.301280856288    -0.171724156173    12.000000000000
         C           -1.455729900473    -1.728280856288     0.423275843827    12.000000000000
         N            0.177270099527    -0.272280856288     0.600275843827    14.003074004430
         N           -1.633729900473    -0.946280856288     1.545275843827    14.003074004430
         H            1.032270099527     0.241719143712     0.413275843827     1.007825032230
         H           -0.521729900473     0.673719143712     2.402275843827     1.007825032230
         H            0.124270099527    -1.696280856288    -1.078724156173     1.007825032230
         H           -2.650729900473    -3.401280856288     0.913275843827     1.007825032230
         H           -1.894729900473    -3.480280856288    -0.680724156173     1.007825032230
         H           -3.330579900473    -2.458720856288    -0.443460156173     1.007825032230
         C            1.357270099527     2.252719143712    -0.927724156173    12.000000000000
         C            1.900270099527     2.998719143712    -2.152724156173    12.000000000000
         O            2.220270099527     1.204719143712    -0.530724156173    15.994914619570
         H            1.223270099527     2.944719143712    -0.096724156173     1.007825032230
         H            0.388270099527     1.831719143712    -1.186724156173     1.007825032230
         H            1.247270099527     3.846719143712    -2.349724156173     1.007825032230
         H            3.073270099527     1.572719143712    -0.260724156173     1.007825032230
         H            1.915367099527     2.350309143712    -3.041171156173     1.007825032230
         H            2.900776099527     3.407749143712    -1.948569156173     1.007825032230

  Running in c1 symmetry.

  Rotational constants: A =      0.12592  B =      0.01989  C =      0.01873 [cm^-1]
  Rotational constants: A =   3774.95309  B =    596.23074  C =    561.52192 [MHz]
  Nuclear repulsion =  436.082615325533652

  Charge       = 0
  Multiplicity = 1
  Electrons    = 70
  Nalpha       = 35
  Nbeta        = 35

  ==> Algorithm <==

  SCF Algorithm Type is PK.
  DIIS enabled.
  MOM disabled.
  Fractional occupation disabled.
  Guess Type is SAD.
  Energy threshold   = 1.00e-06
  Density threshold  = 1.00e-10
  Integral threshold = 0.00e+00

  ==> Primary Basis <==

  Basis Set: CC-PVDZ
    Blend: CC-PVDZ
    Number of shells: 90
    Number of basis function: 186
    Number of Cartesian functions: 195
    Spherical Harmonics?: true
    Max angular momentum: 2

  ==> Pre-Iterations <==

   -------------------------------------------------------
    Irrep   Nso     Nmo     Nalpha   Nbeta   Ndocc  Nsocc
   -------------------------------------------------------
     A        186     186       0       0       0       0
   -------------------------------------------------------
    Total     186     186      35      35      35       0
   -------------------------------------------------------

  ==> Integral Setup <==

  Using integral reordering PK algorithm.
  Sizing the integral batches needed.
  Building batch lookup table.
   Calculation information:
      Number of atoms:                  21
      Number of AO shells:              90
      Number of primitives:            258
      Number of atomic orbitals:       195
      Number of basis functions:       186

      Integral cutoff                 1.00e-12
      Number of threads:                 1

	Batch   1 pq = [       0,    9405] index = [             0,44231715] size =     44231715
	Batch   2 pq = [    9405,   13301] index = [      44231715,88464951] size =     44233236
	Batch   3 pq = [   13301,   16290] index = [      88464951,132690195] size =     44225244
	Batch   4 pq = [   16290,   17391] index = [     132690195,151232136] size =     18541941
  Task number: 14
  Buffer size: 11059200
  Buffer per thread: 2
  We computed 6561660 shell quartets total.
  Whereas there are 8386560 unique shell quartets.

  ==> DiskJK: Disk-Based J/K Matrices <==

    J tasked:                  Yes
    K tasked:                  Yes
    wK tasked:                  No
    Memory [MiB]:              375
    Schwarz Cutoff:          1E-12

    OpenMP threads:              1

  Minimum eigenvalue in the overlap matrix is 1.1849003138E-03.
  Using Symmetric Orthogonalization.

  SCF Guess: Superposition of Atomic Densities via on-the-fly atomic UHF.

  ==> Iterations <==

                        Total Energy        Delta E     RMS |[F,P]|

   @RHF iter SAD:  -417.03567380102356   -4.17036e+02   0.00000e+00
   @RHF iter   1:  -417.74480833477702   -7.09135e-01   3.25478e-03 DIIS
   @RHF iter   2:  -417.92595937013346   -1.81151e-01   1.61665e-03 DIIS
   @RHF iter   3:  -417.96545985304783   -3.95005e-02   4.01255e-04 DIIS
   @RHF iter   4:  -417.96893183624320   -3.47198e-03   1.63656e-04 DIIS
   @RHF iter   5:  -417.96944582249785   -5.13986e-04   3.00433e-05 DIIS
   @RHF iter   6:  -417.96947109518896   -2.52727e-05   1.21978e-05 DIIS
   @RHF iter   7:  -417.96947563165133   -4.53646e-06   4.05132e-06 DIIS
   @RHF iter   8:  -417.96947647161937   -8.39968e-07   1.63479e-06 DIIS
   @RHF iter   9:  -417.96947665443025   -1.82811e-07   6.26695e-07 DIIS
   @RHF iter  10:  -417.96947667585340   -2.14231e-08   2.19152e-07 DIIS
   @RHF iter  11:  -417.96947667913889   -3.28549e-09   7.16255e-08 DIIS
   @RHF iter  12:  -417.96947667943004   -2.91152e-10   2.88930e-08 DIIS
   @RHF iter  13:  -417.96947667946517   -3.51292e-11   8.67917e-09 DIIS
   @RHF iter  14:  -417.96947667947103   -5.85487e-12   3.13214e-09 DIIS
   @RHF iter  15:  -417.96947667946944    1.59162e-12   1.42217e-09 DIIS
   @RHF iter  16:  -417.96947667947200   -2.55795e-12   4.41686e-10 DIIS
   @RHF iter  17:  -417.96947667946955    2.44427e-12   2.04673e-10 DIIS
   @RHF iter  18:  -417.96947667947120   -1.64846e-12   5.63237e-11 DIIS
  Energy and wave function converged.

  ==> Post-Iterations <==

    Orbital Energies [Eh]
    ---------------------

    Doubly Occupied:

       1A    -20.588270     2A    -15.590508     3A    -15.510240
       4A    -11.298883     5A    -11.273926     6A    -11.242002
       7A    -11.233009     8A    -11.225574     9A    -11.213840
      10A     -1.393312    11A     -1.321821    12A     -1.133478
      13A     -1.028864    14A     -1.016139    15A     -0.926521
      16A     -0.869596    17A     -0.801296    18A     -0.746677
      19A     -0.729397    20A     -0.709215    21A     -0.648705
      22A     -0.632249    23A     -0.590291    24A     -0.585736
      25A     -0.578348    26A     -0.567563    27A     -0.542121
      28A     -0.539458    29A     -0.525157    30A     -0.510115
      31A     -0.500699    32A     -0.465344    33A     -0.392778
      34A     -0.358363    35A     -0.294701

    Virtual:

      36A      0.156612    37A      0.195621    38A      0.203972
      39A      0.207115    40A      0.211177    41A      0.232075
      42A      0.238160    43A      0.241351    44A      0.254725
      45A      0.256150    46A      0.274800    47A      0.290959
      48A      0.310950    49A      0.326425    50A      0.363047
      51A      0.380624    52A      0.396123    53A      0.420905
      54A      0.450821    55A      0.491270    56A      0.503335
      57A      0.584236    58A      0.602033    59A      0.621156
      60A      0.627696    61A      0.636811    62A      0.653883
      63A      0.670352    64A      0.694680    65A      0.720882
      66A      0.729985    67A      0.737934    68A      0.763958
      69A      0.781795    70A      0.789434    71A      0.805357
      72A      0.823729    73A      0.846723    74A      0.854312
      75A      0.868161    76A      0.870251    77A      0.872946
      78A      0.884020    79A      0.890066    80A      0.904509
      81A      0.914062    82A      0.931322    83A      0.948742
      84A      0.953493    85A      0.978030    86A      0.992934
      87A      1.057968    88A      1.085835    89A      1.110352
      90A      1.111969    91A      1.121189    92A      1.139435
      93A      1.145056    94A      1.162303    95A      1.183957
      96A      1.217608    97A      1.251163    98A      1.279544
      99A      1.307284   100A      1.322523   101A      1.329035
     102A      1.343112   103A      1.381234   104A      1.400859
     105A      1.436420   106A      1.451006   107A      1.474667
     108A      1.498427   109A      1.522709   110A      1.550861
     111A      1.569949   112A      1.611282   113A      1.633694
     114A      1.649193   115A      1.664821   116A      1.697841
     117A      1.708351   118A      1.713465   119A      1.748620
     120A      1.794349   121A      1.819096   122A      1.838169
     123A      1.841653   124A      1.854789   125A      1.869405
     126A      1.904272   127A      1.915109   128A      1.923014
     129A      1.934213   130A      1.943864   131A      1.959870
     132A      1.961869   133A      1.974189   134A      1.987042
     135A      2.000448   136A      2.023019   137A      2.038645
     138A      2.066369   139A      2.071844   140A      2.091136
     141A      2.122418   142A      2.135978   143A      2.178471
     144A      2.221545   145A      2.228677   146A      2.236996
     147A      2.263494   148A      2.288453   149A      2.308303
     150A      2.346244   151A      2.378120   152A      2.387626
     153A      2.399562   154A      2.468080   155A      2.485417
     156A      2.503272   157A      2.514080   158A      2.523765
     159A      2.570469   160A      2.593124   161A      2.635465
     162A      2.707144   163A      2.732908   164A      2.742539
     165A      2.755296   166A      2.777195   167A      2.795871
     168A      2.798857   169A      2.841153   170A      2.848974
     171A      2.867295   172A      2.884408   173A      2.894216
     174A      2.924471   175A      2.939830   176A      2.995406
     177A      3.091884   178A      3.200307   179A      3.250337
     180A      3.316671   181A      3.381455   182A      3.437829
     183A      3.501679   184A      3.611015   185A      3.846880
     186A      4.085841

    Final Occupation by Irrep:
              A
    DOCC [    35 ]

  @RHF Final Energy:  -417.96947667947120

   => Energetics <=

    Nuclear Repulsion Energy =            436.0826153255336521
    One-Electron Energy =               -1432.9357874776205790
    Two-Electron Energy =                 578.8836954726157273
    Total Energy =                       -417.9694766794711995

Computation Completed

Properties will be evaluated at   0.000000,   0.000000,   0.000000 [a0]

Properties computed using the SCF density matrix

  Nuclear Dipole Moment: [e a0]
     X:     3.3026      Y:     5.4774      Z:    -6.9064

  Electronic Dipole Moment: [e a0]
     X:    -1.7223      Y:    -4.0755      Z:     6.1219

  Dipole Moment: [e a0]
     X:     1.5803      Y:     1.4019      Z:    -0.7845     Total:     2.2534

  Dipole Moment: [D]
     X:     4.0167      Y:     3.5632      Z:    -1.9941     Total:     5.7277

*** tstop() called on ds3 at Mon Apr 27 13:47:31 2020
Module time:
	user time   =      49.35 seconds =       0.82 minutes
	system time =      23.03 seconds =       0.38 minutes
	total time  =         90 seconds =       1.50 minutes
Total time:
	user time   =      49.35 seconds =       0.82 minutes
	system time =      23.03 seconds =       0.38 minutes
	total time  =         90 seconds =       1.50 minutes
                                     G D M A

                                 by Anthony Stone

                           version 2.2.06, 22 June 2011

               Distributed Multipoles from Gaussian wavefunctions

Starting at 13:47:31 on 27 Apr 2020

Using SCF density matrix from file ./SSI/SSI-096HIE-103SER-1-dimer.test.7774.fchk

                         Distributed Multipole Analysis

Standard DMA

Positions and radii in angstrom
Multipole moments in atomic units, ea_0^k for rank k

C          x = -2.403730  y = -2.822281  z =  0.024276 angstrom
           Maximum rank =  0   Radius =  0.650 angstrom
                   Q00  =  -0.192432

C          x = -0.640730  y = -0.073281  z =  1.626276 angstrom
           Maximum rank =  0   Radius =  0.650 angstrom
                   Q00  =   0.469078

C          x = -0.311730  y = -1.301281  z = -0.171724 angstrom
           Maximum rank =  0   Radius =  0.650 angstrom
                   Q00  =   0.012264

C          x = -1.455730  y = -1.728281  z =  0.423276 angstrom
           Maximum rank =  0   Radius =  0.650 angstrom
                   Q00  =   0.207704

N          x =  0.177270  y = -0.272281  z =  0.600276 angstrom
           Maximum rank =  0   Radius =  0.650 angstrom
                   Q00  =  -0.523514

N          x = -1.633730  y = -0.946281  z =  1.545276 angstrom
           Maximum rank =  0   Radius =  0.650 angstrom
                   Q00  =  -0.780041

H          x =  1.032270  y =  0.241719  z =  0.413276 angstrom
           Maximum rank =  0   Radius =  0.325 angstrom
                   Q00  =   0.278235

H          x = -0.521730  y =  0.673719  z =  2.402276 angstrom
           Maximum rank =  0   Radius =  0.325 angstrom
                   Q00  =   0.115387

H          x =  0.124270  y = -1.696281  z = -1.078724 angstrom
           Maximum rank =  0   Radius =  0.325 angstrom
                   Q00  =   0.092817

H          x = -2.650730  y = -3.401281  z =  0.913276 angstrom
           Maximum rank =  0   Radius =  0.325 angstrom
                   Q00  =   0.112282

H          x = -1.894730  y = -3.480281  z = -0.680724 angstrom
           Maximum rank =  0   Radius =  0.325 angstrom
                   Q00  =   0.088429

H          x = -3.330580  y = -2.458721  z = -0.443460 angstrom
           Maximum rank =  0   Radius =  0.325 angstrom
                   Q00  =   0.101087

C          x =  1.357270  y =  2.252719  z = -0.927724 angstrom
           Maximum rank =  0   Radius =  0.650 angstrom
                   Q00  =   0.046531

C          x =  1.900270  y =  2.998719  z = -2.152724 angstrom
           Maximum rank =  0   Radius =  0.650 angstrom
                   Q00  =  -0.243446

O          x =  2.220270  y =  1.204719  z = -0.530724 angstrom
           Maximum rank =  0   Radius =  0.650 angstrom
                   Q00  =  -0.605969

H          x =  1.223270  y =  2.944719  z = -0.096724 angstrom
           Maximum rank =  0   Radius =  0.325 angstrom
                   Q00  =   0.045827

H          x =  0.388270  y =  1.831719  z = -1.186724 angstrom
           Maximum rank =  0   Radius =  0.325 angstrom
                   Q00  =   0.104251

H          x =  1.247270  y =  3.846719  z = -2.349724 angstrom
           Maximum rank =  0   Radius =  0.325 angstrom
                   Q00  =   0.091884

H          x =  3.073270  y =  1.572719  z = -0.260724 angstrom
           Maximum rank =  0   Radius =  0.325 angstrom
                   Q00  =   0.402737

H          x =  1.915367  y =  2.350309  z = -3.041171 angstrom
           Maximum rank =  0   Radius =  0.325 angstrom
                   Q00  =   0.098863

H          x =  2.900776  y =  3.407749  z = -1.948569 angstrom
           Maximum rank =  0   Radius =  0.325 angstrom
                   Q00  =   0.078027

Total multipoles referred to origin at
           x =   0.000000,  y =    0.000000,  z =    0.000000 angstrom
                   Q00  =  -0.000000

Finished at 13:47:31 on 27 Apr 2020

  DMA results are available in the Python driver through the
	  variable('DMA DISTRIBUTED MULTIPOLES')
  and
	  variable('DMA TOTAL MULTIPOLES')
  commands.

    Psi4 stopped on: Monday, 27 April 2020 01:47PM
    Psi4 wall time for execution: 0:01:30.23

*** Psi4 exiting successfully. Buy a developer a beer!
