                               Psi4 1.3.2 release

  ==> Input File <==

--------------------------------------------------------------------------
import numpy as np
set {scf_type pk
basis cc-pvdz
d_convergence 10
gdma_switch   0
gdma_limit    0
gdma_origin   [ 0.0,  0.0,  0.0 ]
}
molecule test {
    units Angstrom
    0 1
    --
    0 1
    C               -4.213088581358873     1.755271789489844    -3.070775055952604
    C               -1.253088581358873     1.826271789489844    -0.944775055952604
    C               -2.852088581358874     1.568271789489845    -2.443775055952604
    C               -1.794088581358874     0.761271789489844    -2.787775055952604
    N               -2.490088581358874     2.188271789489844    -1.268775055952605
    N               -0.791088581358873     0.987271789489844    -1.863775055952605
    H               -0.711088581358873     2.173271789489844    -0.074775055952605
    H                0.142911418641127     0.587271789489844    -1.884775055952605
    H               -1.747088581358873     0.110271789489844    -3.648775055952604
    H               -4.954088581358874     1.773271789489844    -2.271775055952604
    H               -4.414088581358873     0.888271789489844    -3.694775055952604
    H               -4.337328581358873     2.643491789489844    -3.707665055952604
    C                1.779911418641127     0.143271789489844     0.677224944047396
    C                2.343911418641127     1.333271789489844     1.466224944047396
    C                1.825911418641127    -1.152728210510156     1.414224944047396
    C                2.788911418641126    -2.118728210510155     1.399224944047395
    C                1.258911418641126    -2.719728210510156     2.849224944047396
    N                0.832911418641127    -1.574728210510155     2.298224944047395
    N                2.402911418641126    -3.092728210510156     2.278224944047396
    H                0.746911418641127     0.346271789489844     0.399224944047396
    H                2.356911418641126     0.023271789489844    -0.237775055952604
    H                3.347911418641127     1.063271789489844     1.797224944047396
    H                3.793911418641127    -2.055728210510155     1.104224944047395
    H                0.725911418641127    -3.287728210510156     3.603224944047396
    H                2.938911418641126    -3.905728210510155     2.557224944047396
    H                1.688511418641127     1.518791789489844     2.329954944047396
    H                2.418831418641127     2.223641789489844     0.824634944047396

}
e, wfn = energy('scf', return_wfn=True)
gdma(wfn)
dmavals = variable('DMA DISTRIBUTED MULTIPOLES')
charges = np.array(dmavals)
print(charges)
np.save('SSI-091HIE-125HIE-1-dimer.npy', np.array(charges))--------------------------------------------------------------------------

*** tstart() called on ds3
*** at Mon Apr 27 06:41:07 2020

   => Loading Basis Set <=

    Name: CC-PVDZ
    Role: ORBITAL
    Keyword: BASIS
    atoms 1-4, 13-17  entry C          line   138 file /theoryfs2/ds/metcalf/miniconda2/envs/tf2gpu/share/psi4/basis/cc-pvdz.gbs
    atoms 5-6, 18-19  entry N          line   168 file /theoryfs2/ds/metcalf/miniconda2/envs/tf2gpu/share/psi4/basis/cc-pvdz.gbs
    atoms 7-12, 20-27 entry H          line    22 file /theoryfs2/ds/metcalf/miniconda2/envs/tf2gpu/share/psi4/basis/cc-pvdz.gbs

         ---------------------------------------------------------
                                   SCF
               by Justin Turney, Rob Parrish, Andy Simmonett
                          and Daniel G. A. Smith
                              RHF Reference
                        1 Threads,    500 MiB Core
         ---------------------------------------------------------

  ==> Geometry <==

    Molecular point group: c1
    Full point group: C1

    Geometry (in Angstrom), charge = 0, multiplicity = 1:

       Center              X                  Y                   Z               Mass
    ------------   -----------------  -----------------  -----------------  -----------------
         C           -4.213088581359     1.755271789490    -3.070775055953    12.000000000000
         C           -1.253088581359     1.826271789490    -0.944775055953    12.000000000000
         C           -2.852088581359     1.568271789490    -2.443775055953    12.000000000000
         C           -1.794088581359     0.761271789490    -2.787775055953    12.000000000000
         N           -2.490088581359     2.188271789490    -1.268775055953    14.003074004430
         N           -0.791088581359     0.987271789490    -1.863775055953    14.003074004430
         H           -0.711088581359     2.173271789490    -0.074775055953     1.007825032230
         H            0.142911418641     0.587271789490    -1.884775055953     1.007825032230
         H           -1.747088581359     0.110271789490    -3.648775055953     1.007825032230
         H           -4.954088581359     1.773271789490    -2.271775055953     1.007825032230
         H           -4.414088581359     0.888271789490    -3.694775055953     1.007825032230
         H           -4.337328581359     2.643491789490    -3.707665055953     1.007825032230
         C            1.779911418641     0.143271789490     0.677224944047    12.000000000000
         C            2.343911418641     1.333271789490     1.466224944047    12.000000000000
         C            1.825911418641    -1.152728210510     1.414224944047    12.000000000000
         C            2.788911418641    -2.118728210510     1.399224944047    12.000000000000
         C            1.258911418641    -2.719728210510     2.849224944047    12.000000000000
         N            0.832911418641    -1.574728210510     2.298224944047    14.003074004430
         N            2.402911418641    -3.092728210510     2.278224944047    14.003074004430
         H            0.746911418641     0.346271789490     0.399224944047     1.007825032230
         H            2.356911418641     0.023271789490    -0.237775055953     1.007825032230
         H            3.347911418641     1.063271789490     1.797224944047     1.007825032230
         H            3.793911418641    -2.055728210510     1.104224944047     1.007825032230
         H            0.725911418641    -3.287728210510     3.603224944047     1.007825032230
         H            2.938911418641    -3.905728210510     2.557224944047     1.007825032230
         H            1.688511418641     1.518791789490     2.329954944047     1.007825032230
         H            2.418831418641     2.223641789490     0.824634944047     1.007825032230

  Running in c1 symmetry.

  Rotational constants: A =      0.05582  B =      0.00811  C =      0.00768 [cm^-1]
  Rotational constants: A =   1673.43886  B =    243.05715  C =    230.09190 [MHz]
  Nuclear repulsion =  710.256694107970247

  Charge       = 0
  Multiplicity = 1
  Electrons    = 96
  Nalpha       = 48
  Nbeta        = 48

  ==> Algorithm <==

  SCF Algorithm Type is PK.
  DIIS enabled.
  MOM disabled.
  Fractional occupation disabled.
  Guess Type is SAD.
  Energy threshold   = 1.00e-06
  Density threshold  = 1.00e-10
  Integral threshold = 0.00e+00

  ==> Primary Basis <==

  Basis Set: CC-PVDZ
    Blend: CC-PVDZ
    Number of shells: 120
    Number of basis function: 252
    Number of Cartesian functions: 265
    Spherical Harmonics?: true
    Max angular momentum: 2

  ==> Pre-Iterations <==

   -------------------------------------------------------
    Irrep   Nso     Nmo     Nalpha   Nbeta   Ndocc  Nsocc
   -------------------------------------------------------
     A        252     252       0       0       0       0
   -------------------------------------------------------
    Total     252     252      48      48      48       0
   -------------------------------------------------------

  ==> Integral Setup <==

  Using integral reordering PK algorithm.
  Sizing the integral batches needed.
  Building batch lookup table.
   Calculation information:
      Number of atoms:                  27
      Number of AO shells:             120
      Number of primitives:            356
      Number of atomic orbitals:       265
      Number of basis functions:       252

      Integral cutoff                 1.00e-12
      Number of threads:                 1

	Batch   1 pq = [       0,    9405] index = [             0,44231715] size =     44231715
	Batch   2 pq = [    9405,   13301] index = [      44231715,88464951] size =     44233236
	Batch   3 pq = [   13301,   16290] index = [      88464951,132690195] size =     44225244
	Batch   4 pq = [   16290,   18810] index = [     132690195,176917455] size =     44227260
	Batch   5 pq = [   18810,   21030] index = [     176917455,221140965] size =     44223510
	Batch   6 pq = [   21030,   23037] index = [     221140965,265363203] size =     44222238
	Batch   7 pq = [   23037,   24883] index = [     265363203,309594286] size =     44231083
	Batch   8 pq = [   24883,   26601] index = [     309594286,353819901] size =     44225615
	Batch   9 pq = [   26601,   28214] index = [     353819901,398029005] size =     44209104
	Batch  10 pq = [   28214,   29740] index = [     398029005,442248670] size =     44219665
	Batch  11 pq = [   29740,   31191] index = [     442248670,486454836] size =     44206166
	Batch  12 pq = [   31191,   31878] index = [     486454836,508119381] size =     21664545
  Task number: 46
  Buffer size: 11059200
  Buffer per thread: 2
  We computed 18478783 shell quartets total.
  Whereas there are 26357430 unique shell quartets.

  ==> DiskJK: Disk-Based J/K Matrices <==

    J tasked:                  Yes
    K tasked:                  Yes
    wK tasked:                  No
    Memory [MiB]:              375
    Schwarz Cutoff:          1E-12

    OpenMP threads:              1

  Minimum eigenvalue in the overlap matrix is 1.2639944329E-03.
  Using Symmetric Orthogonalization.

  SCF Guess: Superposition of Atomic Densities via on-the-fly atomic UHF.

  ==> Iterations <==

                        Total Energy        Delta E     RMS |[F,P]|

   @RHF iter SAD:  -565.99916095444109   -5.65999e+02   0.00000e+00
   @RHF iter   1:  -566.47332576049939   -4.74165e-01   2.69918e-03 DIIS
   @RHF iter   2:  -566.70515882366931   -2.31833e-01   1.45430e-03 DIIS
   @RHF iter   3:  -566.76711991219236   -6.19611e-02   3.72661e-04 DIIS
   @RHF iter   4:  -566.77255027765511   -5.43037e-03   1.38716e-04 DIIS
   @RHF iter   5:  -566.77326185769573   -7.11580e-04   2.33101e-05 DIIS
   @RHF iter   6:  -566.77329656617076   -3.47085e-05   1.04053e-05 DIIS
   @RHF iter   7:  -566.77330290646364   -6.34029e-06   3.71571e-06 DIIS
   @RHF iter   8:  -566.77330423008709   -1.32362e-06   1.43668e-06 DIIS
   @RHF iter   9:  -566.77330448196528   -2.51878e-07   6.25656e-07 DIIS
   @RHF iter  10:  -566.77330451467310   -3.27078e-08   2.12710e-07 DIIS
   @RHF iter  11:  -566.77330451933176   -4.65866e-09   8.58476e-08 DIIS
   @RHF iter  12:  -566.77330452000410   -6.72344e-10   4.01340e-08 DIIS
   @RHF iter  13:  -566.77330452013427   -1.30171e-10   1.24473e-08 DIIS
   @RHF iter  14:  -566.77330452015281   -1.85310e-11   4.48919e-09 DIIS
   @RHF iter  15:  -566.77330452015588   -3.06954e-12   1.82799e-09 DIIS
   @RHF iter  16:  -566.77330452015667   -7.95808e-13   7.03480e-10 DIIS
   @RHF iter  17:  -566.77330452015644    2.27374e-13   2.90130e-10 DIIS
   @RHF iter  18:  -566.77330452015781   -1.36424e-12   6.54191e-11 DIIS
  Energy and wave function converged.

  ==> Post-Iterations <==

    Orbital Energies [Eh]
    ---------------------

    Doubly Occupied:

       1A    -15.626680     2A    -15.615321     3A    -15.540578
       4A    -15.519917     5A    -11.301216     6A    -11.284494
       7A    -11.253726     8A    -11.250819     9A    -11.246200
      10A    -11.238781    11A    -11.236542    12A    -11.227423
      13A    -11.219866    14A     -1.346448    15A     -1.332468
      16A     -1.160324    17A     -1.146369    18A     -1.062222
      19A     -1.019764    20A     -0.992900    21A     -0.934173
      22A     -0.871998    23A     -0.823450    24A     -0.810495
      25A     -0.770597    26A     -0.755024    27A     -0.745176
      28A     -0.732644    29A     -0.635537    30A     -0.615265
      31A     -0.604930    32A     -0.601746    33A     -0.594087
      34A     -0.588623    35A     -0.586472    36A     -0.574746
      37A     -0.546698    38A     -0.535416    39A     -0.521511
      40A     -0.514467    41A     -0.501191    42A     -0.493735
      43A     -0.421752    44A     -0.401263    45A     -0.384049
      46A     -0.371178    47A     -0.315538    48A     -0.300291

    Virtual:

      49A      0.159235    50A      0.167572    51A      0.176899
      52A      0.192466    53A      0.193539    54A      0.205604
      55A      0.211975    56A      0.222970    57A      0.226805
      58A      0.229903    59A      0.242944    60A      0.260891
      61A      0.271169    62A      0.274730    63A      0.279591
      64A      0.287477    65A      0.299856    66A      0.313817
      67A      0.365282    68A      0.382285    69A      0.387893
      70A      0.397455    71A      0.412752    72A      0.420869
      73A      0.449561    74A      0.469699    75A      0.476223
      76A      0.484580    77A      0.530944    78A      0.591570
      79A      0.605518    80A      0.616549    81A      0.619270
      82A      0.626495    83A      0.639546    84A      0.656864
      85A      0.662606    86A      0.667219    87A      0.688882
      88A      0.696565    89A      0.715400    90A      0.720695
      91A      0.745322    92A      0.751464    93A      0.758392
      94A      0.771825    95A      0.781188    96A      0.783709
      97A      0.800096    98A      0.810053    99A      0.827176
     100A      0.837504   101A      0.855837   102A      0.861301
     103A      0.868565   104A      0.875237   105A      0.884924
     106A      0.893012   107A      0.897186   108A      0.905917
     109A      0.912298   110A      0.924798   111A      0.925934
     112A      0.935183   113A      0.952196   114A      0.970134
     115A      0.972401   116A      0.975353   117A      0.985381
     118A      1.008952   119A      1.017325   120A      1.041529
     121A      1.053933   122A      1.071232   123A      1.083209
     124A      1.089959   125A      1.113828   126A      1.116109
     127A      1.129052   128A      1.143476   129A      1.164311
     130A      1.173523   131A      1.177909   132A      1.208618
     133A      1.225852   134A      1.249806   135A      1.257188
     136A      1.273010   137A      1.281560   138A      1.294655
     139A      1.314793   140A      1.327717   141A      1.341219
     142A      1.371523   143A      1.391343   144A      1.411897
     145A      1.436847   146A      1.438370   147A      1.460403
     148A      1.464973   149A      1.488053   150A      1.493849
     151A      1.538095   152A      1.557965   153A      1.567253
     154A      1.575487   155A      1.584263   156A      1.606225
     157A      1.649519   158A      1.659356   159A      1.683748
     160A      1.701954   161A      1.713048   162A      1.720763
     163A      1.740361   164A      1.760140   165A      1.788010
     166A      1.796605   167A      1.804364   168A      1.824208
     169A      1.839770   170A      1.853612   171A      1.871837
     172A      1.897387   173A      1.908214   174A      1.918889
     175A      1.923509   176A      1.927028   177A      1.938994
     178A      1.944646   179A      1.948102   180A      1.959026
     181A      1.971667   182A      1.976523   183A      1.980037
     184A      1.988283   185A      1.998249   186A      2.015897
     187A      2.041709   188A      2.046283   189A      2.055427
     190A      2.061027   191A      2.081554   192A      2.100054
     193A      2.111381   194A      2.140071   195A      2.160242
     196A      2.170935   197A      2.211593   198A      2.219783
     199A      2.223091   200A      2.227059   201A      2.246930
     202A      2.260881   203A      2.302671   204A      2.309872
     205A      2.318379   206A      2.332600   207A      2.379233
     208A      2.390929   209A      2.410745   210A      2.449161
     211A      2.452705   212A      2.457821   213A      2.499808
     214A      2.501366   215A      2.515314   216A      2.562566
     217A      2.563395   218A      2.591301   219A      2.599101
     220A      2.615164   221A      2.661183   222A      2.685370
     223A      2.717277   224A      2.724265   225A      2.751569
     226A      2.756424   227A      2.766184   228A      2.772433
     229A      2.792437   230A      2.800952   231A      2.819797
     232A      2.843566   233A      2.866010   234A      2.869347
     235A      2.881279   236A      2.896154   237A      2.901699
     238A      2.920316   239A      2.929626   240A      2.950964
     241A      2.962440   242A      3.018417   243A      3.069572
     244A      3.113322   245A      3.153088   246A      3.177357
     247A      3.243592   248A      3.247792   249A      3.439900
     250A      3.468444   251A      3.755109   252A      3.795736

    Final Occupation by Irrep:
              A
    DOCC [    48 ]

  @RHF Final Energy:  -566.77330452015781

   => Energetics <=

    Nuclear Repulsion Energy =            710.2566941079702474
    One-Electron Energy =               -2177.7117775437563978
    Two-Electron Energy =                 900.6817789156282288
    Total Energy =                       -566.7733045201578079

Computation Completed

Properties will be evaluated at   0.000000,   0.000000,   0.000000 [a0]

Properties computed using the SCF density matrix

  Nuclear Dipole Moment: [e a0]
     X:     1.8723      Y:     3.8498      Z:    -2.7272

  Electronic Dipole Moment: [e a0]
     X:     0.2663      Y:    -5.5707      Z:     2.7065

  Dipole Moment: [e a0]
     X:     2.1386      Y:    -1.7209      Z:    -0.0206     Total:     2.7451

  Dipole Moment: [D]
     X:     5.4357      Y:    -4.3741      Z:    -0.0524     Total:     6.9773

*** tstop() called on ds3 at Mon Apr 27 06:45:10 2020
Module time:
	user time   =     152.64 seconds =       2.54 minutes
	system time =      78.76 seconds =       1.31 minutes
	total time  =        243 seconds =       4.05 minutes
Total time:
	user time   =     152.64 seconds =       2.54 minutes
	system time =      78.76 seconds =       1.31 minutes
	total time  =        243 seconds =       4.05 minutes
                                     G D M A

                                 by Anthony Stone

                           version 2.2.06, 22 June 2011

               Distributed Multipoles from Gaussian wavefunctions

Starting at 6:45:10 on 27 Apr 2020

Using SCF density matrix from file ./SSI/SSI-091HIE-125HIE-1-dimer.test.29883.fchk

                         Distributed Multipole Analysis

Standard DMA

Positions and radii in angstrom
Multipole moments in atomic units, ea_0^k for rank k

C          x = -4.213089  y =  1.755272  z = -3.070775 angstrom
           Maximum rank =  0   Radius =  0.650 angstrom
                   Q00  =  -0.195380

C          x = -1.253089  y =  1.826272  z = -0.944775 angstrom
           Maximum rank =  0   Radius =  0.650 angstrom
                   Q00  =   0.464421

C          x = -2.852089  y =  1.568272  z = -2.443775 angstrom
           Maximum rank =  0   Radius =  0.650 angstrom
                   Q00  =   0.222302

C          x = -1.794089  y =  0.761272  z = -2.787775 angstrom
           Maximum rank =  0   Radius =  0.650 angstrom
                   Q00  =  -0.006849

N          x = -2.490089  y =  2.188272  z = -1.268775 angstrom
           Maximum rank =  0   Radius =  0.650 angstrom
                   Q00  =  -0.767552

N          x = -0.791089  y =  0.987272  z = -1.863775 angstrom
           Maximum rank =  0   Radius =  0.650 angstrom
                   Q00  =  -0.473823

H          x = -0.711089  y =  2.173272  z = -0.074775 angstrom
           Maximum rank =  0   Radius =  0.325 angstrom
                   Q00  =   0.123567

H          x =  0.142911  y =  0.587272  z = -1.884775 angstrom
           Maximum rank =  0   Radius =  0.325 angstrom
                   Q00  =   0.227470

H          x = -1.747089  y =  0.110272  z = -3.648775 angstrom
           Maximum rank =  0   Radius =  0.325 angstrom
                   Q00  =   0.098963

H          x = -4.954089  y =  1.773272  z = -2.271775 angstrom
           Maximum rank =  0   Radius =  0.325 angstrom
                   Q00  =   0.117257

H          x = -4.414089  y =  0.888272  z = -3.694775 angstrom
           Maximum rank =  0   Radius =  0.325 angstrom
                   Q00  =   0.091030

H          x = -4.337329  y =  2.643492  z = -3.707665 angstrom
           Maximum rank =  0   Radius =  0.325 angstrom
                   Q00  =   0.104674

C          x =  1.779911  y =  0.143272  z =  0.677225 angstrom
           Maximum rank =  0   Radius =  0.650 angstrom
                   Q00  =  -0.055943

C          x =  2.343911  y =  1.333272  z =  1.466225 angstrom
           Maximum rank =  0   Radius =  0.650 angstrom
                   Q00  =  -0.226444

C          x =  1.825911  y = -1.152728  z =  1.414225 angstrom
           Maximum rank =  0   Radius =  0.650 angstrom
                   Q00  =   0.234117

C          x =  2.788911  y = -2.118728  z =  1.399225 angstrom
           Maximum rank =  0   Radius =  0.650 angstrom
                   Q00  =  -0.026106

C          x =  1.258911  y = -2.719728  z =  2.849225 angstrom
           Maximum rank =  0   Radius =  0.650 angstrom
                   Q00  =   0.450060

N          x =  0.832911  y = -1.574728  z =  2.298225 angstrom
           Maximum rank =  0   Radius =  0.650 angstrom
                   Q00  =  -0.771190

N          x =  2.402911  y = -3.092728  z =  2.278225 angstrom
           Maximum rank =  0   Radius =  0.650 angstrom
                   Q00  =  -0.444497

H          x =  0.746911  y =  0.346272  z =  0.399225 angstrom
           Maximum rank =  0   Radius =  0.325 angstrom
                   Q00  =   0.070688

H          x =  2.356911  y =  0.023272  z = -0.237775 angstrom
           Maximum rank =  0   Radius =  0.325 angstrom
                   Q00  =   0.054663

H          x =  3.347911  y =  1.063272  z =  1.797225 angstrom
           Maximum rank =  0   Radius =  0.325 angstrom
                   Q00  =   0.080950

H          x =  3.793911  y = -2.055728  z =  1.104225 angstrom
           Maximum rank =  0   Radius =  0.325 angstrom
                   Q00  =   0.102819

H          x =  0.725911  y = -3.287728  z =  3.603225 angstrom
           Maximum rank =  0   Radius =  0.325 angstrom
                   Q00  =   0.125177

H          x =  2.938911  y = -3.905728  z =  2.557225 angstrom
           Maximum rank =  0   Radius =  0.325 angstrom
                   Q00  =   0.221445

H          x =  1.688511  y =  1.518792  z =  2.329955 angstrom
           Maximum rank =  0   Radius =  0.325 angstrom
                   Q00  =   0.096869

H          x =  2.418831  y =  2.223642  z =  0.824635 angstrom
           Maximum rank =  0   Radius =  0.325 angstrom
                   Q00  =   0.081314

Total multipoles referred to origin at
           x =   0.000000,  y =    0.000000,  z =    0.000000 angstrom
                   Q00  =  -0.000000

Finished at 6:45:11 on 27 Apr 2020

  DMA results are available in the Python driver through the
	  variable('DMA DISTRIBUTED MULTIPOLES')
  and
	  variable('DMA TOTAL MULTIPOLES')
  commands.

    Psi4 stopped on: Monday, 27 April 2020 06:45AM
    Psi4 wall time for execution: 0:04:03.22

*** Psi4 exiting successfully. Buy a developer a beer!
