                               Psi4 1.3.2 release

  ==> Input File <==

--------------------------------------------------------------------------
import numpy as np
set {scf_type pk
basis cc-pvdz
d_convergence 10
gdma_switch   0
gdma_limit    0
gdma_origin   [ 0.0,  0.0,  0.0 ]
}
molecule test {
    units Angstrom
    -1 1
    --
    -1 1
    C                0.256400778588175    -1.298606014600868     2.581393074391956
    C               -0.539599221411825    -1.674606014600867     3.833393074391956
    H               -0.333599221411825    -1.481606014600867     1.686393074391956
    H                0.513400778588175    -0.240606014600867     2.632393074391956
    H                1.177400778588175    -1.880606014600868     2.535393074391956
    H                0.050400778588175    -1.371606014600868     4.698393074391957
    H               -0.688499221411825    -2.763426014600867     3.881353074391956
    H               -1.497639221411825    -1.135396014600867     3.870883074391956
    C                0.187400778588175     1.006393985399133    -0.329606925608044
    C               -1.287599221411825     1.304393985399132    -0.012606925608044
    C                0.407400778588175     0.413393985399133    -1.717606925608044
    O               -0.585599221411825     0.147393985399133    -2.433606925608044
    O                1.590400778588175     0.196393985399133    -2.081606925608043
    H                0.778400778588175     1.917393985399132    -0.223606925608044
    H                0.567400778588175     0.295393985399133     0.399393074391956
    H               -1.328599221411825     1.582393985399132     1.041393074391956
    H               -1.909519221411825     0.407233985399133    -0.147969925608044
    H               -1.655059221411825     2.179823985399133    -0.568123925608044

}
e, wfn = energy('scf', return_wfn=True)
gdma(wfn)
dmavals = variable('DMA DISTRIBUTED MULTIPOLES')
charges = np.array(dmavals)
print(charges)
np.save('SSI-121VAL-157ASP-1-dimer.npy', np.array(charges))--------------------------------------------------------------------------

*** tstart() called on ds3
*** at Mon Apr 27 16:30:45 2020

   => Loading Basis Set <=

    Name: CC-PVDZ
    Role: ORBITAL
    Keyword: BASIS
    atoms 1-2, 9-11  entry C          line   138 file /theoryfs2/ds/metcalf/miniconda2/envs/tf2gpu/share/psi4/basis/cc-pvdz.gbs
    atoms 3-8, 14-18 entry H          line    22 file /theoryfs2/ds/metcalf/miniconda2/envs/tf2gpu/share/psi4/basis/cc-pvdz.gbs
    atoms 12-13      entry O          line   198 file /theoryfs2/ds/metcalf/miniconda2/envs/tf2gpu/share/psi4/basis/cc-pvdz.gbs

         ---------------------------------------------------------
                                   SCF
               by Justin Turney, Rob Parrish, Andy Simmonett
                          and Daniel G. A. Smith
                              RHF Reference
                        1 Threads,    500 MiB Core
         ---------------------------------------------------------

  ==> Geometry <==

    Molecular point group: c1
    Full point group: C1

    Geometry (in Angstrom), charge = -1, multiplicity = 1:

       Center              X                  Y                   Z               Mass
    ------------   -----------------  -----------------  -----------------  -----------------
         C            0.256400778588    -1.298606014601     2.581393074392    12.000000000000
         C           -0.539599221412    -1.674606014601     3.833393074392    12.000000000000
         H           -0.333599221412    -1.481606014601     1.686393074392     1.007825032230
         H            0.513400778588    -0.240606014601     2.632393074392     1.007825032230
         H            1.177400778588    -1.880606014601     2.535393074392     1.007825032230
         H            0.050400778588    -1.371606014601     4.698393074392     1.007825032230
         H           -0.688499221412    -2.763426014601     3.881353074392     1.007825032230
         H           -1.497639221412    -1.135396014601     3.870883074392     1.007825032230
         C            0.187400778588     1.006393985399    -0.329606925608    12.000000000000
         C           -1.287599221412     1.304393985399    -0.012606925608    12.000000000000
         C            0.407400778588     0.413393985399    -1.717606925608    12.000000000000
         O           -0.585599221412     0.147393985399    -2.433606925608    15.994914619570
         O            1.590400778588     0.196393985399    -2.081606925608    15.994914619570
         H            0.778400778588     1.917393985399    -0.223606925608     1.007825032230
         H            0.567400778588     0.295393985399     0.399393074392     1.007825032230
         H           -1.328599221412     1.582393985399     1.041393074392     1.007825032230
         H           -1.909519221412     0.407233985399    -0.147969925608     1.007825032230
         H           -1.655059221412     2.179823985399    -0.568123925608     1.007825032230

  Running in c1 symmetry.

  Rotational constants: A =      0.12449  B =      0.02666  C =      0.02426 [cm^-1]
  Rotational constants: A =   3732.13577  B =    799.39455  C =    727.32741 [MHz]
  Nuclear repulsion =  286.006951300356775

  Charge       = -1
  Multiplicity = 1
  Electrons    = 58
  Nalpha       = 29
  Nbeta        = 29

  ==> Algorithm <==

  SCF Algorithm Type is PK.
  DIIS enabled.
  MOM disabled.
  Fractional occupation disabled.
  Guess Type is SAD.
  Energy threshold   = 1.00e-06
  Density threshold  = 1.00e-10
  Integral threshold = 0.00e+00

  ==> Primary Basis <==

  Basis Set: CC-PVDZ
    Blend: CC-PVDZ
    Number of shells: 75
    Number of basis function: 153
    Number of Cartesian functions: 160
    Spherical Harmonics?: true
    Max angular momentum: 2

  ==> Pre-Iterations <==

   -------------------------------------------------------
    Irrep   Nso     Nmo     Nalpha   Nbeta   Ndocc  Nsocc
   -------------------------------------------------------
     A        153     153       0       0       0       0
   -------------------------------------------------------
    Total     153     153      29      29      29       0
   -------------------------------------------------------

  ==> Integral Setup <==

  Using integral reordering PK algorithm.
  Sizing the integral batches needed.
  Building batch lookup table.
   Calculation information:
      Number of atoms:                  18
      Number of AO shells:              75
      Number of primitives:            209
      Number of atomic orbitals:       160
      Number of basis functions:       153

      Integral cutoff                 1.00e-12
      Number of threads:                 1

	Batch   1 pq = [       0,    9405] index = [             0,44231715] size =     44231715
	Batch   2 pq = [    9405,   11781] index = [      44231715,69401871] size =     25170156
  Task number: 7
  Buffer size: 11059200
  Buffer per thread: 2
  We computed 3370816 shell quartets total.
  Whereas there are 4062675 unique shell quartets.

  ==> DiskJK: Disk-Based J/K Matrices <==

    J tasked:                  Yes
    K tasked:                  Yes
    wK tasked:                  No
    Memory [MiB]:              375
    Schwarz Cutoff:          1E-12

    OpenMP threads:              1

  Minimum eigenvalue in the overlap matrix is 3.6285080311E-03.
  Using Symmetric Orthogonalization.

  SCF Guess: Superposition of Atomic Densities via on-the-fly atomic UHF.

  ==> Iterations <==

                        Total Energy        Delta E     RMS |[F,P]|

   @RHF iter SAD:  -343.83292033907611   -3.43833e+02   0.00000e+00
   @RHF iter   1:  -345.21717287419824   -1.38425e+00   4.91565e-03 DIIS
   @RHF iter   2:  -345.43910066244155   -2.21928e-01   2.72217e-03 DIIS
   @RHF iter   3:  -345.50425341025863   -6.51527e-02   4.29865e-04 DIIS
   @RHF iter   4:  -345.50730951984724   -3.05611e-03   1.68365e-04 DIIS
   @RHF iter   5:  -345.50775863499433   -4.49115e-04   2.47576e-05 DIIS
   @RHF iter   6:  -345.50777215109412   -1.35161e-05   6.96619e-06 DIIS
   @RHF iter   7:  -345.50777288710412   -7.36010e-07   2.77316e-06 DIIS
   @RHF iter   8:  -345.50777298903932   -1.01935e-07   7.69498e-07 DIIS
   @RHF iter   9:  -345.50777299875762   -9.71829e-09   2.09818e-07 DIIS
   @RHF iter  10:  -345.50777299993422   -1.17660e-09   5.08000e-08 DIIS
   @RHF iter  11:  -345.50777300002136   -8.71410e-11   1.30962e-08 DIIS
   @RHF iter  12:  -345.50777300002966   -8.29914e-12   5.23478e-09 DIIS
   @RHF iter  13:  -345.50777300002994   -2.84217e-13   2.14178e-09 DIIS
   @RHF iter  14:  -345.50777300003108   -1.13687e-12   7.51323e-10 DIIS
   @RHF iter  15:  -345.50777300002949    1.59162e-12   2.60832e-10 DIIS
   @RHF iter  16:  -345.50777300002898    5.11591e-13   8.60312e-11 DIIS
  Energy and wave function converged.

  ==> Post-Iterations <==

    Orbital Energies [Eh]
    ---------------------

    Doubly Occupied:

       1A    -20.256137     2A    -20.248149     3A    -11.136940
       4A    -11.121452     5A    -11.108322     6A    -11.071485
       7A    -11.050556     8A     -1.140097     9A     -1.026757
      10A     -0.929870    11A     -0.865672    12A     -0.747762
      13A     -0.699916    14A     -0.512535    15A     -0.509234
      16A     -0.500398    17A     -0.457713    18A     -0.424385
      19A     -0.409765    20A     -0.398253    21A     -0.395030
      22A     -0.382189    23A     -0.356480    24A     -0.351955
      25A     -0.323090    26A     -0.293252    27A     -0.175893
      28A     -0.163669    29A     -0.153262

    Virtual:

      30A      0.266712    31A      0.317610    32A      0.329032
      33A      0.334000    34A      0.356065    35A      0.363364
      36A      0.377957    37A      0.390683    38A      0.417704
      39A      0.427791    40A      0.448711    41A      0.487734
      42A      0.518757    43A      0.554912    44A      0.622536
      45A      0.679855    46A      0.686454    47A      0.696292
      48A      0.719193    49A      0.736256    50A      0.758661
      51A      0.767025    52A      0.793193    53A      0.865578
      54A      0.905933    55A      0.929649    56A      0.956282
      57A      0.963375    58A      0.972973    59A      0.976057
      60A      0.991817    61A      0.998063    62A      1.014856
      63A      1.022739    64A      1.032603    65A      1.050311
      66A      1.061568    67A      1.065056    68A      1.072566
      69A      1.083111    70A      1.095141    71A      1.130740
      72A      1.148589    73A      1.210963    74A      1.228577
      75A      1.295821    76A      1.304768    77A      1.318889
      78A      1.369733    79A      1.397788    80A      1.454910
      81A      1.495055    82A      1.532790    83A      1.569082
      84A      1.574118    85A      1.603506    86A      1.621572
      87A      1.651632    88A      1.662920    89A      1.671659
      90A      1.737416    91A      1.760505    92A      1.789061
      93A      1.829742    94A      1.843926    95A      1.866990
      96A      1.925264    97A      1.951089    98A      1.955923
      99A      1.989582   100A      2.014643   101A      2.025032
     102A      2.037182   103A      2.041034   104A      2.044836
     105A      2.056146   106A      2.068382   107A      2.091587
     108A      2.124357   109A      2.155816   110A      2.171169
     111A      2.179432   112A      2.189892   113A      2.198728
     114A      2.218765   115A      2.235594   116A      2.265987
     117A      2.343288   118A      2.389188   119A      2.390051
     120A      2.416296   121A      2.475172   122A      2.486222
     123A      2.535355   124A      2.544364   125A      2.575163
     126A      2.626179   127A      2.650524   128A      2.656212
     129A      2.665259   130A      2.715198   131A      2.765859
     132A      2.800220   133A      2.843834   134A      2.889630
     135A      2.923910   136A      2.931082   137A      2.942779
     138A      2.993983   139A      3.007102   140A      3.038662
     141A      3.058752   142A      3.091289   143A      3.113181
     144A      3.251204   145A      3.296043   146A      3.307591
     147A      3.369053   148A      3.640372   149A      3.784419
     150A      3.831983   151A      4.052218   152A      4.082382
     153A      4.208310

    Final Occupation by Irrep:
              A
    DOCC [    29 ]

  @RHF Final Energy:  -345.50777300002898

   => Energetics <=

    Nuclear Repulsion Energy =            286.0069513003567749
    One-Electron Energy =               -1048.6090121155198176
    Two-Electron Energy =                 417.0942878151340096
    Total Energy =                       -345.5077730000289762

Computation Completed

Properties will be evaluated at   0.000000,   0.000000,   0.000000 [a0]

Properties computed using the SCF density matrix

  Nuclear Dipole Moment: [e a0]
     X:    -4.0506      Y:    -2.3336      Z:    18.5457

  Electronic Dipole Moment: [e a0]
     X:     3.2331      Y:     2.0736      Z:   -14.3918

  Dipole Moment: [e a0]
     X:    -0.8175      Y:    -0.2600      Z:     4.1539     Total:     4.2416

  Dipole Moment: [D]
     X:    -2.0779      Y:    -0.6609      Z:    10.5583     Total:    10.7811

*** tstop() called on ds3 at Mon Apr 27 16:31:23 2020
Module time:
	user time   =      26.75 seconds =       0.45 minutes
	system time =      13.33 seconds =       0.22 minutes
	total time  =         38 seconds =       0.63 minutes
Total time:
	user time   =      26.75 seconds =       0.45 minutes
	system time =      13.33 seconds =       0.22 minutes
	total time  =         38 seconds =       0.63 minutes
                                     G D M A

                                 by Anthony Stone

                           version 2.2.06, 22 June 2011

               Distributed Multipoles from Gaussian wavefunctions

Starting at 16:31:23 on 27 Apr 2020

Using SCF density matrix from file ./SSI/SSI-121VAL-157ASP-1-dimer.test.27043.fchk

                         Distributed Multipole Analysis

Standard DMA

Positions and radii in angstrom
Multipole moments in atomic units, ea_0^k for rank k

C          x =  0.256401  y = -1.298606  z =  2.581393 angstrom
           Maximum rank =  0   Radius =  0.650 angstrom
                   Q00  =  -0.215686

C          x = -0.539599  y = -1.674606  z =  3.833393 angstrom
           Maximum rank =  0   Radius =  0.650 angstrom
                   Q00  =  -0.242502

H          x = -0.333599  y = -1.481606  z =  1.686393 angstrom
           Maximum rank =  0   Radius =  0.325 angstrom
                   Q00  =   0.099999

H          x =  0.513401  y = -0.240606  z =  2.632393 angstrom
           Maximum rank =  0   Radius =  0.325 angstrom
                   Q00  =   0.082930

H          x =  1.177401  y = -1.880606  z =  2.535393 angstrom
           Maximum rank =  0   Radius =  0.325 angstrom
                   Q00  =   0.072396

H          x =  0.050401  y = -1.371606  z =  4.698393 angstrom
           Maximum rank =  0   Radius =  0.325 angstrom
                   Q00  =   0.061156

H          x = -0.688499  y = -2.763426  z =  3.881353 angstrom
           Maximum rank =  0   Radius =  0.325 angstrom
                   Q00  =   0.068329

H          x = -1.497639  y = -1.135396  z =  3.870883 angstrom
           Maximum rank =  0   Radius =  0.325 angstrom
                   Q00  =   0.078896

C          x =  0.187401  y =  1.006394  z = -0.329607 angstrom
           Maximum rank =  0   Radius =  0.650 angstrom
                   Q00  =  -0.151567

C          x = -1.287599  y =  1.304394  z = -0.012607 angstrom
           Maximum rank =  0   Radius =  0.650 angstrom
                   Q00  =  -0.228529

C          x =  0.407401  y =  0.413394  z = -1.717607 angstrom
           Maximum rank =  0   Radius =  0.650 angstrom
                   Q00  =   1.035404

O          x = -0.585599  y =  0.147394  z = -2.433607 angstrom
           Maximum rank =  0   Radius =  0.650 angstrom
                   Q00  =  -0.962472

O          x =  1.590401  y =  0.196394  z = -2.081607 angstrom
           Maximum rank =  0   Radius =  0.650 angstrom
                   Q00  =  -0.952767

H          x =  0.778401  y =  1.917394  z = -0.223607 angstrom
           Maximum rank =  0   Radius =  0.325 angstrom
                   Q00  =   0.042100

H          x =  0.567401  y =  0.295394  z =  0.399393 angstrom
           Maximum rank =  0   Radius =  0.325 angstrom
                   Q00  =   0.047295

H          x = -1.328599  y =  1.582394  z =  1.041393 angstrom
           Maximum rank =  0   Radius =  0.325 angstrom
                   Q00  =   0.003482

H          x = -1.909519  y =  0.407234  z = -0.147970 angstrom
           Maximum rank =  0   Radius =  0.325 angstrom
                   Q00  =   0.088600

H          x = -1.655059  y =  2.179824  z = -0.568124 angstrom
           Maximum rank =  0   Radius =  0.325 angstrom
                   Q00  =   0.072935

Total multipoles referred to origin at
           x =   0.000000,  y =    0.000000,  z =    0.000000 angstrom
                   Q00  =  -1.000000

Finished at 16:31:23 on 27 Apr 2020

  DMA results are available in the Python driver through the
	  variable('DMA DISTRIBUTED MULTIPOLES')
  and
	  variable('DMA TOTAL MULTIPOLES')
  commands.

    Psi4 stopped on: Monday, 27 April 2020 04:31PM
    Psi4 wall time for execution: 0:00:38.82

*** Psi4 exiting successfully. Buy a developer a beer!
