                               Psi4 1.3.2 release

  ==> Input File <==

--------------------------------------------------------------------------
import numpy as np
set {scf_type pk
basis cc-pvdz
d_convergence 10
gdma_switch   0
gdma_limit    0
gdma_origin   [ 0.0,  0.0,  0.0 ]
}
molecule test {
    units Angstrom
    0 1
    --
    0 1
    C                1.604307351828074    -0.002170526932188     2.836629247760547
    C                2.695307351828074    -0.031170526932188     3.970629247760547
    H                1.840307351828074     0.775829473067812     2.109629247760547
    H                1.559307351828074    -0.964170526932188     2.327629247760548
    H                0.616307351828074     0.187829473067812     3.254629247760547
    H                2.421307351828074    -0.801170526932188     4.686629247760548
    H                2.748417351828074     0.923479473067812     4.514529247760548
    H                3.676487351828074    -0.292866526932188     3.547779247760547
    C               -1.205692648171926     2.502829473067813    -2.405370752239453
    C               -0.298692648171926    -1.170170526932188    -0.296370752239452
    C               -1.616692648171926    -0.878170526932188    -0.648370752239452
    C                0.761307351828074    -0.265170526932188    -0.591370752239452
    C               -1.910692648171926     0.324829473067812    -1.283370752239452
    C                0.460307351828074     0.942829473067812    -1.239370752239452
    C               -0.878692648171926     1.235829473067812    -1.625370752239452
    O               -0.071692648171926    -2.346170526932188     0.364629247760548
    H               -2.412692648171926    -1.568170526932188    -0.406370752239452
    H               -0.878692648171926    -2.853170526932188     0.495629247760548
    H                1.773307351828074    -0.501170526932188    -0.299370752239452
    H               -2.933692648171926     0.547829473067812    -1.557370752239452
    H                1.252307351828074     1.640829473067812    -1.471370752239452
    H               -0.617692648171926     3.334829473067813    -2.014370752239453
    H               -2.253692648171926     2.738829473067812    -2.221370752239453
    H               -1.018930648171926     2.400894473067813    -3.484596752239453

}
e, wfn = energy('scf', return_wfn=True)
gdma(wfn)
dmavals = variable('DMA DISTRIBUTED MULTIPOLES')
charges = np.array(dmavals)
print(charges)
np.save('SSI-181ILE-228TYR-1-dimer.npy', np.array(charges))--------------------------------------------------------------------------

*** tstart() called on ds3
*** at Tue Apr 28 11:47:27 2020

   => Loading Basis Set <=

    Name: CC-PVDZ
    Role: ORBITAL
    Keyword: BASIS
    atoms 1-2, 9-15  entry C          line   138 file /theoryfs2/ds/metcalf/miniconda2/envs/tf2gpu/share/psi4/basis/cc-pvdz.gbs
    atoms 3-8, 17-24 entry H          line    22 file /theoryfs2/ds/metcalf/miniconda2/envs/tf2gpu/share/psi4/basis/cc-pvdz.gbs
    atoms 16         entry O          line   198 file /theoryfs2/ds/metcalf/miniconda2/envs/tf2gpu/share/psi4/basis/cc-pvdz.gbs

         ---------------------------------------------------------
                                   SCF
               by Justin Turney, Rob Parrish, Andy Simmonett
                          and Daniel G. A. Smith
                              RHF Reference
                        1 Threads,    500 MiB Core
         ---------------------------------------------------------

  ==> Geometry <==

    Molecular point group: c1
    Full point group: C1

    Geometry (in Angstrom), charge = 0, multiplicity = 1:

       Center              X                  Y                   Z               Mass
    ------------   -----------------  -----------------  -----------------  -----------------
         C            1.604307351828    -0.002170526932     2.836629247761    12.000000000000
         C            2.695307351828    -0.031170526932     3.970629247761    12.000000000000
         H            1.840307351828     0.775829473068     2.109629247761     1.007825032230
         H            1.559307351828    -0.964170526932     2.327629247761     1.007825032230
         H            0.616307351828     0.187829473068     3.254629247761     1.007825032230
         H            2.421307351828    -0.801170526932     4.686629247761     1.007825032230
         H            2.748417351828     0.923479473068     4.514529247761     1.007825032230
         H            3.676487351828    -0.292866526932     3.547779247761     1.007825032230
         C           -1.205692648172     2.502829473068    -2.405370752239    12.000000000000
         C           -0.298692648172    -1.170170526932    -0.296370752239    12.000000000000
         C           -1.616692648172    -0.878170526932    -0.648370752239    12.000000000000
         C            0.761307351828    -0.265170526932    -0.591370752239    12.000000000000
         C           -1.910692648172     0.324829473068    -1.283370752239    12.000000000000
         C            0.460307351828     0.942829473068    -1.239370752239    12.000000000000
         C           -0.878692648172     1.235829473068    -1.625370752239    12.000000000000
         O           -0.071692648172    -2.346170526932     0.364629247761    15.994914619570
         H           -2.412692648172    -1.568170526932    -0.406370752239     1.007825032230
         H           -0.878692648172    -2.853170526932     0.495629247761     1.007825032230
         H            1.773307351828    -0.501170526932    -0.299370752239     1.007825032230
         H           -2.933692648172     0.547829473068    -1.557370752239     1.007825032230
         H            1.252307351828     1.640829473068    -1.471370752239     1.007825032230
         H           -0.617692648172     3.334829473068    -2.014370752239     1.007825032230
         H           -2.253692648172     2.738829473068    -2.221370752239     1.007825032230
         H           -1.018930648172     2.400894473068    -3.484596752239     1.007825032230

  Running in c1 symmetry.

  Rotational constants: A =      0.05753  B =      0.01978  C =      0.01622 [cm^-1]
  Rotational constants: A =   1724.76245  B =    593.07435  C =    486.26003 [MHz]
  Nuclear repulsion =  488.419522859395670

  Charge       = 0
  Multiplicity = 1
  Electrons    = 76
  Nalpha       = 38
  Nbeta        = 38

  ==> Algorithm <==

  SCF Algorithm Type is PK.
  DIIS enabled.
  MOM disabled.
  Fractional occupation disabled.
  Guess Type is SAD.
  Energy threshold   = 1.00e-06
  Density threshold  = 1.00e-10
  Integral threshold = 0.00e+00

  ==> Primary Basis <==

  Basis Set: CC-PVDZ
    Blend: CC-PVDZ
    Number of shells: 102
    Number of basis function: 210
    Number of Cartesian functions: 220
    Spherical Harmonics?: true
    Max angular momentum: 2

  ==> Pre-Iterations <==

   -------------------------------------------------------
    Irrep   Nso     Nmo     Nalpha   Nbeta   Ndocc  Nsocc
   -------------------------------------------------------
     A        210     210       0       0       0       0
   -------------------------------------------------------
    Total     210     210      38      38      38       0
   -------------------------------------------------------

  ==> Integral Setup <==

  Using integral reordering PK algorithm.
  Sizing the integral batches needed.
  Building batch lookup table.
   Calculation information:
      Number of atoms:                  24
      Number of AO shells:             102
      Number of primitives:            290
      Number of atomic orbitals:       220
      Number of basis functions:       210

      Integral cutoff                 1.00e-12
      Number of threads:                 1

	Batch   1 pq = [       0,    9405] index = [             0,44231715] size =     44231715
	Batch   2 pq = [    9405,   13301] index = [      44231715,88464951] size =     44233236
	Batch   3 pq = [   13301,   16290] index = [      88464951,132690195] size =     44225244
	Batch   4 pq = [   16290,   18810] index = [     132690195,176917455] size =     44227260
	Batch   5 pq = [   18810,   21030] index = [     176917455,221140965] size =     44223510
	Batch   6 pq = [   21030,   22155] index = [     221140965,245433090] size =     24292125
  Task number: 23
  Buffer size: 11059200
  Buffer per thread: 2
  We computed 11122365 shell quartets total.
  Whereas there are 13799631 unique shell quartets.

  ==> DiskJK: Disk-Based J/K Matrices <==

    J tasked:                  Yes
    K tasked:                  Yes
    wK tasked:                  No
    Memory [MiB]:              375
    Schwarz Cutoff:          1E-12

    OpenMP threads:              1

  Minimum eigenvalue in the overlap matrix is 3.6180139020E-04.
  Using Symmetric Orthogonalization.

  SCF Guess: Superposition of Atomic Densities via on-the-fly atomic UHF.

  ==> Iterations <==

                        Total Energy        Delta E     RMS |[F,P]|

   @RHF iter SAD:  -422.39768959261045   -4.22398e+02   0.00000e+00
   @RHF iter   1:  -423.60533653703783   -1.20765e+00   2.91609e-03 DIIS
   @RHF iter   2:  -423.81547798776074   -2.10141e-01   1.20887e-03 DIIS
   @RHF iter   3:  -423.84772610829936   -3.22481e-02   2.80342e-04 DIIS
   @RHF iter   4:  -423.85052457031657   -2.79846e-03   1.15709e-04 DIIS
   @RHF iter   5:  -423.85086808732422   -3.43517e-04   2.06628e-05 DIIS
   @RHF iter   6:  -423.85088574531085   -1.76580e-05   6.64720e-06 DIIS
   @RHF iter   7:  -423.85088752426566   -1.77895e-06   2.25628e-06 DIIS
   @RHF iter   8:  -423.85088780750181   -2.83236e-07   8.39640e-07 DIIS
   @RHF iter   9:  -423.85088785989961   -5.23978e-08   3.39422e-07 DIIS
   @RHF iter  10:  -423.85088787054673   -1.06471e-08   1.49423e-07 DIIS
   @RHF iter  11:  -423.85088787397842   -3.43169e-09   6.40814e-08 DIIS
   @RHF iter  12:  -423.85088787450849   -5.30065e-10   2.73749e-08 DIIS
   @RHF iter  13:  -423.85088787457670   -6.82121e-11   8.76856e-09 DIIS
   @RHF iter  14:  -423.85088787458318   -6.48015e-12   2.55805e-09 DIIS
   @RHF iter  15:  -423.85088787458170    1.47793e-12   1.04788e-09 DIIS
   @RHF iter  16:  -423.85088787458244   -7.38964e-13   4.88606e-10 DIIS
   @RHF iter  17:  -423.85088787458261   -1.70530e-13   2.15778e-10 DIIS
   @RHF iter  18:  -423.85088787458420   -1.59162e-12   9.28417e-11 DIIS
  Energy and wave function converged.

  ==> Post-Iterations <==

    Orbital Energies [Eh]
    ---------------------

    Doubly Occupied:

       1A    -20.583430     2A    -11.305122     3A    -11.244695
       4A    -11.242341     5A    -11.240460     6A    -11.238424
       7A    -11.234119     8A    -11.229938     9A    -11.215385
      10A    -11.209623    11A     -1.398372    12A     -1.140506
      13A     -1.029562    14A     -1.016642    15A     -0.998442
      16A     -0.922145    17A     -0.840082    18A     -0.832935
      19A     -0.802024    20A     -0.729797    21A     -0.666030
      22A     -0.641971    23A     -0.601697    24A     -0.590906
      25A     -0.585930    26A     -0.583575    27A     -0.580800
      28A     -0.570905    29A     -0.565455    30A     -0.524117
      31A     -0.496367    32A     -0.487284    33A     -0.483853
      34A     -0.479845    35A     -0.478960    36A     -0.462133
      37A     -0.338981    38A     -0.296216

    Virtual:

      39A      0.128076    40A      0.148831    41A      0.176756
      42A      0.185268    43A      0.193277    44A      0.217892
      45A      0.220417    46A      0.250560    47A      0.255440
      48A      0.259480    49A      0.266894    50A      0.277372
      51A      0.288264    52A      0.291250    53A      0.297836
      54A      0.314253    55A      0.363348    56A      0.366563
      57A      0.388004    58A      0.437375    59A      0.448545
      60A      0.475739    61A      0.493388    62A      0.501332
      63A      0.592274    64A      0.597262    65A      0.603186
      66A      0.607618    67A      0.634531    68A      0.651449
      69A      0.660647    70A      0.675648    71A      0.690094
      72A      0.695445    73A      0.710426    74A      0.714329
      75A      0.720897    76A      0.728966    77A      0.752854
      78A      0.762858    79A      0.775819    80A      0.791715
      81A      0.793434    82A      0.833586    83A      0.852722
      84A      0.854192    85A      0.875236    86A      0.879652
      87A      0.891146    88A      0.894711    89A      0.898322
      90A      0.901900    91A      0.907619    92A      0.912312
      93A      0.925507    94A      0.930670    95A      0.940454
      96A      0.944658    97A      0.947951    98A      0.965574
      99A      0.984368   100A      1.004961   101A      1.018477
     102A      1.067277   103A      1.109743   104A      1.129080
     105A      1.138432   106A      1.145734   107A      1.149237
     108A      1.161983   109A      1.201241   110A      1.232557
     111A      1.235301   112A      1.238959   113A      1.267937
     114A      1.290177   115A      1.292971   116A      1.306253
     117A      1.317578   118A      1.343396   119A      1.361000
     120A      1.392731   121A      1.463138   122A      1.474607
     123A      1.477770   124A      1.497120   125A      1.539389
     126A      1.553065   127A      1.582215   128A      1.609269
     129A      1.650060   130A      1.685572   131A      1.690914
     132A      1.702632   133A      1.706553   134A      1.731089
     135A      1.742458   136A      1.767595   137A      1.789569
     138A      1.795840   139A      1.858634   140A      1.864951
     141A      1.874461   142A      1.886081   143A      1.890026
     144A      1.893191   145A      1.899358   146A      1.904511
     147A      1.908859   148A      1.932236   149A      1.941561
     150A      1.947054   151A      1.952828   152A      1.956845
     153A      1.965217   154A      1.968849   155A      1.976366
     156A      2.013174   157A      2.022210   158A      2.033307
     159A      2.043431   160A      2.059805   161A      2.063420
     162A      2.088654   163A      2.118174   164A      2.132205
     165A      2.135858   166A      2.152812   167A      2.193876
     168A      2.216164   169A      2.243016   170A      2.265559
     171A      2.289675   172A      2.306561   173A      2.315683
     174A      2.331995   175A      2.370596   176A      2.418795
     177A      2.450750   178A      2.455043   179A      2.459108
     180A      2.469243   181A      2.474762   182A      2.513922
     183A      2.533194   184A      2.562931   185A      2.576065
     186A      2.590157   187A      2.644681   188A      2.732983
     189A      2.763401   190A      2.768202   191A      2.774493
     192A      2.788984   193A      2.803226   194A      2.829585
     195A      2.856266   196A      2.864485   197A      2.887701
     198A      2.937807   199A      2.947907   200A      2.962932
     201A      2.979380   202A      3.052556   203A      3.076217
     204A      3.243887   205A      3.248264   206A      3.340533
     207A      3.564363   208A      3.638506   209A      3.953494
     210A      4.174803

    Final Occupation by Irrep:
              A
    DOCC [    38 ]

  @RHF Final Energy:  -423.85088787458420

   => Energetics <=

    Nuclear Repulsion Energy =            488.4195228593956699
    One-Electron Energy =               -1542.7626854200950675
    Two-Electron Energy =                 630.4922746861153655
    Total Energy =                       -423.8508878745841457

Computation Completed

Properties will be evaluated at   0.000000,   0.000000,   0.000000 [a0]

Properties computed using the SCF density matrix

  Nuclear Dipole Moment: [e a0]
     X:     5.4111      Y:     5.2101      Z:     8.8905

  Electronic Dipole Moment: [e a0]
     X:    -6.0074      Y:    -5.1961      Z:    -9.0699

  Dipole Moment: [e a0]
     X:    -0.5963      Y:     0.0140      Z:    -0.1794     Total:     0.6229

  Dipole Moment: [D]
     X:    -1.5157      Y:     0.0356      Z:    -0.4561     Total:     1.5833

*** tstop() called on ds3 at Tue Apr 28 11:50:19 2020
Module time:
	user time   =      84.91 seconds =       1.42 minutes
	system time =      37.05 seconds =       0.62 minutes
	total time  =        172 seconds =       2.87 minutes
Total time:
	user time   =      84.91 seconds =       1.42 minutes
	system time =      37.05 seconds =       0.62 minutes
	total time  =        172 seconds =       2.87 minutes
                                     G D M A

                                 by Anthony Stone

                           version 2.2.06, 22 June 2011

               Distributed Multipoles from Gaussian wavefunctions

Starting at 11:50:19 on 28 Apr 2020

Using SCF density matrix from file ./SSI/SSI-181ILE-228TYR-1-dimer.test.1321.fchk

                         Distributed Multipole Analysis

Standard DMA

Positions and radii in angstrom
Multipole moments in atomic units, ea_0^k for rank k

C          x =  1.604307  y = -0.002171  z =  2.836629 angstrom
           Maximum rank =  0   Radius =  0.650 angstrom
                   Q00  =  -0.249325

C          x =  2.695307  y = -0.031171  z =  3.970629 angstrom
           Maximum rank =  0   Radius =  0.650 angstrom
                   Q00  =  -0.244277

H          x =  1.840307  y =  0.775829  z =  2.109629 angstrom
           Maximum rank =  0   Radius =  0.325 angstrom
                   Q00  =   0.078865

H          x =  1.559307  y = -0.964171  z =  2.327629 angstrom
           Maximum rank =  0   Radius =  0.325 angstrom
                   Q00  =   0.086879

H          x =  0.616307  y =  0.187829  z =  3.254629 angstrom
           Maximum rank =  0   Radius =  0.325 angstrom
                   Q00  =   0.082084

H          x =  2.421307  y = -0.801171  z =  4.686629 angstrom
           Maximum rank =  0   Radius =  0.325 angstrom
                   Q00  =   0.079989

H          x =  2.748417  y =  0.923479  z =  4.514529 angstrom
           Maximum rank =  0   Radius =  0.325 angstrom
                   Q00  =   0.081212

H          x =  3.676487  y = -0.292867  z =  3.547779 angstrom
           Maximum rank =  0   Radius =  0.325 angstrom
                   Q00  =   0.080657

C          x = -1.205693  y =  2.502829  z = -2.405371 angstrom
           Maximum rank =  0   Radius =  0.650 angstrom
                   Q00  =  -0.191058

C          x = -0.298693  y = -1.170171  z = -0.296371 angstrom
           Maximum rank =  0   Radius =  0.650 angstrom
                   Q00  =   0.349764

C          x = -1.616693  y = -0.878171  z = -0.648371 angstrom
           Maximum rank =  0   Radius =  0.650 angstrom
                   Q00  =  -0.173331

C          x =  0.761307  y = -0.265171  z = -0.591371 angstrom
           Maximum rank =  0   Radius =  0.650 angstrom
                   Q00  =  -0.125887

C          x = -1.910693  y =  0.324829  z = -1.283371 angstrom
           Maximum rank =  0   Radius =  0.650 angstrom
                   Q00  =  -0.015447

C          x =  0.460307  y =  0.942829  z = -1.239371 angstrom
           Maximum rank =  0   Radius =  0.650 angstrom
                   Q00  =  -0.056680

C          x = -0.878693  y =  1.235829  z = -1.625371 angstrom
           Maximum rank =  0   Radius =  0.650 angstrom
                   Q00  =  -0.147677

O          x = -0.071693  y = -2.346171  z =  0.364629 angstrom
           Maximum rank =  0   Radius =  0.650 angstrom
                   Q00  =  -0.637319

H          x = -2.412693  y = -1.568171  z = -0.406371 angstrom
           Maximum rank =  0   Radius =  0.325 angstrom
                   Q00  =   0.069146

H          x = -0.878693  y = -2.853171  z =  0.495629 angstrom
           Maximum rank =  0   Radius =  0.325 angstrom
                   Q00  =   0.409759

H          x =  1.773307  y = -0.501171  z = -0.299371 angstrom
           Maximum rank =  0   Radius =  0.325 angstrom
                   Q00  =   0.089049

H          x = -2.933693  y =  0.547829  z = -1.557371 angstrom
           Maximum rank =  0   Radius =  0.325 angstrom
                   Q00  =   0.071237

H          x =  1.252307  y =  1.640829  z = -1.471371 angstrom
           Maximum rank =  0   Radius =  0.325 angstrom
                   Q00  =   0.069464

H          x = -0.617693  y =  3.334829  z = -2.014371 angstrom
           Maximum rank =  0   Radius =  0.325 angstrom
                   Q00  =   0.096500

H          x = -2.253693  y =  2.738829  z = -2.221371 angstrom
           Maximum rank =  0   Radius =  0.325 angstrom
                   Q00  =   0.095137

H          x = -1.018931  y =  2.400894  z = -3.484597 angstrom
           Maximum rank =  0   Radius =  0.325 angstrom
                   Q00  =   0.101261

Total multipoles referred to origin at
           x =   0.000000,  y =    0.000000,  z =    0.000000 angstrom
                   Q00  =  -0.000000

Finished at 11:50:19 on 28 Apr 2020

  DMA results are available in the Python driver through the
	  variable('DMA DISTRIBUTED MULTIPOLES')
  and
	  variable('DMA TOTAL MULTIPOLES')
  commands.

    Psi4 stopped on: Tuesday, 28 April 2020 11:50AM
    Psi4 wall time for execution: 0:02:52.68

*** Psi4 exiting successfully. Buy a developer a beer!
