                               Psi4 1.3.2 release

  ==> Input File <==

--------------------------------------------------------------------------
import numpy as np
set {scf_type pk
basis cc-pvdz
d_convergence 10
gdma_switch   0
gdma_limit    0
gdma_origin   [ 0.0,  0.0,  0.0 ]
}
molecule test {
    units Angstrom
    0 1
    --
    0 1
    C               -0.545639534106354     2.897914990591171    -0.827820559022234
    C               -1.383639534106354    -0.325085009408829     1.020179440977766
    C               -0.668639534106354     0.691914990591172     0.377179440977767
    C               -2.770639534106354    -0.218085009408829     1.151179440977766
    C               -1.324639534106354     1.808914990591171    -0.135820559022234
    C               -3.440639534106354     0.893914990591172     0.640179440977766
    C               -2.710639534106354     1.900914990591171    -0.000820559022234
    O               -3.474639534106355    -1.203085009408829     1.782179440977767
    H               -0.862639534106354    -1.180085009408828     1.417179440977766
    H                0.402360465893646     0.618914990591171     0.289179440977767
    H               -2.894639534106354    -1.981085009408829     1.858179440977766
    H               -4.509639534106354     0.976914990591171     0.747179440977766
    H                0.094360465893646     3.385914990591171    -0.090820559022234
    H               -1.236639534106354     3.642914990591172    -1.220820559022233
    H               -3.233639534106354     2.761914990591171    -0.395820559022234
    H                0.078760465893646     2.521974990591171    -1.651711559022233
    C                1.174360465893646    -2.727085009408829    -1.678820559022233
    C                1.989360465893646    -1.512085009408829     0.383179440977767
    C                1.905360465893646    -1.592085009408828    -1.018820559022234
    C                2.726360465892646    -0.491085009408828     0.991179440977767
    C                2.557360465892646    -0.639085009408829    -1.801820559022233
    C                3.388360465893646     0.464914990591171     0.196179440977766
    C                3.297360465893646     0.385914990591172    -1.206820559022233
    H                1.495360465893646    -2.252085009408828     0.992179440977766
    H                2.792360465893646    -0.443085009408829     2.070179440977766
    H                0.966360465893646    -2.487085009408829    -2.722820559022233
    H                0.218360465893646    -2.823085009408828    -1.165820559022234
    H                2.440360465892646    -0.682085009408828    -2.870820559022234
    H                3.960360465892646     1.257914990591172     0.660179440977766
    H                3.786360465892646     1.127914990591171    -1.822820559022233
    H                1.709450465893646    -3.686205009408829    -1.617523559022233

}
e, wfn = energy('scf', return_wfn=True)
gdma(wfn)
dmavals = variable('DMA DISTRIBUTED MULTIPOLES')
charges = np.array(dmavals)
print(charges)
np.save('SSI-031TYR-037PHE-2-dimer.npy', np.array(charges))--------------------------------------------------------------------------

*** tstart() called on ds3
*** at Tue Apr 28 15:18:50 2020

   => Loading Basis Set <=

    Name: CC-PVDZ
    Role: ORBITAL
    Keyword: BASIS
    atoms 1-7, 17-23  entry C          line   138 file /theoryfs2/ds/metcalf/miniconda2/envs/tf2gpu/share/psi4/basis/cc-pvdz.gbs
    atoms 8           entry O          line   198 file /theoryfs2/ds/metcalf/miniconda2/envs/tf2gpu/share/psi4/basis/cc-pvdz.gbs
    atoms 9-16, 24-31 entry H          line    22 file /theoryfs2/ds/metcalf/miniconda2/envs/tf2gpu/share/psi4/basis/cc-pvdz.gbs

         ---------------------------------------------------------
                                   SCF
               by Justin Turney, Rob Parrish, Andy Simmonett
                          and Daniel G. A. Smith
                              RHF Reference
                        1 Threads,    500 MiB Core
         ---------------------------------------------------------

  ==> Geometry <==

    Molecular point group: c1
    Full point group: C1

    Geometry (in Angstrom), charge = 0, multiplicity = 1:

       Center              X                  Y                   Z               Mass
    ------------   -----------------  -----------------  -----------------  -----------------
         C           -0.545639534106     2.897914990591    -0.827820559022    12.000000000000
         C           -1.383639534106    -0.325085009409     1.020179440978    12.000000000000
         C           -0.668639534106     0.691914990591     0.377179440978    12.000000000000
         C           -2.770639534106    -0.218085009409     1.151179440978    12.000000000000
         C           -1.324639534106     1.808914990591    -0.135820559022    12.000000000000
         C           -3.440639534106     0.893914990591     0.640179440978    12.000000000000
         C           -2.710639534106     1.900914990591    -0.000820559022    12.000000000000
         O           -3.474639534106    -1.203085009409     1.782179440978    15.994914619570
         H           -0.862639534106    -1.180085009409     1.417179440978     1.007825032230
         H            0.402360465894     0.618914990591     0.289179440978     1.007825032230
         H           -2.894639534106    -1.981085009409     1.858179440978     1.007825032230
         H           -4.509639534106     0.976914990591     0.747179440978     1.007825032230
         H            0.094360465894     3.385914990591    -0.090820559022     1.007825032230
         H           -1.236639534106     3.642914990591    -1.220820559022     1.007825032230
         H           -3.233639534106     2.761914990591    -0.395820559022     1.007825032230
         H            0.078760465894     2.521974990591    -1.651711559022     1.007825032230
         C            1.174360465894    -2.727085009409    -1.678820559022    12.000000000000
         C            1.989360465894    -1.512085009409     0.383179440978    12.000000000000
         C            1.905360465894    -1.592085009409    -1.018820559022    12.000000000000
         C            2.726360465893    -0.491085009409     0.991179440978    12.000000000000
         C            2.557360465893    -0.639085009409    -1.801820559022    12.000000000000
         C            3.388360465894     0.464914990591     0.196179440978    12.000000000000
         C            3.297360465894     0.385914990591    -1.206820559022    12.000000000000
         H            1.495360465894    -2.252085009409     0.992179440978     1.007825032230
         H            2.792360465894    -0.443085009409     2.070179440978     1.007825032230
         H            0.966360465894    -2.487085009409    -2.722820559022     1.007825032230
         H            0.218360465894    -2.823085009409    -1.165820559022     1.007825032230
         H            2.440360465893    -0.682085009409    -2.870820559022     1.007825032230
         H            3.960360465893     1.257914990591     0.660179440978     1.007825032230
         H            3.786360465893     1.127914990591    -1.822820559022     1.007825032230
         H            1.709450465894    -3.686205009409    -1.617523559022     1.007825032230

  Running in c1 symmetry.

  Rotational constants: A =      0.02866  B =      0.01131  C =      0.00957 [cm^-1]
  Rotational constants: A =    859.16537  B =    339.05132  C =    286.95299 [MHz]
  Nuclear repulsion =  902.318238626161019

  Charge       = 0
  Multiplicity = 1
  Electrons    = 108
  Nalpha       = 54
  Nbeta        = 54

  ==> Algorithm <==

  SCF Algorithm Type is PK.
  DIIS enabled.
  MOM disabled.
  Fractional occupation disabled.
  Guess Type is SAD.
  Energy threshold   = 1.00e-06
  Density threshold  = 1.00e-10
  Integral threshold = 0.00e+00

  ==> Primary Basis <==

  Basis Set: CC-PVDZ
    Blend: CC-PVDZ
    Number of shells: 138
    Number of basis function: 290
    Number of Cartesian functions: 305
    Spherical Harmonics?: true
    Max angular momentum: 2

  ==> Pre-Iterations <==

   -------------------------------------------------------
    Irrep   Nso     Nmo     Nalpha   Nbeta   Ndocc  Nsocc
   -------------------------------------------------------
     A        290     290       0       0       0       0
   -------------------------------------------------------
    Total     290     290      54      54      54       0
   -------------------------------------------------------

  ==> Integral Setup <==

  Using integral reordering PK algorithm.
  Sizing the integral batches needed.
  Building batch lookup table.
   Calculation information:
      Number of atoms:                  31
      Number of AO shells:             138
      Number of primitives:            410
      Number of atomic orbitals:       305
      Number of basis functions:       290

      Integral cutoff                 1.00e-12
      Number of threads:                 1

	Batch   1 pq = [       0,    9405] index = [             0,44231715] size =     44231715
	Batch   2 pq = [    9405,   13301] index = [      44231715,88464951] size =     44233236
	Batch   3 pq = [   13301,   16290] index = [      88464951,132690195] size =     44225244
	Batch   4 pq = [   16290,   18810] index = [     132690195,176917455] size =     44227260
	Batch   5 pq = [   18810,   21030] index = [     176917455,221140965] size =     44223510
	Batch   6 pq = [   21030,   23037] index = [     221140965,265363203] size =     44222238
	Batch   7 pq = [   23037,   24883] index = [     265363203,309594286] size =     44231083
	Batch   8 pq = [   24883,   26601] index = [     309594286,353819901] size =     44225615
	Batch   9 pq = [   26601,   28214] index = [     353819901,398029005] size =     44209104
	Batch  10 pq = [   28214,   29740] index = [     398029005,442248670] size =     44219665
	Batch  11 pq = [   29740,   31191] index = [     442248670,486454836] size =     44206166
	Batch  12 pq = [   31191,   32578] index = [     486454836,530679331] size =     44224495
	Batch  13 pq = [   32578,   33908] index = [     530679331,574893186] size =     44213855
	Batch  14 pq = [   33908,   35188] index = [     574893186,619115266] size =     44222080
	Batch  15 pq = [   35188,   36423] index = [     619115266,663335676] size =     44220410
	Batch  16 pq = [   36423,   37617] index = [     663335676,707538153] size =     44202477
	Batch  17 pq = [   37617,   38775] index = [     707538153,751769700] size =     44231547
	Batch  18 pq = [   38775,   39899] index = [     751769700,795985050] size =     44215350
	Batch  19 pq = [   39899,   40992] index = [     795985050,840192528] size =     44207478
	Batch  20 pq = [   40992,   42057] index = [     840192528,884416653] size =     44224125
	Batch  21 pq = [   42057,   42195] index = [     884416653,890230110] size =      5813457
  Task number: 81
  Buffer size: 11059200
  Buffer per thread: 2
  We computed 48544797 shell quartets total.
  Whereas there are 45998436 unique shell quartets.
     5.54 percent of shell quartets recomputed by reordering.

  ==> DiskJK: Disk-Based J/K Matrices <==

    J tasked:                  Yes
    K tasked:                  Yes
    wK tasked:                  No
    Memory [MiB]:              375
    Schwarz Cutoff:          1E-12

    OpenMP threads:              1

  Minimum eigenvalue in the overlap matrix is 3.0265606163E-04.
  Using Symmetric Orthogonalization.

  SCF Guess: Superposition of Atomic Densities via on-the-fly atomic UHF.

  ==> Iterations <==

                        Total Energy        Delta E     RMS |[F,P]|

   @RHF iter SAD:  -613.10264608203545   -6.13103e+02   0.00000e+00
   @RHF iter   1:  -614.06247366269940   -9.59828e-01   2.35619e-03 DIIS
   @RHF iter   2:  -614.33466890310865   -2.72195e-01   9.83007e-04 DIIS
   @RHF iter   3:  -614.37596314037648   -4.12942e-02   2.42501e-04 DIIS
   @RHF iter   4:  -614.37966197684455   -3.69884e-03   9.94091e-05 DIIS
   @RHF iter   5:  -614.38014857988162   -4.86603e-04   1.66897e-05 DIIS
   @RHF iter   6:  -614.38016984256626   -2.12627e-05   5.74008e-06 DIIS
   @RHF iter   7:  -614.38017234998199   -2.50742e-06   1.80828e-06 DIIS
   @RHF iter   8:  -614.38017273125615   -3.81274e-07   7.09734e-07 DIIS
   @RHF iter   9:  -614.38017280618283   -7.49267e-08   3.30425e-07 DIIS
   @RHF iter  10:  -614.38017282390626   -1.77234e-08   1.49349e-07 DIIS
   @RHF iter  11:  -614.38017282977546   -5.86920e-09   5.91615e-08 DIIS
   @RHF iter  12:  -614.38017283046247   -6.87010e-10   2.62620e-08 DIIS
   @RHF iter  13:  -614.38017283056274   -1.00272e-10   7.40607e-09 DIIS
   @RHF iter  14:  -614.38017283056683   -4.09273e-12   2.41218e-09 DIIS
   @RHF iter  15:  -614.38017283057115   -4.32010e-12   7.77374e-10 DIIS
   @RHF iter  16:  -614.38017283057104    1.13687e-13   3.64922e-10 DIIS
   @RHF iter  17:  -614.38017283056911    1.93268e-12   1.67434e-10 DIIS
   @RHF iter  18:  -614.38017283057036   -1.25056e-12   7.66706e-11 DIIS
  Energy and wave function converged.

  ==> Post-Iterations <==

    Orbital Energies [Eh]
    ---------------------

    Doubly Occupied:

       1A    -20.580574     2A    -11.293609     3A    -11.248527
       4A    -11.246400     5A    -11.246118     6A    -11.242745
       7A    -11.239562     8A    -11.237530     9A    -11.233260
      10A    -11.233035    11A    -11.228811    12A    -11.227687
      13A    -11.225658    14A    -11.224571    15A    -11.221651
      16A     -1.394488    17A     -1.154837    18A     -1.141562
      19A     -1.047635    20A     -1.029562    21A     -1.017548
      22A     -1.009088    23A     -0.934778    24A     -0.918008
      25A     -0.838116    26A     -0.830275    27A     -0.800796
      28A     -0.792684    29A     -0.720889    30A     -0.695607
      31A     -0.662166    32A     -0.639571    33A     -0.635478
      34A     -0.633815    35A     -0.603329    36A     -0.589788
      37A     -0.585616    38A     -0.580675    39A     -0.577004
      40A     -0.566439    41A     -0.565001    42A     -0.560265
      43A     -0.540343    44A     -0.520644    45A     -0.494775
      46A     -0.491566    47A     -0.489284    48A     -0.488156
      49A     -0.472329    50A     -0.459568    51A     -0.339120
      52A     -0.332931    53A     -0.323514    54A     -0.295656

    Virtual:

      55A      0.123464    56A      0.131043    57A      0.135602
      58A      0.159639    59A      0.168933    60A      0.183478
      61A      0.202270    62A      0.203678    63A      0.207629
      64A      0.225938    65A      0.235526    66A      0.246939
      67A      0.254538    68A      0.258009    69A      0.272674
      70A      0.281068    71A      0.290315    72A      0.291670
      73A      0.303196    74A      0.324190    75A      0.356583
      76A      0.371435    77A      0.379255    78A      0.382457
      79A      0.431565    80A      0.441710    81A      0.446877
      82A      0.456265    83A      0.469542    84A      0.487604
      85A      0.494589    86A      0.504375    87A      0.517652
      88A      0.558345    89A      0.588717    90A      0.617540
      91A      0.619024    92A      0.636381    93A      0.655184
      94A      0.656862    95A      0.665167    96A      0.675298
      97A      0.687323    98A      0.702499    99A      0.704967
     100A      0.712948   101A      0.719251   102A      0.724740
     103A      0.730223   104A      0.733008   105A      0.738274
     106A      0.745114   107A      0.753174   108A      0.760957
     109A      0.764216   110A      0.774352   111A      0.780135
     112A      0.793770   113A      0.798922   114A      0.801284
     115A      0.824313   116A      0.835969   117A      0.846478
     118A      0.854743   119A      0.855249   120A      0.859524
     121A      0.875356   122A      0.877807   123A      0.887648
     124A      0.890316   125A      0.896718   126A      0.901499
     127A      0.909759   128A      0.915713   129A      0.918137
     130A      0.930721   131A      0.931893   132A      0.944067
     133A      0.960324   134A      0.965714   135A      0.976967
     136A      0.983124   137A      1.000579   138A      1.016228
     139A      1.025655   140A      1.049135   141A      1.067517
     142A      1.101654   143A      1.104349   144A      1.118217
     145A      1.135329   146A      1.144886   147A      1.149032
     148A      1.158691   149A      1.174789   150A      1.187702
     151A      1.212262   152A      1.220137   153A      1.230402
     154A      1.232878   155A      1.239859   156A      1.251629
     157A      1.261357   158A      1.274287   159A      1.284597
     160A      1.296532   161A      1.297980   162A      1.303072
     163A      1.311840   164A      1.315497   165A      1.325389
     166A      1.346143   167A      1.359956   168A      1.372417
     169A      1.379214   170A      1.390070   171A      1.443474
     172A      1.483797   173A      1.498547   174A      1.526273
     175A      1.534840   176A      1.554835   177A      1.565083
     178A      1.576523   179A      1.598252   180A      1.617436
     181A      1.657197   182A      1.673439   183A      1.684935
     184A      1.691947   185A      1.700975   186A      1.722892
     187A      1.734496   188A      1.742125   189A      1.752128
     190A      1.759660   191A      1.782673   192A      1.795936
     193A      1.806059   194A      1.816928   195A      1.826644
     196A      1.842945   197A      1.869012   198A      1.875488
     199A      1.888809   200A      1.891411   201A      1.899720
     202A      1.905337   203A      1.912644   204A      1.921018
     205A      1.922068   206A      1.931017   207A      1.937619
     208A      1.945485   209A      1.951741   210A      1.959424
     211A      1.960652   212A      1.968220   213A      1.972142
     214A      1.984175   215A      2.005850   216A      2.007048
     217A      2.031663   218A      2.040843   219A      2.042310
     220A      2.060491   221A      2.068736   222A      2.071677
     223A      2.080658   224A      2.094190   225A      2.108552
     226A      2.124197   227A      2.129890   228A      2.141348
     229A      2.146555   230A      2.152968   231A      2.161408
     232A      2.174438   233A      2.205446   234A      2.224149
     235A      2.231059   236A      2.247960   237A      2.266446
     238A      2.273496   239A      2.284098   240A      2.288359
     241A      2.302478   242A      2.311517   243A      2.339227
     244A      2.341147   245A      2.359204   246A      2.384089
     247A      2.401413   248A      2.444897   249A      2.450631
     250A      2.472274   251A      2.502207   252A      2.514510
     253A      2.515343   254A      2.525798   255A      2.538925
     256A      2.549897   257A      2.615694   258A      2.621825
     259A      2.634076   260A      2.729233   261A      2.743494
     262A      2.755334   263A      2.769180   264A      2.771763
     265A      2.785422   266A      2.800280   267A      2.805491
     268A      2.836653   269A      2.852851   270A      2.857215
     271A      2.865089   272A      2.899684   273A      2.963271
     274A      2.967874   275A      2.994134   276A      3.010512
     277A      3.020194   278A      3.096399   279A      3.134220
     280A      3.136986   281A      3.175702   282A      3.276185
     283A      3.280579   284A      3.296176   285A      3.339153
     286A      3.587837   287A      3.689213   288A      3.931992
     289A      3.942421   290A      4.170822

    Final Occupation by Irrep:
              A
    DOCC [    54 ]

  @RHF Final Energy:  -614.38017283057036

   => Energetics <=

    Nuclear Repulsion Energy =            902.3182386261610191
    One-Electron Energy =               -2623.9915346622551624
    Two-Electron Energy =                1107.2931232055236705
    Total Energy =                       -614.3801728305704728

Computation Completed

Properties will be evaluated at   0.000000,   0.000000,   0.000000 [a0]

Properties computed using the SCF density matrix

  Nuclear Dipole Moment: [e a0]
     X:     4.8649      Y:     0.7063      Z:    -5.1707

  Electronic Dipole Moment: [e a0]
     X:    -4.1763      Y:    -0.9828      Z:     4.8957

  Dipole Moment: [e a0]
     X:     0.6887      Y:    -0.2765      Z:    -0.2750     Total:     0.7914

  Dipole Moment: [D]
     X:     1.7505      Y:    -0.7027      Z:    -0.6990     Total:     2.0116

*** tstop() called on ds3 at Tue Apr 28 15:32:42 2020
Module time:
	user time   =     406.99 seconds =       6.78 minutes
	system time =     144.23 seconds =       2.40 minutes
	total time  =        832 seconds =      13.87 minutes
Total time:
	user time   =     406.99 seconds =       6.78 minutes
	system time =     144.23 seconds =       2.40 minutes
	total time  =        832 seconds =      13.87 minutes
                                     G D M A

                                 by Anthony Stone

                           version 2.2.06, 22 June 2011

               Distributed Multipoles from Gaussian wavefunctions

Starting at 15:32:43 on 28 Apr 2020

Using SCF density matrix from file ./SSI/SSI-031TYR-037PHE-2-dimer.test.14319.fchk

                         Distributed Multipole Analysis

Standard DMA

Positions and radii in angstrom
Multipole moments in atomic units, ea_0^k for rank k

C          x = -0.545640  y =  2.897915  z = -0.827821 angstrom
           Maximum rank =  0   Radius =  0.650 angstrom
                   Q00  =  -0.194537

C          x = -1.383640  y = -0.325085  z =  1.020179 angstrom
           Maximum rank =  0   Radius =  0.650 angstrom
                   Q00  =  -0.184278

C          x = -0.668640  y =  0.691915  z =  0.377179 angstrom
           Maximum rank =  0   Radius =  0.650 angstrom
                   Q00  =  -0.013371

C          x = -2.770640  y = -0.218085  z =  1.151179 angstrom
           Maximum rank =  0   Radius =  0.650 angstrom
                   Q00  =   0.293187

C          x = -1.324640  y =  1.808915  z = -0.135821 angstrom
           Maximum rank =  0   Radius =  0.650 angstrom
                   Q00  =  -0.135046

C          x = -3.440640  y =  0.893915  z =  0.640179 angstrom
           Maximum rank =  0   Radius =  0.650 angstrom
                   Q00  =  -0.117248

C          x = -2.710640  y =  1.900915  z = -0.000821 angstrom
           Maximum rank =  0   Radius =  0.650 angstrom
                   Q00  =   0.030419

O          x = -3.474640  y = -1.203085  z =  1.782179 angstrom
           Maximum rank =  0   Radius =  0.650 angstrom
                   Q00  =  -0.664539

H          x = -0.862640  y = -1.180085  z =  1.417179 angstrom
           Maximum rank =  0   Radius =  0.325 angstrom
                   Q00  =   0.061993

H          x =  0.402360  y =  0.618915  z =  0.289179 angstrom
           Maximum rank =  0   Radius =  0.325 angstrom
                   Q00  =   0.084152

H          x = -2.894640  y = -1.981085  z =  1.858179 angstrom
           Maximum rank =  0   Radius =  0.325 angstrom
                   Q00  =   0.402802

H          x = -4.509640  y =  0.976915  z =  0.747179 angstrom
           Maximum rank =  0   Radius =  0.325 angstrom
                   Q00  =   0.079256

H          x =  0.094360  y =  3.385915  z = -0.090821 angstrom
           Maximum rank =  0   Radius =  0.325 angstrom
                   Q00  =   0.097533

H          x = -1.236640  y =  3.642915  z = -1.220821 angstrom
           Maximum rank =  0   Radius =  0.325 angstrom
                   Q00  =   0.093335

H          x = -3.233640  y =  2.761915  z = -0.395821 angstrom
           Maximum rank =  0   Radius =  0.325 angstrom
                   Q00  =   0.063131

H          x =  0.078760  y =  2.521975  z = -1.651712 angstrom
           Maximum rank =  0   Radius =  0.325 angstrom
                   Q00  =   0.099541

C          x =  1.174360  y = -2.727085  z = -1.678821 angstrom
           Maximum rank =  0   Radius =  0.650 angstrom
                   Q00  =  -0.194690

C          x =  1.989360  y = -1.512085  z =  0.383179 angstrom
           Maximum rank =  0   Radius =  0.650 angstrom
                   Q00  =  -0.076467

C          x =  1.905360  y = -1.592085  z = -1.018821 angstrom
           Maximum rank =  0   Radius =  0.650 angstrom
                   Q00  =  -0.094528

C          x =  2.726360  y = -0.491085  z =  0.991179 angstrom
           Maximum rank =  0   Radius =  0.650 angstrom
                   Q00  =  -0.074585

C          x =  2.557360  y = -0.639085  z = -1.801821 angstrom
           Maximum rank =  0   Radius =  0.650 angstrom
                   Q00  =  -0.005042

C          x =  3.388360  y =  0.464915  z =  0.196179 angstrom
           Maximum rank =  0   Radius =  0.650 angstrom
                   Q00  =  -0.095960

C          x =  3.297360  y =  0.385915  z = -1.206821 angstrom
           Maximum rank =  0   Radius =  0.650 angstrom
                   Q00  =  -0.085807

H          x =  1.495360  y = -2.252085  z =  0.992179 angstrom
           Maximum rank =  0   Radius =  0.325 angstrom
                   Q00  =   0.055292

H          x =  2.792360  y = -0.443085  z =  2.070179 angstrom
           Maximum rank =  0   Radius =  0.325 angstrom
                   Q00  =   0.071460

H          x =  0.966360  y = -2.487085  z = -2.722821 angstrom
           Maximum rank =  0   Radius =  0.325 angstrom
                   Q00  =   0.101095

H          x =  0.218360  y = -2.823085  z = -1.165821 angstrom
           Maximum rank =  0   Radius =  0.325 angstrom
                   Q00  =   0.096188

H          x =  2.440360  y = -0.682085  z = -2.870821 angstrom
           Maximum rank =  0   Radius =  0.325 angstrom
                   Q00  =   0.062706

H          x =  3.960360  y =  1.257915  z =  0.660179 angstrom
           Maximum rank =  0   Radius =  0.325 angstrom
                   Q00  =   0.068573

H          x =  3.786360  y =  1.127915  z = -1.822821 angstrom
           Maximum rank =  0   Radius =  0.325 angstrom
                   Q00  =   0.070655

H          x =  1.709450  y = -3.686205  z = -1.617524 angstrom
           Maximum rank =  0   Radius =  0.325 angstrom
                   Q00  =   0.104780

Total multipoles referred to origin at
           x =   0.000000,  y =    0.000000,  z =    0.000000 angstrom
                   Q00  =  -0.000000

Finished at 15:32:43 on 28 Apr 2020

  DMA results are available in the Python driver through the
	  variable('DMA DISTRIBUTED MULTIPOLES')
  and
	  variable('DMA TOTAL MULTIPOLES')
  commands.

    Psi4 stopped on: Tuesday, 28 April 2020 03:32PM
    Psi4 wall time for execution: 0:13:52.72

*** Psi4 exiting successfully. Buy a developer a beer!
