                               Psi4 1.3.2 release

  ==> Input File <==

--------------------------------------------------------------------------
import numpy as np
set {scf_type pk
basis cc-pvdz
d_convergence 10
gdma_switch   0
gdma_limit    0
gdma_origin   [ 0.0,  0.0,  0.0 ]
}
molecule test {
    units Angstrom
    0 1
    --
    0 1
    C               -2.286467820720699    -0.214849402459362     3.011428165448314
    C               -0.248467820720698     0.934150597540638     0.065428165448314
    C               -1.405467820720698     0.291150597540638     0.590428165448314
    C               -1.351467820720698     0.414150597540638     2.023428165448314
    C               -0.218467820720698     1.119150597540638     2.302428165448314
    C                0.021532179279302     0.995150597540638    -1.299571834551686
    C               -0.884467820720698     0.399150597540638    -2.165571834551686
    C               -2.039467820720698    -0.245849402459362    -1.678571834551686
    C               -2.306467820720698    -0.306849402459362    -0.306571834551686
    N                0.448532179279302     1.425150597540638     1.137428165448314
    H                0.906532179279302     1.494150597540638    -1.669571834551686
    H               -0.705467820720698     0.432150597540638    -3.231571834551686
    H                1.332532179279302     1.920150597540638     1.100428165448314
    H               -2.725467820720698    -0.702849402459362    -2.376571834551687
    H                0.132532179279302     1.350150597540638     3.303428165448314
    H               -3.186467820720698    -0.811849402459362     0.060428165448314
    H               -1.748467820720698    -0.362849402459362     3.948428165448314
    H               -2.535467820720698    -1.195849402459362     2.629428165448314
    H               -3.227827820720699     0.311624597540638     3.227454165448314
    C                3.079532179279302    -1.203849402459362    -0.594571834551686
    C                2.241532179279301    -2.345849402459362    -1.152571834551686
    C                3.805532179279302    -0.712849402459362    -1.839571834551686
    H                3.783532179279302    -1.591849402459362     0.142428165448314
    H                2.459532179279301    -0.422849402459362    -0.155571834551686
    H                1.890532179279302    -3.014849402459362    -0.367571834551686
    H                1.401532179279302    -1.948849402459362    -1.725571834551686
    H                3.212532179279302     0.015150597540638    -2.392571834551686
    H                2.954452179279302    -2.850321402459362    -1.821341434551686
    H                3.966302179279302    -1.631409402459362    -2.423011904551686
    H                4.820072179279301    -0.346808402459362    -1.623406134551686

}
e, wfn = energy('scf', return_wfn=True)
gdma(wfn)
dmavals = variable('DMA DISTRIBUTED MULTIPOLES')
charges = np.array(dmavals)
print(charges)
np.save('SSI-070TRP-174PRO-1-dimer.npy', np.array(charges))--------------------------------------------------------------------------

*** tstart() called on ds3
*** at Mon Apr 27 16:35:03 2020

   => Loading Basis Set <=

    Name: CC-PVDZ
    Role: ORBITAL
    Keyword: BASIS
    atoms 1-9, 20-22   entry C          line   138 file /theoryfs2/ds/metcalf/miniconda2/envs/tf2gpu/share/psi4/basis/cc-pvdz.gbs
    atoms 10           entry N          line   168 file /theoryfs2/ds/metcalf/miniconda2/envs/tf2gpu/share/psi4/basis/cc-pvdz.gbs
    atoms 11-19, 23-30 entry H          line    22 file /theoryfs2/ds/metcalf/miniconda2/envs/tf2gpu/share/psi4/basis/cc-pvdz.gbs

         ---------------------------------------------------------
                                   SCF
               by Justin Turney, Rob Parrish, Andy Simmonett
                          and Daniel G. A. Smith
                              RHF Reference
                        1 Threads,    500 MiB Core
         ---------------------------------------------------------

  ==> Geometry <==

    Molecular point group: c1
    Full point group: C1

    Geometry (in Angstrom), charge = 0, multiplicity = 1:

       Center              X                  Y                   Z               Mass
    ------------   -----------------  -----------------  -----------------  -----------------
         C           -2.286467820721    -0.214849402459     3.011428165448    12.000000000000
         C           -0.248467820721     0.934150597541     0.065428165448    12.000000000000
         C           -1.405467820721     0.291150597541     0.590428165448    12.000000000000
         C           -1.351467820721     0.414150597541     2.023428165448    12.000000000000
         C           -0.218467820721     1.119150597541     2.302428165448    12.000000000000
         C            0.021532179279     0.995150597541    -1.299571834552    12.000000000000
         C           -0.884467820721     0.399150597541    -2.165571834552    12.000000000000
         C           -2.039467820721    -0.245849402459    -1.678571834552    12.000000000000
         C           -2.306467820721    -0.306849402459    -0.306571834552    12.000000000000
         N            0.448532179279     1.425150597541     1.137428165448    14.003074004430
         H            0.906532179279     1.494150597541    -1.669571834552     1.007825032230
         H           -0.705467820721     0.432150597541    -3.231571834552     1.007825032230
         H            1.332532179279     1.920150597541     1.100428165448     1.007825032230
         H           -2.725467820721    -0.702849402459    -2.376571834552     1.007825032230
         H            0.132532179279     1.350150597541     3.303428165448     1.007825032230
         H           -3.186467820721    -0.811849402459     0.060428165448     1.007825032230
         H           -1.748467820721    -0.362849402459     3.948428165448     1.007825032230
         H           -2.535467820721    -1.195849402459     2.629428165448     1.007825032230
         H           -3.227827820721     0.311624597541     3.227454165448     1.007825032230
         C            3.079532179279    -1.203849402459    -0.594571834552    12.000000000000
         C            2.241532179279    -2.345849402459    -1.152571834552    12.000000000000
         C            3.805532179279    -0.712849402459    -1.839571834552    12.000000000000
         H            3.783532179279    -1.591849402459     0.142428165448     1.007825032230
         H            2.459532179279    -0.422849402459    -0.155571834552     1.007825032230
         H            1.890532179279    -3.014849402459    -0.367571834552     1.007825032230
         H            1.401532179279    -1.948849402459    -1.725571834552     1.007825032230
         H            3.212532179279     0.015150597541    -2.392571834552     1.007825032230
         H            2.954452179279    -2.850321402459    -1.821341434552     1.007825032230
         H            3.966302179279    -1.631409402459    -2.423011904552     1.007825032230
         H            4.820072179279    -0.346808402459    -1.623406134552     1.007825032230

  Running in c1 symmetry.

  Rotational constants: A =      0.03399  B =      0.01583  C =      0.01337 [cm^-1]
  Rotational constants: A =   1019.14037  B =    474.55647  C =    400.86652 [MHz]
  Nuclear repulsion =  755.975497382642061

  Charge       = 0
  Multiplicity = 1
  Electrons    = 96
  Nalpha       = 48
  Nbeta        = 48

  ==> Algorithm <==

  SCF Algorithm Type is PK.
  DIIS enabled.
  MOM disabled.
  Fractional occupation disabled.
  Guess Type is SAD.
  Energy threshold   = 1.00e-06
  Density threshold  = 1.00e-10
  Integral threshold = 0.00e+00

  ==> Primary Basis <==

  Basis Set: CC-PVDZ
    Blend: CC-PVDZ
    Number of shells: 129
    Number of basis function: 267
    Number of Cartesian functions: 280
    Spherical Harmonics?: true
    Max angular momentum: 2

  ==> Pre-Iterations <==

   -------------------------------------------------------
    Irrep   Nso     Nmo     Nalpha   Nbeta   Ndocc  Nsocc
   -------------------------------------------------------
     A        267     267       0       0       0       0
   -------------------------------------------------------
    Total     267     267      48      48      48       0
   -------------------------------------------------------

  ==> Integral Setup <==

  Using integral reordering PK algorithm.
  Sizing the integral batches needed.
  Building batch lookup table.
   Calculation information:
      Number of atoms:                  30
      Number of AO shells:             129
      Number of primitives:            371
      Number of atomic orbitals:       280
      Number of basis functions:       267

      Integral cutoff                 1.00e-12
      Number of threads:                 1

	Batch   1 pq = [       0,    9405] index = [             0,44231715] size =     44231715
	Batch   2 pq = [    9405,   13301] index = [      44231715,88464951] size =     44233236
	Batch   3 pq = [   13301,   16290] index = [      88464951,132690195] size =     44225244
	Batch   4 pq = [   16290,   18810] index = [     132690195,176917455] size =     44227260
	Batch   5 pq = [   18810,   21030] index = [     176917455,221140965] size =     44223510
	Batch   6 pq = [   21030,   23037] index = [     221140965,265363203] size =     44222238
	Batch   7 pq = [   23037,   24883] index = [     265363203,309594286] size =     44231083
	Batch   8 pq = [   24883,   26601] index = [     309594286,353819901] size =     44225615
	Batch   9 pq = [   26601,   28214] index = [     353819901,398029005] size =     44209104
	Batch  10 pq = [   28214,   29740] index = [     398029005,442248670] size =     44219665
	Batch  11 pq = [   29740,   31191] index = [     442248670,486454836] size =     44206166
	Batch  12 pq = [   31191,   32578] index = [     486454836,530679331] size =     44224495
	Batch  13 pq = [   32578,   33908] index = [     530679331,574893186] size =     44213855
	Batch  14 pq = [   33908,   35188] index = [     574893186,619115266] size =     44222080
	Batch  15 pq = [   35188,   35778] index = [     619115266,640050531] size =     20935265
  Task number: 58
  Buffer size: 11059200
  Buffer per thread: 2
  We computed 35609611 shell quartets total.
  Whereas there are 35158305 unique shell quartets.
     1.28 percent of shell quartets recomputed by reordering.

  ==> DiskJK: Disk-Based J/K Matrices <==

    J tasked:                  Yes
    K tasked:                  Yes
    wK tasked:                  No
    Memory [MiB]:              375
    Schwarz Cutoff:          1E-12

    OpenMP threads:              1

  Minimum eigenvalue in the overlap matrix is 2.4346995760E-04.
  Using Symmetric Orthogonalization.

  SCF Guess: Superposition of Atomic Densities via on-the-fly atomic UHF.

  ==> Iterations <==

                        Total Energy        Delta E     RMS |[F,P]|

   @RHF iter SAD:  -518.10963543370144   -5.18110e+02   0.00000e+00
   @RHF iter   1:  -518.47440260651160   -3.64767e-01   2.51422e-03 DIIS
   @RHF iter   2:  -518.73308977505098   -2.58687e-01   1.13533e-03 DIIS
   @RHF iter   3:  -518.78156201957484   -4.84722e-02   2.84913e-04 DIIS
   @RHF iter   4:  -518.78569840241641   -4.13638e-03   1.28644e-04 DIIS
   @RHF iter   5:  -518.78635332750605   -6.54925e-04   1.97250e-05 DIIS
   @RHF iter   6:  -518.78638430675949   -3.09793e-05   8.64627e-06 DIIS
   @RHF iter   7:  -518.78639053413895   -6.22738e-06   3.43368e-06 DIIS
   @RHF iter   8:  -518.78639211336485   -1.57923e-06   1.46725e-06 DIIS
   @RHF iter   9:  -518.78639246558737   -3.52223e-07   6.32609e-07 DIIS
   @RHF iter  10:  -518.78639253932624   -7.37389e-08   2.75099e-07 DIIS
   @RHF iter  11:  -518.78639255642099   -1.70947e-08   1.08549e-07 DIIS
   @RHF iter  12:  -518.78639255888459   -2.46359e-09   3.98015e-08 DIIS
   @RHF iter  13:  -518.78639255909764   -2.13049e-10   1.00949e-08 DIIS
   @RHF iter  14:  -518.78639255911332   -1.56888e-11   3.23925e-09 DIIS
   @RHF iter  15:  -518.78639255911253    7.95808e-13   1.56099e-09 DIIS
   @RHF iter  16:  -518.78639255910980    2.72848e-12   8.38517e-10 DIIS
   @RHF iter  17:  -518.78639255911958   -9.77707e-12   3.25404e-10 DIIS
   @RHF iter  18:  -518.78639255911833    1.25056e-12   1.36005e-10 DIIS
   @RHF iter  19:  -518.78639255911094    7.38964e-12   4.86668e-11 DIIS
  Energy and wave function converged.

  ==> Post-Iterations <==

    Orbital Energies [Eh]
    ---------------------

    Doubly Occupied:

       1A    -15.603907     2A    -11.266529     3A    -11.266153
       4A    -11.233530     5A    -11.233435     6A    -11.232156
       7A    -11.226785     8A    -11.224312     9A    -11.223295
      10A    -11.220125    11A    -11.212032    12A    -11.211186
      13A    -11.204612    14A     -1.296190    15A     -1.126910
      16A     -1.074187    17A     -1.061022    18A     -0.997338
      19A     -0.987739    20A     -0.932956    21A     -0.905775
      22A     -0.840494    23A     -0.804792    24A     -0.795698
      25A     -0.753884    26A     -0.721113    27A     -0.665034
      28A     -0.643045    29A     -0.634435    30A     -0.603663
      31A     -0.602964    32A     -0.591614    33A     -0.591154
      34A     -0.568296    35A     -0.553052    36A     -0.538864
      37A     -0.535410    38A     -0.528680    39A     -0.503658
      40A     -0.496189    41A     -0.477644    42A     -0.472506
      43A     -0.470536    44A     -0.460245    45A     -0.449650
      46A     -0.373453    47A     -0.295608    48A     -0.276844

    Virtual:

      49A      0.122554    50A      0.164199    51A      0.170047
      52A      0.186459    53A      0.190393    54A      0.208410
      55A      0.217630    56A      0.223035    57A      0.229852
      58A      0.240543    59A      0.242157    60A      0.262055
      61A      0.265716    62A      0.273156    63A      0.283003
      64A      0.288894    65A      0.295266    66A      0.316255
      67A      0.324700    68A      0.340730    69A      0.373435
      70A      0.379355    71A      0.381548    72A      0.405419
      73A      0.425555    74A      0.429172    75A      0.442517
      76A      0.473946    77A      0.479436    78A      0.502224
      79A      0.520389    80A      0.577463    81A      0.588888
      82A      0.597003    83A      0.616227    84A      0.623750
      85A      0.632876    86A      0.634815    87A      0.637712
      88A      0.649243    89A      0.665437    90A      0.695083
      91A      0.713811    92A      0.724664    93A      0.731196
      94A      0.739009    95A      0.739611    96A      0.750033
      97A      0.758066    98A      0.765503    99A      0.773161
     100A      0.774760   101A      0.788118   102A      0.796786
     103A      0.814374   104A      0.835189   105A      0.849442
     106A      0.854473   107A      0.865283   108A      0.868705
     109A      0.878859   110A      0.881433   111A      0.883603
     112A      0.892854   113A      0.899867   114A      0.902422
     115A      0.904745   116A      0.913694   117A      0.919579
     118A      0.939711   119A      0.943078   120A      0.952839
     121A      0.954024   122A      0.959594   123A      0.963448
     124A      0.969597   125A      0.988386   126A      0.989940
     127A      1.010810   128A      1.020705   129A      1.057240
     130A      1.087462   131A      1.103057   132A      1.123673
     133A      1.131414   134A      1.135085   135A      1.140869
     136A      1.148580   137A      1.163240   138A      1.172444
     139A      1.198799   140A      1.226162   141A      1.229336
     142A      1.231219   143A      1.253108   144A      1.268364
     145A      1.280997   146A      1.295985   147A      1.299023
     148A      1.327507   149A      1.333424   150A      1.359102
     151A      1.369915   152A      1.393448   153A      1.413859
     154A      1.440094   155A      1.464485   156A      1.487657
     157A      1.506166   158A      1.538405   159A      1.572800
     160A      1.593942   161A      1.606835   162A      1.624481
     163A      1.636660   164A      1.642349   165A      1.649505
     166A      1.661789   167A      1.687620   168A      1.704291
     169A      1.726597   170A      1.740944   171A      1.748381
     172A      1.768831   173A      1.770854   174A      1.787157
     175A      1.808156   176A      1.813353   177A      1.815754
     178A      1.830201   179A      1.875926   180A      1.879377
     181A      1.882809   182A      1.889545   183A      1.898041
     184A      1.905890   185A      1.909702   186A      1.922176
     187A      1.928405   188A      1.938412   189A      1.942902
     190A      1.949674   191A      1.959323   192A      1.962176
     193A      1.971667   194A      1.995020   195A      1.995860
     196A      2.005559   197A      2.013795   198A      2.030495
     199A      2.038156   200A      2.040524   201A      2.054739
     202A      2.072696   203A      2.075315   204A      2.092560
     205A      2.095539   206A      2.108230   207A      2.113672
     208A      2.115494   209A      2.140915   210A      2.150894
     211A      2.160320   212A      2.164360   213A      2.172925
     214A      2.177800   215A      2.222372   216A      2.250507
     217A      2.251894   218A      2.291361   219A      2.303312
     220A      2.312499   221A      2.321562   222A      2.328039
     223A      2.356225   224A      2.359514   225A      2.394976
     226A      2.409138   227A      2.428517   228A      2.446574
     229A      2.461267   230A      2.468483   231A      2.533601
     232A      2.537114   233A      2.542651   234A      2.587841
     235A      2.600307   236A      2.624891   237A      2.641102
     238A      2.658951   239A      2.671733   240A      2.698762
     241A      2.703876   242A      2.760609   243A      2.768375
     244A      2.774470   245A      2.777203   246A      2.787106
     247A      2.794932   248A      2.811291   249A      2.823575
     250A      2.862357   251A      2.866685   252A      2.877218
     253A      2.893033   254A      2.906820   255A      2.947854
     256A      2.961057   257A      2.971191   258A      3.022968
     259A      3.047097   260A      3.062007   261A      3.077283
     262A      3.121118   263A      3.198486   264A      3.293012
     265A      3.371038   266A      3.737299   267A      3.934860

    Final Occupation by Irrep:
              A
    DOCC [    48 ]

  @RHF Final Energy:  -518.78639255911094

   => Energetics <=

    Nuclear Repulsion Energy =            755.9754973826420610
    One-Electron Energy =               -2201.5463790041053471
    Two-Electron Energy =                 926.7844890623523497
    Total Energy =                       -518.7863925591109364

Computation Completed

Properties will be evaluated at   0.000000,   0.000000,   0.000000 [a0]

Properties computed using the SCF density matrix

  Nuclear Dipole Moment: [e a0]
     X:    11.9335      Y:    -8.7760      Z:    -3.1670

  Electronic Dipole Moment: [e a0]
     X:   -11.4418      Y:     9.1026      Z:     3.6345

  Dipole Moment: [e a0]
     X:     0.4917      Y:     0.3266      Z:     0.4675     Total:     0.7530

  Dipole Moment: [D]
     X:     1.2498      Y:     0.8301      Z:     1.1882     Total:     1.9139

*** tstop() called on ds3 at Mon Apr 27 16:42:04 2020
Module time:
	user time   =     316.44 seconds =       5.27 minutes
	system time =     121.68 seconds =       2.03 minutes
	total time  =        421 seconds =       7.02 minutes
Total time:
	user time   =     316.44 seconds =       5.27 minutes
	system time =     121.68 seconds =       2.03 minutes
	total time  =        421 seconds =       7.02 minutes
                                     G D M A

                                 by Anthony Stone

                           version 2.2.06, 22 June 2011

               Distributed Multipoles from Gaussian wavefunctions

Starting at 16:42:4 on 27 Apr 2020

Using SCF density matrix from file ./SSI/SSI-070TRP-174PRO-1-dimer.test.27322.fchk

                         Distributed Multipole Analysis

Standard DMA

Positions and radii in angstrom
Multipole moments in atomic units, ea_0^k for rank k

C          x = -2.286468  y = -0.214849  z =  3.011428 angstrom
           Maximum rank =  0   Radius =  0.650 angstrom
                   Q00  =  -0.211590

C          x = -0.248468  y =  0.934151  z =  0.065428 angstrom
           Maximum rank =  0   Radius =  0.650 angstrom
                   Q00  =   0.289494

C          x = -1.405468  y =  0.291151  z =  0.590428 angstrom
           Maximum rank =  0   Radius =  0.650 angstrom
                   Q00  =  -0.051807

C          x = -1.351468  y =  0.414151  z =  2.023428 angstrom
           Maximum rank =  0   Radius =  0.650 angstrom
                   Q00  =  -0.119619

C          x = -0.218468  y =  1.119151  z =  2.302428 angstrom
           Maximum rank =  0   Radius =  0.650 angstrom
                   Q00  =   0.074891

C          x =  0.021532  y =  0.995151  z = -1.299572 angstrom
           Maximum rank =  0   Radius =  0.650 angstrom
                   Q00  =  -0.121741

C          x = -0.884468  y =  0.399151  z = -2.165572 angstrom
           Maximum rank =  0   Radius =  0.650 angstrom
                   Q00  =  -0.072519

C          x = -2.039468  y = -0.245849  z = -1.678572 angstrom
           Maximum rank =  0   Radius =  0.650 angstrom
                   Q00  =  -0.089334

C          x = -2.306468  y = -0.306849  z = -0.306572 angstrom
           Maximum rank =  0   Radius =  0.650 angstrom
                   Q00  =  -0.096769

N          x =  0.448532  y =  1.425151  z =  1.137428 angstrom
           Maximum rank =  0   Radius =  0.650 angstrom
                   Q00  =  -0.497147

H          x =  0.906532  y =  1.494151  z = -1.669572 angstrom
           Maximum rank =  0   Radius =  0.325 angstrom
                   Q00  =   0.073906

H          x = -0.705468  y =  0.432151  z = -3.231572 angstrom
           Maximum rank =  0   Radius =  0.325 angstrom
                   Q00  =   0.066434

H          x =  1.332532  y =  1.920151  z =  1.100428 angstrom
           Maximum rank =  0   Radius =  0.325 angstrom
                   Q00  =   0.219668

H          x = -2.725468  y = -0.702849  z = -2.376572 angstrom
           Maximum rank =  0   Radius =  0.325 angstrom
                   Q00  =   0.062607

H          x =  0.132532  y =  1.350151  z =  3.303428 angstrom
           Maximum rank =  0   Radius =  0.325 angstrom
                   Q00  =   0.102280

H          x = -3.186468  y = -0.811849  z =  0.060428 angstrom
           Maximum rank =  0   Radius =  0.325 angstrom
                   Q00  =   0.072008

H          x = -1.748468  y = -0.362849  z =  3.948428 angstrom
           Maximum rank =  0   Radius =  0.325 angstrom
                   Q00  =   0.101919

H          x = -2.535468  y = -1.195849  z =  2.629428 angstrom
           Maximum rank =  0   Radius =  0.325 angstrom
                   Q00  =   0.102652

H          x = -3.227828  y =  0.311625  z =  3.227454 angstrom
           Maximum rank =  0   Radius =  0.325 angstrom
                   Q00  =   0.098987

C          x =  3.079532  y = -1.203849  z = -0.594572 angstrom
           Maximum rank =  0   Radius =  0.650 angstrom
                   Q00  =  -0.075356

C          x =  2.241532  y = -2.345849  z = -1.152572 angstrom
           Maximum rank =  0   Radius =  0.650 angstrom
                   Q00  =  -0.223331

C          x =  3.805532  y = -0.712849  z = -1.839572 angstrom
           Maximum rank =  0   Radius =  0.650 angstrom
                   Q00  =  -0.229324

H          x =  3.783532  y = -1.591849  z =  0.142428 angstrom
           Maximum rank =  0   Radius =  0.325 angstrom
                   Q00  =   0.050784

H          x =  2.459532  y = -0.422849  z = -0.155572 angstrom
           Maximum rank =  0   Radius =  0.325 angstrom
                   Q00  =   0.048228

H          x =  1.890532  y = -3.014849  z = -0.367572 angstrom
           Maximum rank =  0   Radius =  0.325 angstrom
                   Q00  =   0.080099

H          x =  1.401532  y = -1.948849  z = -1.725572 angstrom
           Maximum rank =  0   Radius =  0.325 angstrom
                   Q00  =   0.091302

H          x =  3.212532  y =  0.015151  z = -2.392572 angstrom
           Maximum rank =  0   Radius =  0.325 angstrom
                   Q00  =   0.079801

H          x =  2.954452  y = -2.850321  z = -1.821341 angstrom
           Maximum rank =  0   Radius =  0.325 angstrom
                   Q00  =   0.042213

H          x =  3.966302  y = -1.631409  z = -2.423012 angstrom
           Maximum rank =  0   Radius =  0.325 angstrom
                   Q00  =   0.058168

H          x =  4.820072  y = -0.346808  z = -1.623406 angstrom
           Maximum rank =  0   Radius =  0.325 angstrom
                   Q00  =   0.073096

Total multipoles referred to origin at
           x =   0.000000,  y =    0.000000,  z =    0.000000 angstrom
                   Q00  =  -0.000000

Finished at 16:42:4 on 27 Apr 2020

  DMA results are available in the Python driver through the
	  variable('DMA DISTRIBUTED MULTIPOLES')
  and
	  variable('DMA TOTAL MULTIPOLES')
  commands.

    Psi4 stopped on: Monday, 27 April 2020 04:42PM
    Psi4 wall time for execution: 0:07:01.26

*** Psi4 exiting successfully. Buy a developer a beer!
