                               Psi4 1.3.2 release

  ==> Input File <==

--------------------------------------------------------------------------
import numpy as np
set {scf_type pk
basis cc-pvdz
d_convergence 10
gdma_switch   0
gdma_limit    0
gdma_origin   [ 0.0,  0.0,  0.0 ]
}
molecule test {
    units Angstrom
    0 1
    --
    0 1
    C                0.727559475135726     1.329933023021716    -1.121705459060950
    C                0.008559475135726     2.430933023021716    -1.902705459060950
    H                1.407559475135726     0.781933023021716    -1.775705459060950
    H                1.295559475135726     1.755933023021716    -0.294705459060950
    H                0.005559475135726     0.642933023021716    -0.688705459060950
    H               -0.719440524864274     2.892933023021716    -1.235705459060950
    H               -0.520300524864274     1.995323023021716    -2.763255459060950
    H                0.698009475135726     3.205853023021716    -2.268975459060950
    C               -0.678440524864274    -1.542066976978284     0.913294540939049
    C               -0.055440524864274    -2.217066976978284     2.116294540939050
    H               -0.928440524864274    -0.508066976978284     1.155294540939050
    H                0.035559475135726    -1.546066976978284     0.088294540939050
    H               -1.573440524864274    -2.077066976978284     0.596294540939050
    H                0.923559475135726    -1.786066976978284     2.319294540939050
    H               -0.706850524864274    -2.110606976978284     2.996254540939050
    H                0.056019475135726    -3.267656976978284     1.809964540939050

}
e, wfn = energy('scf', return_wfn=True)
gdma(wfn)
dmavals = variable('DMA DISTRIBUTED MULTIPOLES')
charges = np.array(dmavals)
print(charges)
np.save('SSI-011ILE-028LEU-1-dimer.npy', np.array(charges))--------------------------------------------------------------------------

*** tstart() called on ds3
*** at Sun Apr 26 22:43:54 2020

   => Loading Basis Set <=

    Name: CC-PVDZ
    Role: ORBITAL
    Keyword: BASIS
    atoms 1-2, 9-10  entry C          line   138 file /theoryfs2/ds/metcalf/miniconda2/envs/tf2gpu/share/psi4/basis/cc-pvdz.gbs
    atoms 3-8, 11-16 entry H          line    22 file /theoryfs2/ds/metcalf/miniconda2/envs/tf2gpu/share/psi4/basis/cc-pvdz.gbs

         ---------------------------------------------------------
                                   SCF
               by Justin Turney, Rob Parrish, Andy Simmonett
                          and Daniel G. A. Smith
                              RHF Reference
                        1 Threads,    500 MiB Core
         ---------------------------------------------------------

  ==> Geometry <==

    Molecular point group: c1
    Full point group: C1

    Geometry (in Angstrom), charge = 0, multiplicity = 1:

       Center              X                  Y                   Z               Mass
    ------------   -----------------  -----------------  -----------------  -----------------
         C            0.727559475136     1.329933023022    -1.121705459061    12.000000000000
         C            0.008559475136     2.430933023022    -1.902705459061    12.000000000000
         H            1.407559475136     0.781933023022    -1.775705459061     1.007825032230
         H            1.295559475136     1.755933023022    -0.294705459061     1.007825032230
         H            0.005559475136     0.642933023022    -0.688705459061     1.007825032230
         H           -0.719440524864     2.892933023022    -1.235705459061     1.007825032230
         H           -0.520300524864     1.995323023022    -2.763255459061     1.007825032230
         H            0.698009475136     3.205853023022    -2.268975459061     1.007825032230
         C           -0.678440524864    -1.542066976978     0.913294540939    12.000000000000
         C           -0.055440524864    -2.217066976978     2.116294540939    12.000000000000
         H           -0.928440524864    -0.508066976978     1.155294540939     1.007825032230
         H            0.035559475136    -1.546066976978     0.088294540939     1.007825032230
         H           -1.573440524864    -2.077066976978     0.596294540939     1.007825032230
         H            0.923559475136    -1.786066976978     2.319294540939     1.007825032230
         H           -0.706850524864    -2.110606976978     2.996254540939     1.007825032230
         H            0.056019475136    -3.267656976978     1.809964540939     1.007825032230

  Running in c1 symmetry.

  Rotational constants: A =      0.64827  B =      0.04262  C =      0.04155 [cm^-1]
  Rotational constants: A =  19434.60130  B =   1277.67773  C =   1245.54814 [MHz]
  Nuclear repulsion =  120.725947220865081

  Charge       = 0
  Multiplicity = 1
  Electrons    = 36
  Nalpha       = 18
  Nbeta        = 18

  ==> Algorithm <==

  SCF Algorithm Type is PK.
  DIIS enabled.
  MOM disabled.
  Fractional occupation disabled.
  Guess Type is SAD.
  Energy threshold   = 1.00e-06
  Density threshold  = 1.00e-10
  Integral threshold = 0.00e+00

  ==> Primary Basis <==

  Basis Set: CC-PVDZ
    Blend: CC-PVDZ
    Number of shells: 60
    Number of basis function: 116
    Number of Cartesian functions: 120
    Spherical Harmonics?: true
    Max angular momentum: 2

  ==> Pre-Iterations <==

   -------------------------------------------------------
    Irrep   Nso     Nmo     Nalpha   Nbeta   Ndocc  Nsocc
   -------------------------------------------------------
     A        116     116       0       0       0       0
   -------------------------------------------------------
    Total     116     116      18      18      18       0
   -------------------------------------------------------

  ==> Integral Setup <==

  Using integral reordering PK algorithm.
  Sizing the integral batches needed.
  Building batch lookup table.
   Calculation information:
      Number of atoms:                  16
      Number of AO shells:              60
      Number of primitives:            148
      Number of atomic orbitals:       120
      Number of basis functions:       116

      Integral cutoff                 1.00e-12
      Number of threads:                 1

	Batch   1 pq = [       0,    6786] index = [             0,23028291] size =     23028291
  Task number: 3
  Buffer size: 11059200
  Buffer per thread: 2
  We computed 1366994 shell quartets total.
  Whereas there are 1675365 unique shell quartets.

  ==> DiskJK: Disk-Based J/K Matrices <==

    J tasked:                  Yes
    K tasked:                  Yes
    wK tasked:                  No
    Memory [MiB]:              375
    Schwarz Cutoff:          1E-12

    OpenMP threads:              1

  Minimum eigenvalue in the overlap matrix is 6.7248582081E-03.
  Using Symmetric Orthogonalization.

  SCF Guess: Superposition of Atomic Densities via on-the-fly atomic UHF.

  ==> Iterations <==

                        Total Energy        Delta E     RMS |[F,P]|

   @RHF iter SAD:  -157.38355275919713   -1.57384e+02   0.00000e+00
   @RHF iter   1:  -158.30408208857224   -9.20529e-01   4.23449e-03 DIIS
   @RHF iter   2:  -158.43848101284163   -1.34399e-01   1.80452e-03 DIIS
   @RHF iter   3:  -158.46210470225890   -2.36237e-02   3.51356e-04 DIIS
   @RHF iter   4:  -158.46395762195053   -1.85292e-03   3.93467e-05 DIIS
   @RHF iter   5:  -158.46398235160996   -2.47297e-05   6.70146e-06 DIIS
   @RHF iter   6:  -158.46398302573081   -6.74121e-07   1.15078e-06 DIIS
   @RHF iter   7:  -158.46398303912656   -1.33957e-08   3.29653e-07 DIIS
   @RHF iter   8:  -158.46398304013752   -1.01096e-09   4.68321e-08 DIIS
   @RHF iter   9:  -158.46398304017291   -3.53850e-11   1.05859e-08 DIIS
   @RHF iter  10:  -158.46398304017487   -1.96110e-12   2.77740e-09 DIIS
   @RHF iter  11:  -158.46398304017504   -1.70530e-13   8.26400e-10 DIIS
   @RHF iter  12:  -158.46398304017524   -1.98952e-13   1.82678e-10 DIIS
   @RHF iter  13:  -158.46398304017578   -5.40012e-13   2.40234e-11 DIIS
  Energy and wave function converged.

  ==> Post-Iterations <==

    Orbital Energies [Eh]
    ---------------------

    Doubly Occupied:

       1A    -11.218569     2A    -11.218369     3A    -11.215300
       4A    -11.214636     5A     -1.024048     6A     -1.016337
       7A     -0.838588     8A     -0.831546     9A     -0.605885
      10A     -0.602294    11A     -0.597455    12A     -0.592156
      13A     -0.506496    14A     -0.499813    15A     -0.488303
      16A     -0.486005    17A     -0.482892    18A     -0.474330

    Virtual:

      19A      0.176535    20A      0.193920    21A      0.229232
      22A      0.238390    23A      0.243534    24A      0.257304
      25A      0.262825    26A      0.278043    27A      0.283524
      28A      0.290932    29A      0.294574    30A      0.327623
      31A      0.391056    32A      0.416784    33A      0.579310
      34A      0.596862    35A      0.603134    36A      0.609953
      37A      0.615189    38A      0.626242    39A      0.665722
      40A      0.676691    41A      0.698110    42A      0.784739
      43A      0.851971    44A      0.865092    45A      0.887505
      46A      0.891363    47A      0.892705    48A      0.896065
      49A      0.897943    50A      0.900416    51A      0.912645
      52A      0.914326    53A      0.929782    54A      0.939922
      55A      0.977966    56A      0.994911    57A      1.119149
      58A      1.125087    59A      1.136284    60A      1.177439
      61A      1.228391    62A      1.285770    63A      1.465434
      64A      1.476539    65A      1.484458    66A      1.494910
      67A      1.561586    68A      1.597379    69A      1.669811
      70A      1.683437    71A      1.688885    72A      1.704463
      73A      1.841030    74A      1.849393    75A      1.868886
      76A      1.882132    77A      1.905547    78A      1.919180
      79A      1.926464    80A      1.939260    81A      1.944171
      82A      1.950510    83A      1.951651    84A      1.956878
      85A      1.960696    86A      1.985413    87A      1.992785
      88A      2.017522    89A      2.091107    90A      2.105177
      91A      2.121432    92A      2.145123    93A      2.286507
      94A      2.302914    95A      2.316787    96A      2.319662
      97A      2.446970    98A      2.455809    99A      2.460977
     100A      2.485376   101A      2.557752   102A      2.567037
     103A      2.576050   104A      2.594395   105A      2.760116
     106A      2.765885   107A      2.787190   108A      2.793718
     109A      2.827065   110A      2.845549   111A      2.854749
     112A      2.870407   113A      2.936574   114A      2.954354
     115A      2.963650   116A      2.987363

    Final Occupation by Irrep:
              A
    DOCC [    18 ]

  @RHF Final Energy:  -158.46398304017578

   => Energetics <=

    Nuclear Repulsion Energy =            120.7259472208650806
    One-Electron Energy =                -450.5538208204267789
    Two-Electron Energy =                 171.3638905593859363
    Total Energy =                       -158.4639830401757763

Computation Completed

Properties will be evaluated at   0.000000,   0.000000,   0.000000 [a0]

Properties computed using the SCF density matrix

  Nuclear Dipole Moment: [e a0]
     X:    -0.0250      Y:    -0.0193      Z:    -0.0578

  Electronic Dipole Moment: [e a0]
     X:     0.0169      Y:    -0.0042      Z:     0.0722

  Dipole Moment: [e a0]
     X:    -0.0080      Y:    -0.0236      Z:     0.0144     Total:     0.0288

  Dipole Moment: [D]
     X:    -0.0204      Y:    -0.0599      Z:     0.0365     Total:     0.0731

*** tstop() called on ds3 at Sun Apr 26 22:44:06 2020
Module time:
	user time   =       7.83 seconds =       0.13 minutes
	system time =       3.11 seconds =       0.05 minutes
	total time  =         12 seconds =       0.20 minutes
Total time:
	user time   =       7.83 seconds =       0.13 minutes
	system time =       3.11 seconds =       0.05 minutes
	total time  =         12 seconds =       0.20 minutes
                                     G D M A

                                 by Anthony Stone

                           version 2.2.06, 22 June 2011

               Distributed Multipoles from Gaussian wavefunctions

Starting at 22:44:6 on 26 Apr 2020

Using SCF density matrix from file ./SSI/SSI-011ILE-028LEU-1-dimer.test.17596.fchk

                         Distributed Multipole Analysis

Standard DMA

Positions and radii in angstrom
Multipole moments in atomic units, ea_0^k for rank k

C          x =  0.727559  y =  1.329933  z = -1.121705 angstrom
           Maximum rank =  0   Radius =  0.650 angstrom
                   Q00  =  -0.240605

C          x =  0.008559  y =  2.430933  z = -1.902705 angstrom
           Maximum rank =  0   Radius =  0.650 angstrom
                   Q00  =  -0.237782

H          x =  1.407559  y =  0.781933  z = -1.775705 angstrom
           Maximum rank =  0   Radius =  0.325 angstrom
                   Q00  =   0.077139

H          x =  1.295559  y =  1.755933  z = -0.294705 angstrom
           Maximum rank =  0   Radius =  0.325 angstrom
                   Q00  =   0.077156

H          x =  0.005559  y =  0.642933  z = -0.688705 angstrom
           Maximum rank =  0   Radius =  0.325 angstrom
                   Q00  =   0.087721

H          x = -0.719441  y =  2.892933  z = -1.235705 angstrom
           Maximum rank =  0   Radius =  0.325 angstrom
                   Q00  =   0.077260

H          x = -0.520301  y =  1.995323  z = -2.763255 angstrom
           Maximum rank =  0   Radius =  0.325 angstrom
                   Q00  =   0.077721

H          x =  0.698009  y =  3.205853  z = -2.268975 angstrom
           Maximum rank =  0   Radius =  0.325 angstrom
                   Q00  =   0.080071

C          x = -0.678441  y = -1.542067  z =  0.913295 angstrom
           Maximum rank =  0   Radius =  0.650 angstrom
                   Q00  =  -0.246831

C          x = -0.055441  y = -2.217067  z =  2.116295 angstrom
           Maximum rank =  0   Radius =  0.650 angstrom
                   Q00  =  -0.210636

H          x = -0.928441  y = -0.508067  z =  1.155295 angstrom
           Maximum rank =  0   Radius =  0.325 angstrom
                   Q00  =   0.072825

H          x =  0.035559  y = -1.546067  z =  0.088295 angstrom
           Maximum rank =  0   Radius =  0.325 angstrom
                   Q00  =   0.076643

H          x = -1.573441  y = -2.077067  z =  0.596295 angstrom
           Maximum rank =  0   Radius =  0.325 angstrom
                   Q00  =   0.078030

H          x =  0.923559  y = -1.786067  z =  2.319295 angstrom
           Maximum rank =  0   Radius =  0.325 angstrom
                   Q00  =   0.080094

H          x = -0.706851  y = -2.110607  z =  2.996255 angstrom
           Maximum rank =  0   Radius =  0.325 angstrom
                   Q00  =   0.079182

H          x =  0.056019  y = -3.267657  z =  1.809965 angstrom
           Maximum rank =  0   Radius =  0.325 angstrom
                   Q00  =   0.072010

Total multipoles referred to origin at
           x =   0.000000,  y =    0.000000,  z =    0.000000 angstrom
                   Q00  =  -0.000000

Finished at 22:44:6 on 26 Apr 2020

  DMA results are available in the Python driver through the
	  variable('DMA DISTRIBUTED MULTIPOLES')
  and
	  variable('DMA TOTAL MULTIPOLES')
  commands.

    Psi4 stopped on: Sunday, 26 April 2020 10:44PM
    Psi4 wall time for execution: 0:00:11.78

*** Psi4 exiting successfully. Buy a developer a beer!
