                               Psi4 1.3.2 release

  ==> Input File <==

--------------------------------------------------------------------------
import numpy as np
set {scf_type pk
basis cc-pvdz
d_convergence 10
gdma_switch   0
gdma_limit    0
gdma_origin   [ 0.0,  0.0,  0.0 ]
}
molecule test {
    units Angstrom
    1 1
    --
    1 1
    C                0.707784433556721    -1.167157324994413     2.644992718721154
    C                1.502784433556722    -1.720157324994413     1.473992718721154
    O                1.514784433556722    -1.178157324994413     0.363992718721154
    N                2.182784433556721    -2.835157324994413     1.701992718721154
    H                1.322784433556721    -1.243157324994413     3.543992718721154
    H               -0.157215566443279    -1.819157324994413     2.783992718721154
    H                2.714784433556721    -3.231157324994413     0.940992718721154
    H                2.138784433556721    -3.293157324994413     2.598992718721154
    H                0.359094433556721    -0.130543324994413     2.527311218721154
    C               -2.285215566443279     3.032842675005587    -1.565007281278846
    C               -0.936215566443279     0.970842675005587    -1.163007281278846
    N               -0.791215566443279    -0.348157324994413    -1.123007281278846
    N               -2.060215566443278     1.591842675005587    -1.480007281278846
    N                0.092784433556721     1.707842675005587    -0.851007281278846
    H               -1.560215566443278    -0.950157324994413    -1.381007281278846
    H                0.090784433556721    -0.758157324994413    -0.830007281278846
    H               -2.839215566443279     0.997842675005587    -1.729007281278846
    H                0.045784433556721     2.716842675005587    -0.907007281278846
    H                0.979784433556721     1.258842675005587    -0.687007281278846
    H               -3.198215566443279     3.191842675005587    -2.144007281278846
    H               -1.479215566443278     3.517842675005586    -2.119007281278846
    H               -2.421055566443279     3.531155675005587    -0.593805281278846

}
e, wfn = energy('scf', return_wfn=True)
gdma(wfn)
dmavals = variable('DMA DISTRIBUTED MULTIPOLES')
charges = np.array(dmavals)
print(charges)
np.save('SSI-039ASN-042ARG-1-dimer.npy', np.array(charges))--------------------------------------------------------------------------

*** tstart() called on ds3
*** at Tue Apr 28 13:34:14 2020

   => Loading Basis Set <=

    Name: CC-PVDZ
    Role: ORBITAL
    Keyword: BASIS
    atoms 1-2, 10-11 entry C          line   138 file /theoryfs2/ds/metcalf/miniconda2/envs/tf2gpu/share/psi4/basis/cc-pvdz.gbs
    atoms 3          entry O          line   198 file /theoryfs2/ds/metcalf/miniconda2/envs/tf2gpu/share/psi4/basis/cc-pvdz.gbs
    atoms 4, 12-14   entry N          line   168 file /theoryfs2/ds/metcalf/miniconda2/envs/tf2gpu/share/psi4/basis/cc-pvdz.gbs
    atoms 5-9, 15-22 entry H          line    22 file /theoryfs2/ds/metcalf/miniconda2/envs/tf2gpu/share/psi4/basis/cc-pvdz.gbs

         ---------------------------------------------------------
                                   SCF
               by Justin Turney, Rob Parrish, Andy Simmonett
                          and Daniel G. A. Smith
                              RHF Reference
                        1 Threads,    500 MiB Core
         ---------------------------------------------------------

  ==> Geometry <==

    Molecular point group: c1
    Full point group: C1

    Geometry (in Angstrom), charge = 1, multiplicity = 1:

       Center              X                  Y                   Z               Mass
    ------------   -----------------  -----------------  -----------------  -----------------
         C            0.707784433557    -1.167157324994     2.644992718721    12.000000000000
         C            1.502784433557    -1.720157324994     1.473992718721    12.000000000000
         O            1.514784433557    -1.178157324994     0.363992718721    15.994914619570
         N            2.182784433557    -2.835157324994     1.701992718721    14.003074004430
         H            1.322784433557    -1.243157324994     3.543992718721     1.007825032230
         H           -0.157215566443    -1.819157324994     2.783992718721     1.007825032230
         H            2.714784433557    -3.231157324994     0.940992718721     1.007825032230
         H            2.138784433557    -3.293157324994     2.598992718721     1.007825032230
         H            0.359094433557    -0.130543324994     2.527311218721     1.007825032230
         C           -2.285215566443     3.032842675006    -1.565007281279    12.000000000000
         C           -0.936215566443     0.970842675006    -1.163007281279    12.000000000000
         N           -0.791215566443    -0.348157324994    -1.123007281279    14.003074004430
         N           -2.060215566443     1.591842675006    -1.480007281279    14.003074004430
         N            0.092784433557     1.707842675006    -0.851007281279    14.003074004430
         H           -1.560215566443    -0.950157324994    -1.381007281279     1.007825032230
         H            0.090784433557    -0.758157324994    -0.830007281279     1.007825032230
         H           -2.839215566443     0.997842675006    -1.729007281279     1.007825032230
         H            0.045784433557     2.716842675006    -0.907007281279     1.007825032230
         H            0.979784433557     1.258842675006    -0.687007281279     1.007825032230
         H           -3.198215566443     3.191842675006    -2.144007281279     1.007825032230
         H           -1.479215566443     3.517842675006    -2.119007281279     1.007825032230
         H           -2.421055566443     3.531155675006    -0.593805281279     1.007825032230

  Running in c1 symmetry.

  Rotational constants: A =      0.13453  B =      0.01660  C =      0.01624 [cm^-1]
  Rotational constants: A =   4033.09363  B =    497.69629  C =    486.89721 [MHz]
  Nuclear repulsion =  459.083602438190951

  Charge       = 1
  Multiplicity = 1
  Electrons    = 72
  Nalpha       = 36
  Nbeta        = 36

  ==> Algorithm <==

  SCF Algorithm Type is PK.
  DIIS enabled.
  MOM disabled.
  Fractional occupation disabled.
  Guess Type is SAD.
  Energy threshold   = 1.00e-06
  Density threshold  = 1.00e-10
  Integral threshold = 0.00e+00

  ==> Primary Basis <==

  Basis Set: CC-PVDZ
    Blend: CC-PVDZ
    Number of shells: 93
    Number of basis function: 191
    Number of Cartesian functions: 200
    Spherical Harmonics?: true
    Max angular momentum: 2

  ==> Pre-Iterations <==

   -------------------------------------------------------
    Irrep   Nso     Nmo     Nalpha   Nbeta   Ndocc  Nsocc
   -------------------------------------------------------
     A        191     191       0       0       0       0
   -------------------------------------------------------
    Total     191     191      36      36      36       0
   -------------------------------------------------------

  ==> Integral Setup <==

  Using integral reordering PK algorithm.
  Sizing the integral batches needed.
  Building batch lookup table.
   Calculation information:
      Number of atoms:                  22
      Number of AO shells:              93
      Number of primitives:            263
      Number of atomic orbitals:       200
      Number of basis functions:       191

      Integral cutoff                 1.00e-12
      Number of threads:                 1

	Batch   1 pq = [       0,    9405] index = [             0,44231715] size =     44231715
	Batch   2 pq = [    9405,   13301] index = [      44231715,88464951] size =     44233236
	Batch   3 pq = [   13301,   16290] index = [      88464951,132690195] size =     44225244
	Batch   4 pq = [   16290,   18336] index = [     132690195,168113616] size =     35423421
  Task number: 16
  Buffer size: 11059200
  Buffer per thread: 2
  We computed 7104690 shell quartets total.
  Whereas there are 9555006 unique shell quartets.

  ==> DiskJK: Disk-Based J/K Matrices <==

    J tasked:                  Yes
    K tasked:                  Yes
    wK tasked:                  No
    Memory [MiB]:              375
    Schwarz Cutoff:          1E-12

    OpenMP threads:              1

  Minimum eigenvalue in the overlap matrix is 3.7703763935E-03.
  Using Symmetric Orthogonalization.

  SCF Guess: Superposition of Atomic Densities via on-the-fly atomic UHF.

  ==> Iterations <==

                        Total Energy        Delta E     RMS |[F,P]|

   @RHF iter SAD:  -450.75309425611550   -4.50753e+02   0.00000e+00
   @RHF iter   1:  -451.35953938747974   -6.06445e-01   3.60176e-03 DIIS
   @RHF iter   2:  -451.56065058186482   -2.01111e-01   1.75385e-03 DIIS
   @RHF iter   3:  -451.60372100148436   -4.30704e-02   4.26875e-04 DIIS
   @RHF iter   4:  -451.60743738020432   -3.71638e-03   1.60319e-04 DIIS
   @RHF iter   5:  -451.60794892548728   -5.11545e-04   2.69055e-05 DIIS
   @RHF iter   6:  -451.60797776035014   -2.88349e-05   1.10476e-05 DIIS
   @RHF iter   7:  -451.60798140409065   -3.64374e-06   3.23003e-06 DIIS
   @RHF iter   8:  -451.60798196536041   -5.61270e-07   1.03744e-06 DIIS
   @RHF iter   9:  -451.60798201782444   -5.24640e-08   3.72614e-07 DIIS
   @RHF iter  10:  -451.60798202482351   -6.99907e-09   1.45014e-07 DIIS
   @RHF iter  11:  -451.60798202578150   -9.57982e-10   3.07570e-08 DIIS
   @RHF iter  12:  -451.60798202582203   -4.05294e-11   1.10083e-08 DIIS
   @RHF iter  13:  -451.60798202582555   -3.52429e-12   3.13377e-09 DIIS
   @RHF iter  14:  -451.60798202582566   -1.13687e-13   8.76704e-10 DIIS
   @RHF iter  15:  -451.60798202582237    3.29692e-12   2.89266e-10 DIIS
   @RHF iter  16:  -451.60798202582737   -5.00222e-12   9.90190e-11 DIIS
  Energy and wave function converged.

  ==> Post-Iterations <==

    Orbital Energies [Eh]
    ---------------------

    Doubly Occupied:

       1A    -20.640342     2A    -15.764585     3A    -15.756006
       4A    -15.746485     5A    -15.705012     6A    -11.558634
       7A    -11.479972     8A    -11.428336     9A    -11.357504
      10A     -1.519399    11A     -1.500350    12A     -1.379295
      13A     -1.355636    14A     -1.336276    15A     -1.125363
      16A     -1.116251    17A     -1.009116    18A     -0.952929
      19A     -0.922728    20A     -0.903048    21A     -0.844571
      22A     -0.826787    23A     -0.821344    24A     -0.802850
      25A     -0.786684    26A     -0.775741    27A     -0.730761
      28A     -0.722906    29A     -0.704072    30A     -0.698193
      31A     -0.675012    32A     -0.641356    33A     -0.582546
      34A     -0.565198    35A     -0.545249    36A     -0.532477

    Virtual:

      37A      0.020224    38A      0.045892    39A      0.054261
      40A      0.061497    41A      0.071434    42A      0.079807
      43A      0.098159    44A      0.114195    45A      0.126105
      46A      0.133105    47A      0.137561    48A      0.146291
      49A      0.155942    50A      0.166668    51A      0.176577
      52A      0.230871    53A      0.267256    54A      0.308350
      55A      0.338159    56A      0.367046    57A      0.383903
      58A      0.425667    59A      0.466281    60A      0.482821
      61A      0.516774    62A      0.521930    63A      0.538206
      64A      0.551765    65A      0.557009    66A      0.566810
      67A      0.570784    68A      0.585590    69A      0.601236
      70A      0.627673    71A      0.629093    72A      0.636486
      73A      0.697899    74A      0.709810    75A      0.719228
      76A      0.725062    77A      0.729569    78A      0.748307
      79A      0.762950    80A      0.768245    81A      0.783099
      82A      0.793067    83A      0.814203    84A      0.827346
      85A      0.845247    86A      0.870811    87A      0.885695
      88A      0.890261    89A      0.906027    90A      0.932278
      91A      0.946459    92A      0.957075    93A      0.981137
      94A      1.011353    95A      1.015905    96A      1.064186
      97A      1.093320    98A      1.139015    99A      1.154381
     100A      1.187475   101A      1.203907   102A      1.220628
     103A      1.227136   104A      1.243065   105A      1.253064
     106A      1.280667   107A      1.292074   108A      1.320174
     109A      1.348265   110A      1.374438   111A      1.430824
     112A      1.437321   113A      1.492875   114A      1.519890
     115A      1.534239   116A      1.539027   117A      1.544378
     118A      1.556732   119A      1.573449   120A      1.587914
     121A      1.644595   122A      1.670289   123A      1.706134
     124A      1.721664   125A      1.735361   126A      1.753640
     127A      1.767939   128A      1.768988   129A      1.772653
     130A      1.784040   131A      1.789624   132A      1.794931
     133A      1.826142   134A      1.838105   135A      1.843664
     136A      1.857325   137A      1.864500   138A      1.877187
     139A      1.920819   140A      1.944230   141A      1.978326
     142A      2.013986   143A      2.022657   144A      2.055283
     145A      2.089004   146A      2.114147   147A      2.145831
     148A      2.154369   149A      2.177629   150A      2.197985
     151A      2.256396   152A      2.277914   153A      2.307736
     154A      2.309051   155A      2.327334   156A      2.366032
     157A      2.370880   158A      2.381638   159A      2.410735
     160A      2.428597   161A      2.461888   162A      2.478951
     163A      2.486624   164A      2.519480   165A      2.561712
     166A      2.581189   167A      2.607598   168A      2.619819
     169A      2.627287   170A      2.668502   171A      2.680056
     172A      2.737302   173A      2.756491   174A      2.800767
     175A      2.830548   176A      2.853820   177A      2.855853
     178A      2.873512   179A      2.919190   180A      2.953513
     181A      3.007919   182A      3.099967   183A      3.138392
     184A      3.173120   185A      3.180458   186A      3.361528
     187A      3.400115   188A      3.566670   189A      3.712475
     190A      3.739898   191A      3.800883

    Final Occupation by Irrep:
              A
    DOCC [    36 ]

  @RHF Final Energy:  -451.60798202582737

   => Energetics <=

    Nuclear Repulsion Energy =            459.0836024381909510
    One-Electron Energy =               -1513.7571431240937727
    Two-Electron Energy =                 603.0655586600755669
    Total Energy =                       -451.6079820258273685

Computation Completed

Properties will be evaluated at   0.000000,   0.000000,   0.000000 [a0]

Properties computed using the SCF density matrix

  Nuclear Dipole Moment: [e a0]
     X:    -3.7441      Y:     3.5460      Z:     1.8859

  Electronic Dipole Moment: [e a0]
     X:     2.4162      Y:    -2.9286      Z:    -2.2646

  Dipole Moment: [e a0]
     X:    -1.3279      Y:     0.6174      Z:    -0.3787     Total:     1.5126

  Dipole Moment: [D]
     X:    -3.3751      Y:     1.5693      Z:    -0.9625     Total:     3.8445

*** tstop() called on ds3 at Tue Apr 28 13:37:06 2020
Module time:
	user time   =      51.69 seconds =       0.86 minutes
	system time =      21.61 seconds =       0.36 minutes
	total time  =        172 seconds =       2.87 minutes
Total time:
	user time   =      51.69 seconds =       0.86 minutes
	system time =      21.61 seconds =       0.36 minutes
	total time  =        172 seconds =       2.87 minutes
                                     G D M A

                                 by Anthony Stone

                           version 2.2.06, 22 June 2011

               Distributed Multipoles from Gaussian wavefunctions

Starting at 13:37:6 on 28 Apr 2020

Using SCF density matrix from file ./SSI/SSI-039ASN-042ARG-1-dimer.test.16395.fchk

                         Distributed Multipole Analysis

Standard DMA

Positions and radii in angstrom
Multipole moments in atomic units, ea_0^k for rank k

C          x =  0.707784  y = -1.167157  z =  2.644993 angstrom
           Maximum rank =  0   Radius =  0.650 angstrom
                   Q00  =  -0.263374

C          x =  1.502784  y = -1.720157  z =  1.473993 angstrom
           Maximum rank =  0   Radius =  0.650 angstrom
                   Q00  =   0.820881

O          x =  1.514784  y = -1.178157  z =  0.363993 angstrom
           Maximum rank =  0   Radius =  0.650 angstrom
                   Q00  =  -0.834050

N          x =  2.182784  y = -2.835157  z =  1.701993 angstrom
           Maximum rank =  0   Radius =  0.650 angstrom
                   Q00  =  -0.541068

H          x =  1.322784  y = -1.243157  z =  3.543993 angstrom
           Maximum rank =  0   Radius =  0.325 angstrom
                   Q00  =   0.120150

H          x = -0.157216  y = -1.819157  z =  2.783993 angstrom
           Maximum rank =  0   Radius =  0.325 angstrom
                   Q00  =   0.129877

H          x =  2.714784  y = -3.231157  z =  0.940993 angstrom
           Maximum rank =  0   Radius =  0.325 angstrom
                   Q00  =   0.241784

H          x =  2.138784  y = -3.293157  z =  2.598993 angstrom
           Maximum rank =  0   Radius =  0.325 angstrom
                   Q00  =   0.232650

H          x =  0.359094  y = -0.130543  z =  2.527311 angstrom
           Maximum rank =  0   Radius =  0.325 angstrom
                   Q00  =   0.125200

C          x = -2.285216  y =  3.032843  z = -1.565007 angstrom
           Maximum rank =  0   Radius =  0.650 angstrom
                   Q00  =  -0.132881

C          x = -0.936216  y =  0.970843  z = -1.163007 angstrom
           Maximum rank =  0   Radius =  0.650 angstrom
                   Q00  =   1.087074

N          x = -0.791216  y = -0.348157  z = -1.123007 angstrom
           Maximum rank =  0   Radius =  0.650 angstrom
                   Q00  =  -0.623389

N          x = -2.060216  y =  1.591843  z = -1.480007 angstrom
           Maximum rank =  0   Radius =  0.650 angstrom
                   Q00  =  -0.494828

N          x =  0.092784  y =  1.707843  z = -0.851007 angstrom
           Maximum rank =  0   Radius =  0.650 angstrom
                   Q00  =  -0.576345

H          x = -1.560216  y = -0.950157  z = -1.381007 angstrom
           Maximum rank =  0   Radius =  0.325 angstrom
                   Q00  =   0.246702

H          x =  0.090784  y = -0.758157  z = -0.830007 angstrom
           Maximum rank =  0   Radius =  0.325 angstrom
                   Q00  =   0.310856

H          x = -2.839216  y =  0.997843  z = -1.729007 angstrom
           Maximum rank =  0   Radius =  0.325 angstrom
                   Q00  =   0.219673

H          x =  0.045784  y =  2.716843  z = -0.907007 angstrom
           Maximum rank =  0   Radius =  0.325 angstrom
                   Q00  =   0.261938

H          x =  0.979784  y =  1.258843  z = -0.687007 angstrom
           Maximum rank =  0   Radius =  0.325 angstrom
                   Q00  =   0.272148

H          x = -3.198216  y =  3.191843  z = -2.144007 angstrom
           Maximum rank =  0   Radius =  0.325 angstrom
                   Q00  =   0.160902

H          x = -1.479216  y =  3.517843  z = -2.119007 angstrom
           Maximum rank =  0   Radius =  0.325 angstrom
                   Q00  =   0.111230

H          x = -2.421056  y =  3.531156  z = -0.593805 angstrom
           Maximum rank =  0   Radius =  0.325 angstrom
                   Q00  =   0.124867

Total multipoles referred to origin at
           x =   0.000000,  y =    0.000000,  z =    0.000000 angstrom
                   Q00  =   1.000000

Finished at 13:37:7 on 28 Apr 2020

  DMA results are available in the Python driver through the
	  variable('DMA DISTRIBUTED MULTIPOLES')
  and
	  variable('DMA TOTAL MULTIPOLES')
  commands.

    Psi4 stopped on: Tuesday, 28 April 2020 01:37PM
    Psi4 wall time for execution: 0:02:52.77

*** Psi4 exiting successfully. Buy a developer a beer!
