                               Psi4 1.3.2 release

  ==> Input File <==

--------------------------------------------------------------------------
import numpy as np
set {scf_type pk
basis cc-pvdz
d_convergence 10
gdma_switch   0
gdma_limit    0
gdma_origin   [ 0.0,  0.0,  0.0 ]
}
molecule test {
    units Angstrom
    0 1
    --
    0 1
    C               -0.690287120152467    -5.354586363910531    -2.104974678894870
    C               -0.709287120152467    -1.456586363910532    -0.333974678894870
    C                0.480712879847533    -2.126586363910532    -0.557974678894870
    C               -1.911287120152467    -2.072586363910532    -0.650974678894870
    C                0.475712879847533    -3.387586363910532    -1.098974678894870
    C               -1.913287120152467    -3.331586363910533    -1.218974678894870
    C               -0.719287120152467    -4.013586363910533    -1.421974678894870
    H               -0.698287120152467    -0.460586363910532     0.084025321105130
    H                1.419712879847533    -1.648586363910532    -0.314974678894870
    H               -2.843287120152468    -1.554586363910532    -0.476974678894870
    H                1.415712879847533    -3.882586363910533    -1.283974678894870
    H               -2.847287120152468    -3.775586363910532    -1.514974678894870
    H                0.340712879847533    -5.707586363910533    -2.140974678894870
    H               -1.013287120152467    -5.217586363910533    -3.133974678894870
    H               -1.294467120152467    -6.149626363910532    -1.643594678894870
    C                3.223712879847533     3.905413636089468     0.328025321105130
    C               -0.631287120152467     2.098413636089468     1.177025321105130
    C                0.518712879847533     1.682413636089468     1.884025321105130
    C               -0.501287120152467     3.086413636089468     0.228025321105130
    C                1.776712879847533     2.261413636089467     1.604025321105130
    C                0.747712879847533     3.677413636089467    -0.010974678894870
    C                1.893712879847533     3.269413636089467     0.655025321105130
    O               -1.891287120152467     1.597413636089468     1.381025321105130
    H                0.442712879847533     0.909413636089468     2.633025321105130
    H               -1.958287120152467     1.082413636089468     2.192025321105131
    H               -1.369287120152467     3.409413636089468    -0.326974678894870
    H                2.654712879847533     1.920413636089468     2.137025321105130
    H                0.820712879847533     4.459413636089468    -0.755974678894870
    H                3.931712879847532     3.762413636089468     1.146025321105130
    H                3.061712879847533     4.979413636089468     0.215025321105130
    H                3.650982879847533     3.504043636089468    -0.602754678894870

}
e, wfn = energy('scf', return_wfn=True)
gdma(wfn)
dmavals = variable('DMA DISTRIBUTED MULTIPOLES')
charges = np.array(dmavals)
print(charges)
np.save('SSI-217PHE-234TYR-1-dimer.npy', np.array(charges))--------------------------------------------------------------------------

*** tstart() called on ds3
*** at Sun Apr 26 17:41:00 2020

   => Loading Basis Set <=

    Name: CC-PVDZ
    Role: ORBITAL
    Keyword: BASIS
    atoms 1-7, 16-22  entry C          line   138 file /theoryfs2/ds/metcalf/miniconda2/envs/tf2gpu/share/psi4/basis/cc-pvdz.gbs
    atoms 8-15, 24-31 entry H          line    22 file /theoryfs2/ds/metcalf/miniconda2/envs/tf2gpu/share/psi4/basis/cc-pvdz.gbs
    atoms 23          entry O          line   198 file /theoryfs2/ds/metcalf/miniconda2/envs/tf2gpu/share/psi4/basis/cc-pvdz.gbs

         ---------------------------------------------------------
                                   SCF
               by Justin Turney, Rob Parrish, Andy Simmonett
                          and Daniel G. A. Smith
                              RHF Reference
                        1 Threads,    500 MiB Core
         ---------------------------------------------------------

  ==> Geometry <==

    Molecular point group: c1
    Full point group: C1

    Geometry (in Angstrom), charge = 0, multiplicity = 1:

       Center              X                  Y                   Z               Mass
    ------------   -----------------  -----------------  -----------------  -----------------
         C           -0.690287120152    -5.354586363911    -2.104974678895    12.000000000000
         C           -0.709287120152    -1.456586363911    -0.333974678895    12.000000000000
         C            0.480712879848    -2.126586363911    -0.557974678895    12.000000000000
         C           -1.911287120152    -2.072586363911    -0.650974678895    12.000000000000
         C            0.475712879848    -3.387586363911    -1.098974678895    12.000000000000
         C           -1.913287120152    -3.331586363911    -1.218974678895    12.000000000000
         C           -0.719287120152    -4.013586363911    -1.421974678895    12.000000000000
         H           -0.698287120152    -0.460586363911     0.084025321105     1.007825032230
         H            1.419712879848    -1.648586363911    -0.314974678895     1.007825032230
         H           -2.843287120152    -1.554586363911    -0.476974678895     1.007825032230
         H            1.415712879848    -3.882586363911    -1.283974678895     1.007825032230
         H           -2.847287120152    -3.775586363911    -1.514974678895     1.007825032230
         H            0.340712879848    -5.707586363911    -2.140974678895     1.007825032230
         H           -1.013287120152    -5.217586363911    -3.133974678895     1.007825032230
         H           -1.294467120152    -6.149626363911    -1.643594678895     1.007825032230
         C            3.223712879848     3.905413636089     0.328025321105    12.000000000000
         C           -0.631287120152     2.098413636089     1.177025321105    12.000000000000
         C            0.518712879848     1.682413636089     1.884025321105    12.000000000000
         C           -0.501287120152     3.086413636089     0.228025321105    12.000000000000
         C            1.776712879848     2.261413636089     1.604025321105    12.000000000000
         C            0.747712879848     3.677413636089    -0.010974678895    12.000000000000
         C            1.893712879848     3.269413636089     0.655025321105    12.000000000000
         O           -1.891287120152     1.597413636089     1.381025321105    15.994914619570
         H            0.442712879848     0.909413636089     2.633025321105     1.007825032230
         H           -1.958287120152     1.082413636089     2.192025321105     1.007825032230
         H           -1.369287120152     3.409413636089    -0.326974678895     1.007825032230
         H            2.654712879848     1.920413636089     2.137025321105     1.007825032230
         H            0.820712879848     4.459413636089    -0.755974678895     1.007825032230
         H            3.931712879848     3.762413636089     1.146025321105     1.007825032230
         H            3.061712879848     4.979413636089     0.215025321105     1.007825032230
         H            3.650982879848     3.504043636089    -0.602754678895     1.007825032230

  Running in c1 symmetry.

  Rotational constants: A =      0.03888  B =      0.00717  C =      0.00647 [cm^-1]
  Rotational constants: A =   1165.52651  B =    214.95889  C =    194.04661 [MHz]
  Nuclear repulsion =  858.077396282608788

  Charge       = 0
  Multiplicity = 1
  Electrons    = 108
  Nalpha       = 54
  Nbeta        = 54

  ==> Algorithm <==

  SCF Algorithm Type is PK.
  DIIS enabled.
  MOM disabled.
  Fractional occupation disabled.
  Guess Type is SAD.
  Energy threshold   = 1.00e-06
  Density threshold  = 1.00e-10
  Integral threshold = 0.00e+00

  ==> Primary Basis <==

  Basis Set: CC-PVDZ
    Blend: CC-PVDZ
    Number of shells: 138
    Number of basis function: 290
    Number of Cartesian functions: 305
    Spherical Harmonics?: true
    Max angular momentum: 2

  ==> Pre-Iterations <==

   -------------------------------------------------------
    Irrep   Nso     Nmo     Nalpha   Nbeta   Ndocc  Nsocc
   -------------------------------------------------------
     A        290     290       0       0       0       0
   -------------------------------------------------------
    Total     290     290      54      54      54       0
   -------------------------------------------------------

  ==> Integral Setup <==

  Using integral reordering PK algorithm.
  Sizing the integral batches needed.
  Building batch lookup table.
   Calculation information:
      Number of atoms:                  31
      Number of AO shells:             138
      Number of primitives:            410
      Number of atomic orbitals:       305
      Number of basis functions:       290

      Integral cutoff                 1.00e-12
      Number of threads:                 1

	Batch   1 pq = [       0,    9405] index = [             0,44231715] size =     44231715
	Batch   2 pq = [    9405,   13301] index = [      44231715,88464951] size =     44233236
	Batch   3 pq = [   13301,   16290] index = [      88464951,132690195] size =     44225244
	Batch   4 pq = [   16290,   18810] index = [     132690195,176917455] size =     44227260
	Batch   5 pq = [   18810,   21030] index = [     176917455,221140965] size =     44223510
	Batch   6 pq = [   21030,   23037] index = [     221140965,265363203] size =     44222238
	Batch   7 pq = [   23037,   24883] index = [     265363203,309594286] size =     44231083
	Batch   8 pq = [   24883,   26601] index = [     309594286,353819901] size =     44225615
	Batch   9 pq = [   26601,   28214] index = [     353819901,398029005] size =     44209104
	Batch  10 pq = [   28214,   29740] index = [     398029005,442248670] size =     44219665
	Batch  11 pq = [   29740,   31191] index = [     442248670,486454836] size =     44206166
	Batch  12 pq = [   31191,   32578] index = [     486454836,530679331] size =     44224495
	Batch  13 pq = [   32578,   33908] index = [     530679331,574893186] size =     44213855
	Batch  14 pq = [   33908,   35188] index = [     574893186,619115266] size =     44222080
	Batch  15 pq = [   35188,   36423] index = [     619115266,663335676] size =     44220410
	Batch  16 pq = [   36423,   37617] index = [     663335676,707538153] size =     44202477
	Batch  17 pq = [   37617,   38775] index = [     707538153,751769700] size =     44231547
	Batch  18 pq = [   38775,   39899] index = [     751769700,795985050] size =     44215350
	Batch  19 pq = [   39899,   40992] index = [     795985050,840192528] size =     44207478
	Batch  20 pq = [   40992,   42057] index = [     840192528,884416653] size =     44224125
	Batch  21 pq = [   42057,   42195] index = [     884416653,890230110] size =      5813457
  Task number: 81
  Buffer size: 11059200
  Buffer per thread: 2
  We computed 35894153 shell quartets total.
  Whereas there are 45998436 unique shell quartets.

  ==> DiskJK: Disk-Based J/K Matrices <==

    J tasked:                  Yes
    K tasked:                  Yes
    wK tasked:                  No
    Memory [MiB]:              375
    Schwarz Cutoff:          1E-12

    OpenMP threads:              1

  Minimum eigenvalue in the overlap matrix is 2.8501455228E-04.
  Using Symmetric Orthogonalization.

  SCF Guess: Superposition of Atomic Densities via on-the-fly atomic UHF.

  ==> Iterations <==

                        Total Energy        Delta E     RMS |[F,P]|

   @RHF iter SAD:  -613.23191645505324   -6.13232e+02   0.00000e+00
   @RHF iter   1:  -614.05947854664544   -8.27562e-01   2.38563e-03 DIIS
   @RHF iter   2:  -614.33603701169773   -2.76558e-01   1.00255e-03 DIIS
   @RHF iter   3:  -614.37884228365647   -4.28053e-02   2.39181e-04 DIIS
   @RHF iter   4:  -614.38247982399230   -3.63754e-03   9.68585e-05 DIIS
   @RHF iter   5:  -614.38293992718104   -4.60103e-04   1.72920e-05 DIIS
   @RHF iter   6:  -614.38296094321765   -2.10160e-05   5.66446e-06 DIIS
   @RHF iter   7:  -614.38296324133864   -2.29812e-06   1.65780e-06 DIIS
   @RHF iter   8:  -614.38296351314943   -2.71811e-07   6.24689e-07 DIIS
   @RHF iter   9:  -614.38296355291095   -3.97615e-08   2.48540e-07 DIIS
   @RHF iter  10:  -614.38296355982129   -6.91034e-09   8.56606e-08 DIIS
   @RHF iter  11:  -614.38296356142052   -1.59923e-09   4.03039e-08 DIIS
   @RHF iter  12:  -614.38296356181070   -3.90173e-10   2.08860e-08 DIIS
   @RHF iter  13:  -614.38296356189812   -8.74252e-11   6.77648e-09 DIIS
   @RHF iter  14:  -614.38296356190494   -6.82121e-12   1.97509e-09 DIIS
   @RHF iter  15:  -614.38296356191313   -8.18545e-12   6.58590e-10 DIIS
   @RHF iter  16:  -614.38296356190256    1.05729e-11   2.70807e-10 DIIS
   @RHF iter  17:  -614.38296356190756   -5.00222e-12   1.24868e-10 DIIS
   @RHF iter  18:  -614.38296356190938   -1.81899e-12   5.80632e-11 DIIS
  Energy and wave function converged.

  ==> Post-Iterations <==

    Orbital Energies [Eh]
    ---------------------

    Doubly Occupied:

       1A    -20.588489     2A    -11.301655     3A    -11.242928
       4A    -11.240880     5A    -11.237876     6A    -11.234916
       7A    -11.234164     8A    -11.230638     9A    -11.230013
      10A    -11.226941    11A    -11.224966    12A    -11.224808
      13A    -11.222653    14A    -11.221323    15A    -11.220499
      16A     -1.399684    17A     -1.152376    18A     -1.150838
      19A     -1.040831    20A     -1.039762    21A     -1.013567
      22A     -1.010875    23A     -0.929343    24A     -0.927325
      25A     -0.846290    26A     -0.818989    27A     -0.801547
      28A     -0.793107    29A     -0.732755    30A     -0.688105
      31A     -0.665242    32A     -0.641844    33A     -0.628284
      34A     -0.622913    35A     -0.611300    36A     -0.589292
      37A     -0.583002    38A     -0.579319    39A     -0.575685
      40A     -0.573106    41A     -0.567442    42A     -0.554536
      43A     -0.528804    44A     -0.528541    45A     -0.498073
      46A     -0.486718    47A     -0.484928    48A     -0.478319
      49A     -0.476587    50A     -0.468795    51A     -0.335621
      52A     -0.330319    53A     -0.316170    54A     -0.307721

    Virtual:

      55A      0.125598    56A      0.143045    57A      0.149519
      58A      0.154658    59A      0.173867    60A      0.184841
      61A      0.193520    62A      0.211830    63A      0.217418
      64A      0.218412    65A      0.226705    66A      0.252202
      67A      0.260540    68A      0.261326    69A      0.272328
      70A      0.274547    71A      0.277360    72A      0.290386
      73A      0.294107    74A      0.315721    75A      0.367043
      76A      0.371421    77A      0.375257    78A      0.383780
      79A      0.430592    80A      0.450421    81A      0.459962
      82A      0.471695    83A      0.481431    84A      0.481886
      85A      0.492739    86A      0.510121    87A      0.515541
      88A      0.571274    89A      0.600809    90A      0.607173
      91A      0.628948    92A      0.631608    93A      0.650060
      94A      0.664653    95A      0.678049    96A      0.685774
      97A      0.692941    98A      0.696313    99A      0.703135
     100A      0.717296   101A      0.724804   102A      0.735992
     103A      0.736748   104A      0.741265   105A      0.741716
     106A      0.748312   107A      0.749530   108A      0.758412
     109A      0.764946   110A      0.772444   111A      0.776799
     112A      0.779023   113A      0.788650   114A      0.800625
     115A      0.818275   116A      0.827586   117A      0.845383
     118A      0.851436   119A      0.863102   120A      0.866653
     121A      0.869570   122A      0.877858   123A      0.883230
     124A      0.886366   125A      0.891682   126A      0.892707
     127A      0.902514   128A      0.908159   129A      0.923399
     130A      0.927906   131A      0.932600   132A      0.937151
     133A      0.939434   134A      0.948333   135A      0.954317
     136A      0.968396   137A      1.004035   138A      1.010590
     139A      1.029389   140A      1.044223   141A      1.054295
     142A      1.080144   143A      1.119892   144A      1.130546
     145A      1.141359   146A      1.142835   147A      1.153471
     148A      1.163091   149A      1.172383   150A      1.197864
     151A      1.199669   152A      1.210674   153A      1.225193
     154A      1.238823   155A      1.248665   156A      1.252730
     157A      1.255376   158A      1.268560   159A      1.287816
     160A      1.289017   161A      1.301886   162A      1.307477
     163A      1.314734   164A      1.320838   165A      1.329594
     166A      1.340456   167A      1.343123   168A      1.353663
     169A      1.385583   170A      1.412622   171A      1.456341
     172A      1.489637   173A      1.496750   174A      1.503990
     175A      1.537335   176A      1.552159   177A      1.557363
     178A      1.571122   179A      1.611718   180A      1.616140
     181A      1.629737   182A      1.672917   183A      1.676300
     184A      1.694501   185A      1.700090   186A      1.726832
     187A      1.743019   188A      1.746130   189A      1.751035
     190A      1.768371   191A      1.784526   192A      1.798576
     193A      1.802131   194A      1.805943   195A      1.830934
     196A      1.854136   197A      1.870522   198A      1.884635
     199A      1.891486   200A      1.898273   201A      1.902685
     202A      1.909065   203A      1.913453   204A      1.914948
     205A      1.917790   206A      1.934684   207A      1.937457
     208A      1.945856   209A      1.954733   210A      1.960332
     211A      1.966933   212A      1.972874   213A      1.978639
     214A      1.988478   215A      2.001580   216A      2.018934
     217A      2.023712   218A      2.047156   219A      2.052547
     220A      2.057896   221A      2.061697   222A      2.072307
     223A      2.075643   224A      2.092275   225A      2.121513
     226A      2.124866   227A      2.138304   228A      2.139799
     229A      2.161138   230A      2.176028   231A      2.190689
     232A      2.193016   233A      2.202437   234A      2.214463
     235A      2.227184   236A      2.259105   237A      2.264536
     238A      2.270840   239A      2.272410   240A      2.295776
     241A      2.300507   242A      2.311218   243A      2.319387
     244A      2.337966   245A      2.366685   246A      2.394109
     247A      2.426137   248A      2.440787   249A      2.447796
     250A      2.472083   251A      2.491223   252A      2.498840
     253A      2.520606   254A      2.525237   255A      2.554854
     256A      2.573155   257A      2.602794   258A      2.623368
     259A      2.647371   260A      2.741640   261A      2.744673
     262A      2.765407   263A      2.773731   264A      2.776859
     265A      2.783776   266A      2.805651   267A      2.825042
     268A      2.833990   269A      2.843694   270A      2.862810
     271A      2.882268   272A      2.892742   273A      2.973058
     274A      3.006283   275A      3.013530   276A      3.026948
     277A      3.051767   278A      3.071070   279A      3.112011
     280A      3.185827   281A      3.238682   282A      3.251602
     283A      3.273695   284A      3.330732   285A      3.350107
     286A      3.551582   287A      3.677706   288A      3.932899
     289A      4.007882   290A      4.189261

    Final Occupation by Irrep:
              A
    DOCC [    54 ]

  @RHF Final Energy:  -614.38296356190938

   => Energetics <=

    Nuclear Repulsion Energy =            858.0773962826087882
    One-Electron Energy =               -2535.5993163236912551
    Two-Electron Energy =                1063.1389564791729754
    Total Energy =                       -614.3829635619094915

Computation Completed

Properties will be evaluated at   0.000000,   0.000000,   0.000000 [a0]

Properties computed using the SCF density matrix

  Nuclear Dipole Moment: [e a0]
     X:     5.3481      Y:    -4.0889      Z:    -3.5445

  Electronic Dipole Moment: [e a0]
     X:    -4.9960      Y:     4.0048      Z:     3.8846

  Dipole Moment: [e a0]
     X:     0.3521      Y:    -0.0840      Z:     0.3401     Total:     0.4967

  Dipole Moment: [D]
     X:     0.8949      Y:    -0.2136      Z:     0.8644     Total:     1.2624

*** tstop() called on ds3 at Sun Apr 26 17:53:26 2020
Module time:
	user time   =     328.78 seconds =       5.48 minutes
	system time =     150.97 seconds =       2.52 minutes
	total time  =        746 seconds =      12.43 minutes
Total time:
	user time   =     328.78 seconds =       5.48 minutes
	system time =     150.97 seconds =       2.52 minutes
	total time  =        746 seconds =      12.43 minutes
                                     G D M A

                                 by Anthony Stone

                           version 2.2.06, 22 June 2011

               Distributed Multipoles from Gaussian wavefunctions

Starting at 17:53:26 on 26 Apr 2020

Using SCF density matrix from file ./SSI/SSI-217PHE-234TYR-1-dimer.test.1135.fchk

                         Distributed Multipole Analysis

Standard DMA

Positions and radii in angstrom
Multipole moments in atomic units, ea_0^k for rank k

C          x = -0.690287  y = -5.354586  z = -2.104975 angstrom
           Maximum rank =  0   Radius =  0.650 angstrom
                   Q00  =  -0.212141

C          x = -0.709287  y = -1.456586  z = -0.333975 angstrom
           Maximum rank =  0   Radius =  0.650 angstrom
                   Q00  =  -0.065980

C          x =  0.480713  y = -2.126586  z = -0.557975 angstrom
           Maximum rank =  0   Radius =  0.650 angstrom
                   Q00  =  -0.035232

C          x = -1.911287  y = -2.072586  z = -0.650975 angstrom
           Maximum rank =  0   Radius =  0.650 angstrom
                   Q00  =  -0.077132

C          x =  0.475713  y = -3.387586  z = -1.098975 angstrom
           Maximum rank =  0   Radius =  0.650 angstrom
                   Q00  =  -0.006162

C          x = -1.913287  y = -3.331586  z = -1.218975 angstrom
           Maximum rank =  0   Radius =  0.650 angstrom
                   Q00  =  -0.091638

C          x = -0.719287  y = -4.013586  z = -1.421975 angstrom
           Maximum rank =  0   Radius =  0.650 angstrom
                   Q00  =  -0.091427

H          x = -0.698287  y = -0.460586  z =  0.084025 angstrom
           Maximum rank =  0   Radius =  0.325 angstrom
                   Q00  =   0.051408

H          x =  1.419713  y = -1.648586  z = -0.314975 angstrom
           Maximum rank =  0   Radius =  0.325 angstrom
                   Q00  =   0.056278

H          x = -2.843287  y = -1.554586  z = -0.476975 angstrom
           Maximum rank =  0   Radius =  0.325 angstrom
                   Q00  =   0.059474

H          x =  1.415713  y = -3.882586  z = -1.283975 angstrom
           Maximum rank =  0   Radius =  0.325 angstrom
                   Q00  =   0.052112

H          x = -2.847287  y = -3.775586  z = -1.514975 angstrom
           Maximum rank =  0   Radius =  0.325 angstrom
                   Q00  =   0.051148

H          x =  0.340713  y = -5.707586  z = -2.140975 angstrom
           Maximum rank =  0   Radius =  0.325 angstrom
                   Q00  =   0.093574

H          x = -1.013287  y = -5.217586  z = -3.133975 angstrom
           Maximum rank =  0   Radius =  0.325 angstrom
                   Q00  =   0.102062

H          x = -1.294467  y = -6.149626  z = -1.643595 angstrom
           Maximum rank =  0   Radius =  0.325 angstrom
                   Q00  =   0.101062

C          x =  3.223713  y =  3.905414  z =  0.328025 angstrom
           Maximum rank =  0   Radius =  0.650 angstrom
                   Q00  =  -0.199010

C          x = -0.631287  y =  2.098414  z =  1.177025 angstrom
           Maximum rank =  0   Radius =  0.650 angstrom
                   Q00  =   0.302926

C          x =  0.518713  y =  1.682414  z =  1.884025 angstrom
           Maximum rank =  0   Radius =  0.650 angstrom
                   Q00  =  -0.185966

C          x = -0.501287  y =  3.086414  z =  0.228025 angstrom
           Maximum rank =  0   Radius =  0.650 angstrom
                   Q00  =  -0.089169

C          x =  1.776713  y =  2.261414  z =  1.604025 angstrom
           Maximum rank =  0   Radius =  0.650 angstrom
                   Q00  =  -0.056891

C          x =  0.747713  y =  3.677414  z = -0.010975 angstrom
           Maximum rank =  0   Radius =  0.650 angstrom
                   Q00  =   0.039453

C          x =  1.893713  y =  3.269414  z =  0.655025 angstrom
           Maximum rank =  0   Radius =  0.650 angstrom
                   Q00  =  -0.123947

O          x = -1.891287  y =  1.597414  z =  1.381025 angstrom
           Maximum rank =  0   Radius =  0.650 angstrom
                   Q00  =  -0.670599

H          x =  0.442713  y =  0.909414  z =  2.633025 angstrom
           Maximum rank =  0   Radius =  0.325 angstrom
                   Q00  =   0.078746

H          x = -1.958287  y =  1.082414  z =  2.192025 angstrom
           Maximum rank =  0   Radius =  0.325 angstrom
                   Q00  =   0.407782

H          x = -1.369287  y =  3.409414  z = -0.326975 angstrom
           Maximum rank =  0   Radius =  0.325 angstrom
                   Q00  =   0.079527

H          x =  2.654713  y =  1.920414  z =  2.137025 angstrom
           Maximum rank =  0   Radius =  0.325 angstrom
                   Q00  =   0.071746

H          x =  0.820713  y =  4.459414  z = -0.755975 angstrom
           Maximum rank =  0   Radius =  0.325 angstrom
                   Q00  =   0.060380

H          x =  3.931713  y =  3.762414  z =  1.146025 angstrom
           Maximum rank =  0   Radius =  0.325 angstrom
                   Q00  =   0.098181

H          x =  3.061713  y =  4.979414  z =  0.215025 angstrom
           Maximum rank =  0   Radius =  0.325 angstrom
                   Q00  =   0.097169

H          x =  3.650983  y =  3.504044  z = -0.602755 angstrom
           Maximum rank =  0   Radius =  0.325 angstrom
                   Q00  =   0.102264

Total multipoles referred to origin at
           x =   0.000000,  y =    0.000000,  z =    0.000000 angstrom
                   Q00  =  -0.000000

Finished at 17:53:26 on 26 Apr 2020

  DMA results are available in the Python driver through the
	  variable('DMA DISTRIBUTED MULTIPOLES')
  and
	  variable('DMA TOTAL MULTIPOLES')
  commands.

    Psi4 stopped on: Sunday, 26 April 2020 05:53PM
    Psi4 wall time for execution: 0:12:25.56

*** Psi4 exiting successfully. Buy a developer a beer!
