                               Psi4 1.3.2 release

  ==> Input File <==

--------------------------------------------------------------------------
import numpy as np
set {scf_type pk
basis cc-pvdz
d_convergence 10
gdma_switch   0
gdma_limit    0
gdma_origin   [ 0.0,  0.0,  0.0 ]
}
molecule test {
    units Angstrom
    -1 1
    --
    -1 1
    C               -0.559743079482329     2.334935085072855    -3.382176932907269
    C                0.743256920517671     0.146935085072855    -0.587176932907269
    C                1.419256920517671     1.068935085072855     0.198823067092731
    C                0.101256920517671     0.558935085072855    -1.746176932907269
    C                0.138256920517671     1.891935085072855    -2.134176932907268
    C                1.454256920517671     2.404935085072855    -0.178176932907269
    C                0.812256920517671     2.814935085072855    -1.340176932907269
    H                0.728256920517671    -0.895064914927145    -0.309176932907269
    H                1.918256920517671     0.744935085072856     1.101823067092731
    H               -0.432743079482329    -0.162064914927145    -2.345176932907269
    H                1.979256920517671     3.125935085072856     0.434823067092731
    H               -0.796743079482329     3.397935085072856    -3.300176932907268
    H               -1.506743079482329     1.798935085072855    -3.437176932907268
    H                0.843256920517671     3.856935085072856    -1.627176932907269
    H                0.002656920517671     2.163485085072856    -4.311856932907269
    C               -1.677743079482329    -2.944064914927145     0.970823067092731
    C               -0.845743079482329    -2.495064914927145     2.167823067092732
    O                0.127256920517671    -1.736064914927145     1.960823067092731
    O               -1.136743079482329    -2.907064914927144     3.306823067092731
    H               -1.126743079482329    -3.737064914927145     0.469823067092731
    H               -1.799743079482329    -2.120064914927145     0.264823067092731
    H               -2.663733079482329    -3.334294914927144     1.263313067092731

}
e, wfn = energy('scf', return_wfn=True)
gdma(wfn)
dmavals = variable('DMA DISTRIBUTED MULTIPOLES')
charges = np.array(dmavals)
print(charges)
np.save('SSI-036PHE-113ASP-1-dimer.npy', np.array(charges))--------------------------------------------------------------------------

*** tstart() called on ds3
*** at Sun Apr 26 21:31:50 2020

   => Loading Basis Set <=

    Name: CC-PVDZ
    Role: ORBITAL
    Keyword: BASIS
    atoms 1-7, 16-17  entry C          line   138 file /theoryfs2/ds/metcalf/miniconda2/envs/tf2gpu/share/psi4/basis/cc-pvdz.gbs
    atoms 8-15, 20-22 entry H          line    22 file /theoryfs2/ds/metcalf/miniconda2/envs/tf2gpu/share/psi4/basis/cc-pvdz.gbs
    atoms 18-19       entry O          line   198 file /theoryfs2/ds/metcalf/miniconda2/envs/tf2gpu/share/psi4/basis/cc-pvdz.gbs

         ---------------------------------------------------------
                                   SCF
               by Justin Turney, Rob Parrish, Andy Simmonett
                          and Daniel G. A. Smith
                              RHF Reference
                        1 Threads,    500 MiB Core
         ---------------------------------------------------------

  ==> Geometry <==

    Molecular point group: c1
    Full point group: C1

    Geometry (in Angstrom), charge = -1, multiplicity = 1:

       Center              X                  Y                   Z               Mass
    ------------   -----------------  -----------------  -----------------  -----------------
         C           -0.559743079482     2.334935085073    -3.382176932907    12.000000000000
         C            0.743256920518     0.146935085073    -0.587176932907    12.000000000000
         C            1.419256920518     1.068935085073     0.198823067093    12.000000000000
         C            0.101256920518     0.558935085073    -1.746176932907    12.000000000000
         C            0.138256920518     1.891935085073    -2.134176932907    12.000000000000
         C            1.454256920518     2.404935085073    -0.178176932907    12.000000000000
         C            0.812256920518     2.814935085073    -1.340176932907    12.000000000000
         H            0.728256920518    -0.895064914927    -0.309176932907     1.007825032230
         H            1.918256920518     0.744935085073     1.101823067093     1.007825032230
         H           -0.432743079482    -0.162064914927    -2.345176932907     1.007825032230
         H            1.979256920518     3.125935085073     0.434823067093     1.007825032230
         H           -0.796743079482     3.397935085073    -3.300176932907     1.007825032230
         H           -1.506743079482     1.798935085073    -3.437176932907     1.007825032230
         H            0.843256920518     3.856935085073    -1.627176932907     1.007825032230
         H            0.002656920518     2.163485085073    -4.311856932907     1.007825032230
         C           -1.677743079482    -2.944064914927     0.970823067093    12.000000000000
         C           -0.845743079482    -2.495064914927     2.167823067093    12.000000000000
         O            0.127256920518    -1.736064914927     1.960823067093    15.994914619570
         O           -1.136743079482    -2.907064914927     3.306823067093    15.994914619570
         H           -1.126743079482    -3.737064914927     0.469823067093     1.007825032230
         H           -1.799743079482    -2.120064914927     0.264823067093     1.007825032230
         H           -2.663733079482    -3.334294914927     1.263313067093     1.007825032230

  Running in c1 symmetry.

  Rotational constants: A =      0.07510  B =      0.01298  C =      0.01148 [cm^-1]
  Rotational constants: A =   2251.53503  B =    389.19421  C =    344.04128 [MHz]
  Nuclear repulsion =  532.432276517031255

  Charge       = -1
  Multiplicity = 1
  Electrons    = 82
  Nalpha       = 41
  Nbeta        = 41

  ==> Algorithm <==

  SCF Algorithm Type is PK.
  DIIS enabled.
  MOM disabled.
  Fractional occupation disabled.
  Guess Type is SAD.
  Energy threshold   = 1.00e-06
  Density threshold  = 1.00e-10
  Integral threshold = 0.00e+00

  ==> Primary Basis <==

  Basis Set: CC-PVDZ
    Blend: CC-PVDZ
    Number of shells: 99
    Number of basis function: 209
    Number of Cartesian functions: 220
    Spherical Harmonics?: true
    Max angular momentum: 2

  ==> Pre-Iterations <==

   -------------------------------------------------------
    Irrep   Nso     Nmo     Nalpha   Nbeta   Ndocc  Nsocc
   -------------------------------------------------------
     A        209     209       0       0       0       0
   -------------------------------------------------------
    Total     209     209      41      41      41       0
   -------------------------------------------------------

  ==> Integral Setup <==

  Using integral reordering PK algorithm.
  Sizing the integral batches needed.
  Building batch lookup table.
   Calculation information:
      Number of atoms:                  22
      Number of AO shells:              99
      Number of primitives:            297
      Number of atomic orbitals:       220
      Number of basis functions:       209

      Integral cutoff                 1.00e-12
      Number of threads:                 1

	Batch   1 pq = [       0,    9405] index = [             0,44231715] size =     44231715
	Batch   2 pq = [    9405,   13301] index = [      44231715,88464951] size =     44233236
	Batch   3 pq = [   13301,   16290] index = [      88464951,132690195] size =     44225244
	Batch   4 pq = [   16290,   18810] index = [     132690195,176917455] size =     44227260
	Batch   5 pq = [   18810,   21030] index = [     176917455,221140965] size =     44223510
	Batch   6 pq = [   21030,   21945] index = [     221140965,240802485] size =     19661520
  Task number: 22
  Buffer size: 11059200
  Buffer per thread: 2
  We computed 9486954 shell quartets total.
  Whereas there are 12253725 unique shell quartets.

  ==> DiskJK: Disk-Based J/K Matrices <==

    J tasked:                  Yes
    K tasked:                  Yes
    wK tasked:                  No
    Memory [MiB]:              375
    Schwarz Cutoff:          1E-12

    OpenMP threads:              1

  Minimum eigenvalue in the overlap matrix is 3.0281981431E-04.
  Using Symmetric Orthogonalization.

  SCF Guess: Superposition of Atomic Densities via on-the-fly atomic UHF.

  ==> Iterations <==

                        Total Energy        Delta E     RMS |[F,P]|

   @RHF iter SAD:  -495.42742433239175   -4.95427e+02   0.00000e+00
   @RHF iter   1:  -496.67090092394619   -1.24348e+00   3.76060e-03 DIIS
   @RHF iter   2:  -496.93395681582155   -2.63056e-01   2.03820e-03 DIIS
   @RHF iter   3:  -497.00287384105343   -6.89170e-02   3.42624e-04 DIIS
   @RHF iter   4:  -497.00632826221249   -3.45442e-03   1.22563e-04 DIIS
   @RHF iter   5:  -497.00676589003876   -4.37628e-04   1.90659e-05 DIIS
   @RHF iter   6:  -497.00678040667839   -1.45166e-05   6.16953e-06 DIIS
   @RHF iter   7:  -497.00678195969471   -1.55302e-06   2.50740e-06 DIIS
   @RHF iter   8:  -497.00678225465549   -2.94961e-07   1.01069e-06 DIIS
   @RHF iter   9:  -497.00678233852119   -8.38657e-08   5.24569e-07 DIIS
   @RHF iter  10:  -497.00678236353144   -2.50103e-08   1.72134e-07 DIIS
   @RHF iter  11:  -497.00678236743130   -3.89986e-09   6.20234e-08 DIIS
   @RHF iter  12:  -497.00678236778867   -3.57375e-10   3.33389e-08 DIIS
   @RHF iter  13:  -497.00678236785956   -7.08837e-11   1.11258e-08 DIIS
   @RHF iter  14:  -497.00678236787064   -1.10845e-11   4.82737e-09 DIIS
   @RHF iter  15:  -497.00678236787024    3.97904e-13   1.65290e-09 DIIS
   @RHF iter  16:  -497.00678236787297   -2.72848e-12   5.83383e-10 DIIS
   @RHF iter  17:  -497.00678236787348   -5.11591e-13   2.50705e-10 DIIS
   @RHF iter  18:  -497.00678236787638   -2.89901e-12   8.81666e-11 DIIS
  Energy and wave function converged.

  ==> Post-Iterations <==

    Orbital Energies [Eh]
    ---------------------

    Doubly Occupied:

       1A    -20.261561     2A    -20.258680     3A    -11.145358
       4A    -11.139541     5A    -11.132354     6A    -11.130074
       7A    -11.122659     8A    -11.117823     9A    -11.117817
      10A    -11.115421    11A    -11.053938    12A     -1.152564
      13A     -1.051436    14A     -1.036936    15A     -0.946506
      16A     -0.907300    17A     -0.835930    18A     -0.799593
      19A     -0.719892    20A     -0.692196    21A     -0.586152
      22A     -0.531205    23A     -0.524403    24A     -0.502547
      25A     -0.492949    26A     -0.477182    27A     -0.460042
      28A     -0.444666    29A     -0.414453    30A     -0.410141
      31A     -0.406124    32A     -0.384885    33A     -0.380279
      34A     -0.375624    35A     -0.344622    36A     -0.306944
      37A     -0.228426    38A     -0.217489    39A     -0.185529
      40A     -0.171304    41A     -0.162428

    Virtual:

      42A      0.240158    43A      0.246089    44A      0.269959
      45A      0.295815    46A      0.313161    47A      0.333246
      48A      0.346954    49A      0.361125    50A      0.368436
      51A      0.381248    52A      0.398532    53A      0.421780
      54A      0.433570    55A      0.466566    56A      0.474582
      57A      0.486291    58A      0.561567    59A      0.572885
      60A      0.577217    61A      0.580237    62A      0.601948
      63A      0.659302    64A      0.694081    65A      0.696951
      66A      0.716790    67A      0.724787    68A      0.781230
      69A      0.789810    70A      0.802780    71A      0.817203
      72A      0.820696    73A      0.836895    74A      0.845982
      75A      0.853293    76A      0.853620    77A      0.861715
      78A      0.880294    79A      0.889750    80A      0.894620
      81A      0.933922    82A      0.945787    83A      0.952792
      84A      0.958701    85A      0.967489    86A      0.971031
      87A      0.979422    88A      0.999428    89A      1.008591
      90A      1.015753    91A      1.020520    92A      1.029967
      93A      1.040401    94A      1.045097    95A      1.070266
      96A      1.093016    97A      1.098995    98A      1.134230
      99A      1.145733   100A      1.153179   101A      1.229224
     102A      1.231249   103A      1.246932   104A      1.257186
     105A      1.262618   106A      1.293633   107A      1.333754
     108A      1.346109   109A      1.347685   110A      1.351769
     111A      1.354276   112A      1.361346   113A      1.394733
     114A      1.413059   115A      1.426267   116A      1.433693
     117A      1.448278   118A      1.510039   119A      1.531221
     120A      1.569735   121A      1.579808   122A      1.609534
     123A      1.619146   124A      1.649588   125A      1.654031
     126A      1.659823   127A      1.679415   128A      1.741570
     129A      1.751410   130A      1.774371   131A      1.787423
     132A      1.835400   133A      1.842340   134A      1.850766
     135A      1.855665   136A      1.872084   137A      1.893079
     138A      1.912169   139A      1.964445   140A      1.988389
     141A      2.007011   142A      2.009743   143A      2.015747
     144A      2.031876   145A      2.048408   146A      2.052749
     147A      2.067333   148A      2.076226   149A      2.079087
     150A      2.086353   151A      2.095744   152A      2.106856
     153A      2.137414   154A      2.146849   155A      2.163885
     156A      2.181951   157A      2.204784   158A      2.208813
     159A      2.242197   160A      2.249102   161A      2.264405
     162A      2.279318   163A      2.290018   164A      2.310013
     165A      2.347683   166A      2.356179   167A      2.387966
     168A      2.395512   169A      2.398744   170A      2.414167
     171A      2.419650   172A      2.437021   173A      2.450386
     174A      2.562646   175A      2.570411   176A      2.576677
     177A      2.607509   178A      2.642444   179A      2.668525
     180A      2.706510   181A      2.721285   182A      2.785317
     183A      2.838040   184A      2.855323   185A      2.874333
     186A      2.896283   187A      2.917097   188A      2.930486
     189A      2.943695   190A      2.965765   191A      2.979382
     192A      2.988443   193A      3.094879   194A      3.123054
     195A      3.132216   196A      3.241964   197A      3.266423
     198A      3.280307   199A      3.293442   200A      3.317743
     201A      3.361818   202A      3.414966   203A      3.639831
     204A      3.774929   205A      3.830152   206A      4.063113
     207A      4.091839   208A      4.100015   209A      4.201733

    Final Occupation by Irrep:
              A
    DOCC [    41 ]

  @RHF Final Energy:  -497.00678236787638

   => Energetics <=

    Nuclear Repulsion Energy =            532.4322765170312550
    One-Electron Energy =               -1745.3881660434012701
    Two-Electron Energy =                 715.9491071584934616
    Total Energy =                       -497.0067823678764398

Computation Completed

Properties will be evaluated at   0.000000,   0.000000,   0.000000 [a0]

Properties computed using the SCF density matrix

  Nuclear Dipole Moment: [e a0]
     X:    -2.6811      Y:     4.5147      Z:   -11.0332

  Electronic Dipole Moment: [e a0]
     X:     3.4005      Y:    -0.9335      Z:     6.4534

  Dipole Moment: [e a0]
     X:     0.7194      Y:     3.5811      Z:    -4.5798     Total:     5.8580

  Dipole Moment: [D]
     X:     1.8286      Y:     9.1023      Z:   -11.6407     Total:    14.8896

*** tstop() called on ds3 at Sun Apr 26 21:33:43 2020
Module time:
	user time   =      78.34 seconds =       1.31 minutes
	system time =      36.71 seconds =       0.61 minutes
	total time  =        113 seconds =       1.88 minutes
Total time:
	user time   =      78.34 seconds =       1.31 minutes
	system time =      36.71 seconds =       0.61 minutes
	total time  =        113 seconds =       1.88 minutes
                                     G D M A

                                 by Anthony Stone

                           version 2.2.06, 22 June 2011

               Distributed Multipoles from Gaussian wavefunctions

Starting at 21:33:43 on 26 Apr 2020

Using SCF density matrix from file ./SSI/SSI-036PHE-113ASP-1-dimer.test.21707.fchk

                         Distributed Multipole Analysis

Standard DMA

Positions and radii in angstrom
Multipole moments in atomic units, ea_0^k for rank k

C          x = -0.559743  y =  2.334935  z = -3.382177 angstrom
           Maximum rank =  0   Radius =  0.650 angstrom
                   Q00  =  -0.197476

C          x =  0.743257  y =  0.146935  z = -0.587177 angstrom
           Maximum rank =  0   Radius =  0.650 angstrom
                   Q00  =   0.008226

C          x =  1.419257  y =  1.068935  z =  0.198823 angstrom
           Maximum rank =  0   Radius =  0.650 angstrom
                   Q00  =  -0.071349

C          x =  0.101257  y =  0.558935  z = -1.746177 angstrom
           Maximum rank =  0   Radius =  0.650 angstrom
                   Q00  =  -0.024559

C          x =  0.138257  y =  1.891935  z = -2.134177 angstrom
           Maximum rank =  0   Radius =  0.650 angstrom
                   Q00  =  -0.105293

C          x =  1.454257  y =  2.404935  z = -0.178177 angstrom
           Maximum rank =  0   Radius =  0.650 angstrom
                   Q00  =  -0.088975

C          x =  0.812257  y =  2.814935  z = -1.340177 angstrom
           Maximum rank =  0   Radius =  0.650 angstrom
                   Q00  =  -0.057779

H          x =  0.728257  y = -0.895065  z = -0.309177 angstrom
           Maximum rank =  0   Radius =  0.325 angstrom
                   Q00  =   0.072800

H          x =  1.918257  y =  0.744935  z =  1.101823 angstrom
           Maximum rank =  0   Radius =  0.325 angstrom
                   Q00  =   0.075257

H          x = -0.432743  y = -0.162065  z = -2.345177 angstrom
           Maximum rank =  0   Radius =  0.325 angstrom
                   Q00  =   0.036507

H          x =  1.979257  y =  3.125935  z =  0.434823 angstrom
           Maximum rank =  0   Radius =  0.325 angstrom
                   Q00  =   0.042398

H          x = -0.796743  y =  3.397935  z = -3.300177 angstrom
           Maximum rank =  0   Radius =  0.325 angstrom
                   Q00  =   0.083183

H          x = -1.506743  y =  1.798935  z = -3.437177 angstrom
           Maximum rank =  0   Radius =  0.325 angstrom
                   Q00  =   0.092010

H          x =  0.843257  y =  3.856935  z = -1.627177 angstrom
           Maximum rank =  0   Radius =  0.325 angstrom
                   Q00  =   0.029894

H          x =  0.002657  y =  2.163485  z = -4.311857 angstrom
           Maximum rank =  0   Radius =  0.325 angstrom
                   Q00  =   0.087607

C          x = -1.677743  y = -2.944065  z =  0.970823 angstrom
           Maximum rank =  0   Radius =  0.650 angstrom
                   Q00  =  -0.290522

C          x = -0.845743  y = -2.495065  z =  2.167823 angstrom
           Maximum rank =  0   Radius =  0.650 angstrom
                   Q00  =   0.977852

O          x =  0.127257  y = -1.736065  z =  1.960823 angstrom
           Maximum rank =  0   Radius =  0.650 angstrom
                   Q00  =  -0.941978

O          x = -1.136743  y = -2.907065  z =  3.306823 angstrom
           Maximum rank =  0   Radius =  0.650 angstrom
                   Q00  =  -0.919893

H          x = -1.126743  y = -3.737065  z =  0.469823 angstrom
           Maximum rank =  0   Radius =  0.325 angstrom
                   Q00  =   0.076396

H          x = -1.799743  y = -2.120065  z =  0.264823 angstrom
           Maximum rank =  0   Radius =  0.325 angstrom
                   Q00  =   0.060048

H          x = -2.663733  y = -3.334295  z =  1.263313 angstrom
           Maximum rank =  0   Radius =  0.325 angstrom
                   Q00  =   0.055647

Total multipoles referred to origin at
           x =   0.000000,  y =    0.000000,  z =    0.000000 angstrom
                   Q00  =  -1.000000

Finished at 21:33:43 on 26 Apr 2020

  DMA results are available in the Python driver through the
	  variable('DMA DISTRIBUTED MULTIPOLES')
  and
	  variable('DMA TOTAL MULTIPOLES')
  commands.

    Psi4 stopped on: Sunday, 26 April 2020 09:33PM
    Psi4 wall time for execution: 0:01:53.06

*** Psi4 exiting successfully. Buy a developer a beer!
