                               Psi4 1.3.2 release

  ==> Input File <==

--------------------------------------------------------------------------
import numpy as np
set {scf_type pk
basis cc-pvdz
d_convergence 10
gdma_switch   0
gdma_limit    0
gdma_origin   [ 0.0,  0.0,  0.0 ]
}
molecule test {
    units Angstrom
    0 1
    --
    0 1
    C                0.699864828807952     0.845377946233247    -3.611373244392941
    C               -1.311135171192048     0.932377946233247    -2.085373244392942
    C               -0.492135171192048     1.570377946233247    -3.018373244392942
    C               -2.416135171192048     1.576377946233247    -1.475373244392941
    C               -2.713135171192048     2.890377946233246    -1.802373244392942
    C               -0.796135171192048     2.882377946233247    -3.360373244392941
    C               -1.913135171192048     3.535377946233247    -2.737373244392942
    H               -1.069135171192048    -0.089622053766753    -1.835373244392942
    H               -3.032135171192048     1.062377946233247    -0.752373244392942
    H                1.293864828807952     0.470377946233247    -2.776373244392942
    H                1.286864828807952     1.581377946233247    -4.161373244392942
    H               -3.548135171192048     3.403377946233246    -1.343373244392942
    H               -0.184135171192048     3.394377946233247    -4.094373244392941
    H               -2.175135171192048     4.534377946233247    -2.968373244392942
    H                0.434224828807952     0.024177946233247    -4.293323244392941
    C               -1.662135171192048    -2.896622053766754     2.135626755607059
    C                0.435864828807952    -1.417622053766753     1.700626755607058
    C               -0.196135171192048    -2.592622053766753     2.205626755607058
    C                1.798864828807952    -1.481622053766753     2.076626755607058
    C                0.760864828807952    -3.307622053766753     2.836626755607058
    C               -0.016135171192048    -0.300622053766753     0.970626755607058
    C                0.890864828807952     0.709377946233247     0.642626755607058
    C                2.228864828807952     0.608377946233247     1.030626755607059
    C                2.685864828807953    -0.486622053766753     1.747626755607058
    N                1.979864828807952    -2.652622053766753     2.770626755607058
    H               -1.047135171192048    -0.197622053766753     0.655626755607058
    H                0.535864828807952     1.566377946233247     0.085626755607058
    H                2.917864828807952     1.393377946233247     0.768626755607058
    H               -1.796135171192048    -3.940622053766753     2.408626755607058
    H               -1.971135171192048    -2.761622053766753     1.092626755607058
    H                0.485864828807952    -4.246622053766752     3.299626755607058
    H                2.859864828807952    -2.967622053766753     3.162626755607059
    H                3.708864828807952    -0.602622053766753     2.062626755607059
    H               -2.214935171192048    -2.286192053766753     2.864866755607058

}
e, wfn = energy('scf', return_wfn=True)
gdma(wfn)
dmavals = variable('DMA DISTRIBUTED MULTIPOLES')
charges = np.array(dmavals)
print(charges)
np.save('SSI-078PHE-104TRP-1-dimer.npy', np.array(charges))--------------------------------------------------------------------------

*** tstart() called on ds3
*** at Mon Apr 27 17:19:25 2020

   => Loading Basis Set <=

    Name: CC-PVDZ
    Role: ORBITAL
    Keyword: BASIS
    atoms 1-7, 16-24  entry C          line   138 file /theoryfs2/ds/metcalf/miniconda2/envs/tf2gpu/share/psi4/basis/cc-pvdz.gbs
    atoms 8-15, 26-34 entry H          line    22 file /theoryfs2/ds/metcalf/miniconda2/envs/tf2gpu/share/psi4/basis/cc-pvdz.gbs
    atoms 25          entry N          line   168 file /theoryfs2/ds/metcalf/miniconda2/envs/tf2gpu/share/psi4/basis/cc-pvdz.gbs

         ---------------------------------------------------------
                                   SCF
               by Justin Turney, Rob Parrish, Andy Simmonett
                          and Daniel G. A. Smith
                              RHF Reference
                        1 Threads,    500 MiB Core
         ---------------------------------------------------------

  ==> Geometry <==

    Molecular point group: c1
    Full point group: C1

    Geometry (in Angstrom), charge = 0, multiplicity = 1:

       Center              X                  Y                   Z               Mass
    ------------   -----------------  -----------------  -----------------  -----------------
         C            0.699864828808     0.845377946233    -3.611373244393    12.000000000000
         C           -1.311135171192     0.932377946233    -2.085373244393    12.000000000000
         C           -0.492135171192     1.570377946233    -3.018373244393    12.000000000000
         C           -2.416135171192     1.576377946233    -1.475373244393    12.000000000000
         C           -2.713135171192     2.890377946233    -1.802373244393    12.000000000000
         C           -0.796135171192     2.882377946233    -3.360373244393    12.000000000000
         C           -1.913135171192     3.535377946233    -2.737373244393    12.000000000000
         H           -1.069135171192    -0.089622053767    -1.835373244393     1.007825032230
         H           -3.032135171192     1.062377946233    -0.752373244393     1.007825032230
         H            1.293864828808     0.470377946233    -2.776373244393     1.007825032230
         H            1.286864828808     1.581377946233    -4.161373244393     1.007825032230
         H           -3.548135171192     3.403377946233    -1.343373244393     1.007825032230
         H           -0.184135171192     3.394377946233    -4.094373244393     1.007825032230
         H           -2.175135171192     4.534377946233    -2.968373244393     1.007825032230
         H            0.434224828808     0.024177946233    -4.293323244393     1.007825032230
         C           -1.662135171192    -2.896622053767     2.135626755607    12.000000000000
         C            0.435864828808    -1.417622053767     1.700626755607    12.000000000000
         C           -0.196135171192    -2.592622053767     2.205626755607    12.000000000000
         C            1.798864828808    -1.481622053767     2.076626755607    12.000000000000
         C            0.760864828808    -3.307622053767     2.836626755607    12.000000000000
         C           -0.016135171192    -0.300622053767     0.970626755607    12.000000000000
         C            0.890864828808     0.709377946233     0.642626755607    12.000000000000
         C            2.228864828808     0.608377946233     1.030626755607    12.000000000000
         C            2.685864828808    -0.486622053767     1.747626755607    12.000000000000
         N            1.979864828808    -2.652622053767     2.770626755607    14.003074004430
         H           -1.047135171192    -0.197622053767     0.655626755607     1.007825032230
         H            0.535864828808     1.566377946233     0.085626755607     1.007825032230
         H            2.917864828808     1.393377946233     0.768626755607     1.007825032230
         H           -1.796135171192    -3.940622053767     2.408626755607     1.007825032230
         H           -1.971135171192    -2.761622053767     1.092626755607     1.007825032230
         H            0.485864828808    -4.246622053767     3.299626755607     1.007825032230
         H            2.859864828808    -2.967622053767     3.162626755607     1.007825032230
         H            3.708864828808    -0.602622053767     2.062626755607     1.007825032230
         H           -2.214935171192    -2.286192053767     2.864866755607     1.007825032230

  Running in c1 symmetry.

  Rotational constants: A =      0.02947  B =      0.00705  C =      0.00632 [cm^-1]
  Rotational constants: A =    883.47178  B =    211.34377  C =    189.49836 [MHz]
  Nuclear repulsion = 1059.800614456236644

  Charge       = 0
  Multiplicity = 1
  Electrons    = 120
  Nalpha       = 60
  Nbeta        = 60

  ==> Algorithm <==

  SCF Algorithm Type is PK.
  DIIS enabled.
  MOM disabled.
  Fractional occupation disabled.
  Guess Type is SAD.
  Energy threshold   = 1.00e-06
  Density threshold  = 1.00e-10
  Integral threshold = 0.00e+00

  ==> Primary Basis <==

  Basis Set: CC-PVDZ
    Blend: CC-PVDZ
    Number of shells: 153
    Number of basis function: 323
    Number of Cartesian functions: 340
    Spherical Harmonics?: true
    Max angular momentum: 2

  ==> Pre-Iterations <==

   -------------------------------------------------------
    Irrep   Nso     Nmo     Nalpha   Nbeta   Ndocc  Nsocc
   -------------------------------------------------------
     A        323     323       0       0       0       0
   -------------------------------------------------------
    Total     323     323      60      60      60       0
   -------------------------------------------------------

  ==> Integral Setup <==

  Using integral reordering PK algorithm.
  Sizing the integral batches needed.
  Building batch lookup table.
   Calculation information:
      Number of atoms:                  34
      Number of AO shells:             153
      Number of primitives:            459
      Number of atomic orbitals:       340
      Number of basis functions:       323

      Integral cutoff                 1.00e-12
      Number of threads:                 1

	Batch   1 pq = [       0,    9405] index = [             0,44231715] size =     44231715
	Batch   2 pq = [    9405,   13301] index = [      44231715,88464951] size =     44233236
	Batch   3 pq = [   13301,   16290] index = [      88464951,132690195] size =     44225244
	Batch   4 pq = [   16290,   18810] index = [     132690195,176917455] size =     44227260
	Batch   5 pq = [   18810,   21030] index = [     176917455,221140965] size =     44223510
	Batch   6 pq = [   21030,   23037] index = [     221140965,265363203] size =     44222238
	Batch   7 pq = [   23037,   24883] index = [     265363203,309594286] size =     44231083
	Batch   8 pq = [   24883,   26601] index = [     309594286,353819901] size =     44225615
	Batch   9 pq = [   26601,   28214] index = [     353819901,398029005] size =     44209104
	Batch  10 pq = [   28214,   29740] index = [     398029005,442248670] size =     44219665
	Batch  11 pq = [   29740,   31191] index = [     442248670,486454836] size =     44206166
	Batch  12 pq = [   31191,   32578] index = [     486454836,530679331] size =     44224495
	Batch  13 pq = [   32578,   33908] index = [     530679331,574893186] size =     44213855
	Batch  14 pq = [   33908,   35188] index = [     574893186,619115266] size =     44222080
	Batch  15 pq = [   35188,   36423] index = [     619115266,663335676] size =     44220410
	Batch  16 pq = [   36423,   37617] index = [     663335676,707538153] size =     44202477
	Batch  17 pq = [   37617,   38775] index = [     707538153,751769700] size =     44231547
	Batch  18 pq = [   38775,   39899] index = [     751769700,795985050] size =     44215350
	Batch  19 pq = [   39899,   40992] index = [     795985050,840192528] size =     44207478
	Batch  20 pq = [   40992,   42057] index = [     840192528,884416653] size =     44224125
	Batch  21 pq = [   42057,   43095] index = [     884416653,928611060] size =     44194407
	Batch  22 pq = [   43095,   44109] index = [     928611060,972823995] size =     44212935
	Batch  23 pq = [   44109,   45100] index = [     972823995,1017027550] size =     44203555
	Batch  24 pq = [   45100,   46070] index = [    1017027550,1061245485] size =     44217935
	Batch  25 pq = [   46070,   47020] index = [    1061245485,1105463710] size =     44218225
	Batch  26 pq = [   47020,   47951] index = [    1105463710,1149673176] size =     44209466
	Batch  27 pq = [   47951,   48864] index = [    1149673176,1193869680] size =     44196504
	Batch  28 pq = [   48864,   49761] index = [    1193869680,1238103441] size =     44233761
	Batch  29 pq = [   49761,   50642] index = [    1238103441,1282331403] size =     44227962
	Batch  30 pq = [   50642,   51508] index = [    1282331403,1326562786] size =     44231383
	Batch  31 pq = [   51508,   52326] index = [    1326562786,1369031301] size =     42468515
  Task number: 124
  Buffer size: 11059200
  Buffer per thread: 2
  We computed 69431163 shell quartets total.
  Whereas there are 69401871 unique shell quartets.
     0.04 percent of shell quartets recomputed by reordering.

  ==> DiskJK: Disk-Based J/K Matrices <==

    J tasked:                  Yes
    K tasked:                  Yes
    wK tasked:                  No
    Memory [MiB]:              375
    Schwarz Cutoff:          1E-12

    OpenMP threads:              1

  Minimum eigenvalue in the overlap matrix is 2.3611611149E-04.
  Using Symmetric Orthogonalization.

  SCF Guess: Superposition of Atomic Densities via on-the-fly atomic UHF.

  ==> Iterations <==

                        Total Energy        Delta E     RMS |[F,P]|

   @RHF iter SAD:  -669.50729306996095   -6.69507e+02   0.00000e+00
   @RHF iter   1:  -669.94283816063364   -4.35545e-01   2.13763e-03 DIIS
   @RHF iter   2:  -670.23155077447120   -2.88713e-01   9.25359e-04 DIIS
   @RHF iter   3:  -670.27906253205788   -4.75118e-02   2.54601e-04 DIIS
   @RHF iter   4:  -670.28370129875873   -4.63877e-03   1.12265e-04 DIIS
   @RHF iter   5:  -670.28443448562518   -7.33187e-04   1.68129e-05 DIIS
   @RHF iter   6:  -670.28446794207980   -3.34565e-05   7.80812e-06 DIIS
   @RHF iter   7:  -670.28447528514971   -7.34307e-06   3.06533e-06 DIIS
   @RHF iter   8:  -670.28447717407994   -1.88893e-06   1.25549e-06 DIIS
   @RHF iter   9:  -670.28447754772367   -3.73644e-07   5.38959e-07 DIIS
   @RHF iter  10:  -670.28447762386918   -7.61455e-08   2.33996e-07 DIIS
   @RHF iter  11:  -670.28447764193720   -1.80680e-08   9.42709e-08 DIIS
   @RHF iter  12:  -670.28447764442330   -2.48610e-09   3.61935e-08 DIIS
   @RHF iter  13:  -670.28447764468729   -2.63981e-10   1.13312e-08 DIIS
   @RHF iter  14:  -670.28447764471275   -2.54659e-11   4.93460e-09 DIIS
   @RHF iter  15:  -670.28447764470570    7.04858e-12   2.15168e-09 DIIS
   @RHF iter  16:  -670.28447764470786   -2.16005e-12   9.91533e-10 DIIS
   @RHF iter  17:  -670.28447764470570    2.16005e-12   4.63498e-10 DIIS
   @RHF iter  18:  -670.28447764471412   -8.41283e-12   1.56152e-10 DIIS
   @RHF iter  19:  -670.28447764471457   -4.54747e-13   6.73522e-11 DIIS
  Energy and wave function converged.

  ==> Post-Iterations <==

    Orbital Energies [Eh]
    ---------------------

    Doubly Occupied:

       1A    -15.600742     2A    -11.261841     3A    -11.259634
       4A    -11.238105     5A    -11.235770     6A    -11.234923
       7A    -11.233945     8A    -11.229371     9A    -11.228673
      10A    -11.228529    11A    -11.227757    12A    -11.226891
      13A    -11.226627    14A    -11.225359    15A    -11.217532
      16A    -11.217390    17A    -11.212698    18A     -1.291625
      19A     -1.144551    20A     -1.126346    21A     -1.076448
      22A     -1.043606    23A     -0.998941    24A     -0.994955
      25A     -0.985476    26A     -0.932083    27A     -0.928643
      28A     -0.835978    29A     -0.827826    30A     -0.804483
      31A     -0.785500    32A     -0.749804    33A     -0.718676
      34A     -0.687118    35A     -0.663187    36A     -0.637648
      37A     -0.630491    38A     -0.624957    39A     -0.600088
      40A     -0.594028    41A     -0.592442    42A     -0.574552
      43A     -0.570214    44A     -0.564452    45A     -0.561641
      46A     -0.555658    47A     -0.533602    48A     -0.532627
      49A     -0.524900    50A     -0.492961    51A     -0.481571
      52A     -0.480392    53A     -0.477980    54A     -0.467039
      55A     -0.458965    56A     -0.372361    57A     -0.325828
      58A     -0.319761    59A     -0.294534    60A     -0.274187

    Virtual:

      61A      0.124882    62A      0.133219    63A      0.145286
      64A      0.170893    65A      0.177041    66A      0.182644
      67A      0.193974    68A      0.204630    69A      0.209947
      70A      0.220048    71A      0.226339    72A      0.236567
      73A      0.248660    74A      0.254111    75A      0.260525
      76A      0.262646    77A      0.278664    78A      0.286577
      79A      0.290407    80A      0.294545    81A      0.301031
      82A      0.327637    83A      0.364760    84A      0.371151
      85A      0.377738    86A      0.397680    87A      0.401877
      88A      0.420620    89A      0.446380    90A      0.449958
      91A      0.462427    92A      0.469956    93A      0.482116
      94A      0.489275    95A      0.495235    96A      0.508990
      97A      0.514923    98A      0.569493    99A      0.595444
     100A      0.601171   101A      0.607304   102A      0.633841
     103A      0.639992   104A      0.643260   105A      0.661572
     106A      0.676209   107A      0.688029   108A      0.699191
     109A      0.702990   110A      0.705767   111A      0.715574
     112A      0.722266   113A      0.727852   114A      0.734902
     115A      0.738283   116A      0.740219   117A      0.746468
     118A      0.748403   119A      0.751591   120A      0.756332
     121A      0.763593   122A      0.767577   123A      0.775645
     124A      0.783369   125A      0.788233   126A      0.791866
     127A      0.800406   128A      0.804901   129A      0.820012
     130A      0.828043   131A      0.848444   132A      0.858054
     133A      0.865471   134A      0.867449   135A      0.878826
     136A      0.886277   137A      0.889432   138A      0.892138
     139A      0.896666   140A      0.902646   141A      0.914362
     142A      0.915951   143A      0.920577   144A      0.928815
     145A      0.937767   146A      0.946034   147A      0.957974
     148A      0.968258   149A      0.978428   150A      0.989873
     151A      0.992052   152A      1.001325   153A      1.016469
     154A      1.018992   155A      1.037831   156A      1.062482
     157A      1.066660   158A      1.075465   159A      1.100443
     160A      1.118918   161A      1.129503   162A      1.130564
     163A      1.141094   164A      1.145033   165A      1.150801
     166A      1.154975   167A      1.162995   168A      1.194632
     169A      1.204061   170A      1.212134   171A      1.229459
     172A      1.236496   173A      1.241741   174A      1.246853
     175A      1.248030   176A      1.256897   177A      1.263844
     178A      1.268824   179A      1.284753   180A      1.294156
     181A      1.297239   182A      1.303335   183A      1.314442
     184A      1.329802   185A      1.336630   186A      1.344176
     187A      1.352109   188A      1.360893   189A      1.384980
     190A      1.419589   191A      1.428603   192A      1.451700
     193A      1.505223   194A      1.530986   195A      1.540176
     196A      1.553818   197A      1.566101   198A      1.591323
     199A      1.598438   200A      1.617330   201A      1.624236
     202A      1.636925   203A      1.644333   204A      1.676000
     205A      1.683176   206A      1.692081   207A      1.695308
     208A      1.733641   209A      1.743128   210A      1.751857
     211A      1.765566   212A      1.767164   213A      1.784166
     214A      1.797175   215A      1.804333   216A      1.808993
     217A      1.817569   218A      1.835182   219A      1.837170
     220A      1.857444   221A      1.872231   222A      1.877962
     223A      1.888406   224A      1.897478   225A      1.900047
     226A      1.904574   227A      1.913115   228A      1.921187
     229A      1.931112   230A      1.935781   231A      1.940389
     232A      1.946228   233A      1.951783   234A      1.966635
     235A      1.967798   236A      1.972671   237A      1.976706
     238A      1.986226   239A      2.005387   240A      2.015491
     241A      2.021338   242A      2.025834   243A      2.036187
     244A      2.048896   245A      2.058455   246A      2.074413
     247A      2.077759   248A      2.087330   249A      2.103111
     250A      2.106665   251A      2.108788   252A      2.116703
     253A      2.124844   254A      2.134122   255A      2.143423
     256A      2.156494   257A      2.163232   258A      2.174221
     259A      2.177515   260A      2.182558   261A      2.197187
     262A      2.209095   263A      2.238433   264A      2.243895
     265A      2.268781   266A      2.273640   267A      2.274955
     268A      2.296292   269A      2.310233   270A      2.320633
     271A      2.322980   272A      2.331561   273A      2.350260
     274A      2.351701   275A      2.356642   276A      2.395470
     277A      2.412311   278A      2.448195   279A      2.458733
     280A      2.473326   281A      2.481291   282A      2.517205
     283A      2.533191   284A      2.542717   285A      2.573995
     286A      2.616431   287A      2.627676   288A      2.649687
     289A      2.663874   290A      2.695425   291A      2.707306
     292A      2.740449   293A      2.755018   294A      2.773896
     295A      2.779303   296A      2.783808   297A      2.791649
     298A      2.796392   299A      2.811469   300A      2.831785
     301A      2.838947   302A      2.848761   303A      2.857071
     304A      2.866195   305A      2.902722   306A      2.925823
     307A      2.950869   308A      2.964447   309A      2.987964
     310A      3.014108   311A      3.036594   312A      3.059359
     313A      3.092936   314A      3.112418   315A      3.132187
     316A      3.177854   317A      3.229772   318A      3.301347
     319A      3.315303   320A      3.372420   321A      3.754095
     322A      3.933132   323A      3.969440

    Final Occupation by Irrep:
              A
    DOCC [    60 ]

  @RHF Final Energy:  -670.28447764471457

   => Energetics <=

    Nuclear Repulsion Energy =           1059.8006144562366444
    One-Electron Energy =               -3011.2823573842565565
    Two-Electron Energy =                1281.1972652833053417
    Total Energy =                       -670.2844776447145705

Computation Completed

Properties will be evaluated at   0.000000,   0.000000,   0.000000 [a0]

Properties computed using the SCF density matrix

  Nuclear Dipole Moment: [e a0]
     X:    -3.3007      Y:     0.3242      Z:    -5.4679

  Electronic Dipole Moment: [e a0]
     X:     3.7560      Y:    -0.9200      Z:     5.8518

  Dipole Moment: [e a0]
     X:     0.4553      Y:    -0.5958      Z:     0.3839     Total:     0.8424

  Dipole Moment: [D]
     X:     1.1574      Y:    -1.5143      Z:     0.9757     Total:     2.1412

*** tstop() called on ds3 at Mon Apr 27 17:39:06 2020
Module time:
	user time   =     653.68 seconds =      10.89 minutes
	system time =     220.86 seconds =       3.68 minutes
	total time  =       1181 seconds =      19.68 minutes
Total time:
	user time   =     653.68 seconds =      10.89 minutes
	system time =     220.86 seconds =       3.68 minutes
	total time  =       1181 seconds =      19.68 minutes
                                     G D M A

                                 by Anthony Stone

                           version 2.2.06, 22 June 2011

               Distributed Multipoles from Gaussian wavefunctions

Starting at 17:39:6 on 27 Apr 2020

Using SCF density matrix from file ./SSI/SSI-078PHE-104TRP-1-dimer.test.17912.fchk

                         Distributed Multipole Analysis

Standard DMA

Positions and radii in angstrom
Multipole moments in atomic units, ea_0^k for rank k

C          x =  0.699865  y =  0.845378  z = -3.611373 angstrom
           Maximum rank =  0   Radius =  0.650 angstrom
                   Q00  =  -0.202307

C          x = -1.311135  y =  0.932378  z = -2.085373 angstrom
           Maximum rank =  0   Radius =  0.650 angstrom
                   Q00  =   0.004807

C          x = -0.492135  y =  1.570378  z = -3.018373 angstrom
           Maximum rank =  0   Radius =  0.650 angstrom
                   Q00  =  -0.098689

C          x = -2.416135  y =  1.576378  z = -1.475373 angstrom
           Maximum rank =  0   Radius =  0.650 angstrom
                   Q00  =  -0.093799

C          x = -2.713135  y =  2.890378  z = -1.802373 angstrom
           Maximum rank =  0   Radius =  0.650 angstrom
                   Q00  =  -0.085024

C          x = -0.796135  y =  2.882378  z = -3.360373 angstrom
           Maximum rank =  0   Radius =  0.650 angstrom
                   Q00  =  -0.096637

C          x = -1.913135  y =  3.535378  z = -2.737373 angstrom
           Maximum rank =  0   Radius =  0.650 angstrom
                   Q00  =  -0.051334

H          x = -1.069135  y = -0.089622  z = -1.835373 angstrom
           Maximum rank =  0   Radius =  0.325 angstrom
                   Q00  =   0.060307

H          x = -3.032135  y =  1.062378  z = -0.752373 angstrom
           Maximum rank =  0   Radius =  0.325 angstrom
                   Q00  =   0.063692

H          x =  1.293865  y =  0.470378  z = -2.776373 angstrom
           Maximum rank =  0   Radius =  0.325 angstrom
                   Q00  =   0.109057

H          x =  1.286865  y =  1.581378  z = -4.161373 angstrom
           Maximum rank =  0   Radius =  0.325 angstrom
                   Q00  =   0.094667

H          x = -3.548135  y =  3.403378  z = -1.343373 angstrom
           Maximum rank =  0   Radius =  0.325 angstrom
                   Q00  =   0.064029

H          x = -0.184135  y =  3.394378  z = -4.094373 angstrom
           Maximum rank =  0   Radius =  0.325 angstrom
                   Q00  =   0.064248

H          x = -2.175135  y =  4.534378  z = -2.968373 angstrom
           Maximum rank =  0   Radius =  0.325 angstrom
                   Q00  =   0.064376

H          x =  0.434225  y =  0.024178  z = -4.293323 angstrom
           Maximum rank =  0   Radius =  0.325 angstrom
                   Q00  =   0.105857

C          x = -1.662135  y = -2.896622  z =  2.135627 angstrom
           Maximum rank =  0   Radius =  0.650 angstrom
                   Q00  =  -0.164923

C          x =  0.435865  y = -1.417622  z =  1.700627 angstrom
           Maximum rank =  0   Radius =  0.650 angstrom
                   Q00  =  -0.049563

C          x = -0.196135  y = -2.592622  z =  2.205627 angstrom
           Maximum rank =  0   Radius =  0.650 angstrom
                   Q00  =  -0.132382

C          x =  1.798865  y = -1.481622  z =  2.076627 angstrom
           Maximum rank =  0   Radius =  0.650 angstrom
                   Q00  =   0.247506

C          x =  0.760865  y = -3.307622  z =  2.836627 angstrom
           Maximum rank =  0   Radius =  0.650 angstrom
                   Q00  =   0.071457

C          x = -0.016135  y = -0.300622  z =  0.970627 angstrom
           Maximum rank =  0   Radius =  0.650 angstrom
                   Q00  =  -0.106079

C          x =  0.890865  y =  0.709378  z =  0.642627 angstrom
           Maximum rank =  0   Radius =  0.650 angstrom
                   Q00  =  -0.101309

C          x =  2.228865  y =  0.608378  z =  1.030627 angstrom
           Maximum rank =  0   Radius =  0.650 angstrom
                   Q00  =  -0.000298

C          x =  2.685865  y = -0.486622  z =  1.747627 angstrom
           Maximum rank =  0   Radius =  0.650 angstrom
                   Q00  =  -0.125637

N          x =  1.979865  y = -2.652622  z =  2.770627 angstrom
           Maximum rank =  0   Radius =  0.650 angstrom
                   Q00  =  -0.507507

H          x = -1.047135  y = -0.197622  z =  0.655627 angstrom
           Maximum rank =  0   Radius =  0.325 angstrom
                   Q00  =   0.062431

H          x =  0.535865  y =  1.566378  z =  0.085627 angstrom
           Maximum rank =  0   Radius =  0.325 angstrom
                   Q00  =   0.074600

H          x =  2.917865  y =  1.393378  z =  0.768627 angstrom
           Maximum rank =  0   Radius =  0.325 angstrom
                   Q00  =   0.062768

H          x = -1.796135  y = -3.940622  z =  2.408627 angstrom
           Maximum rank =  0   Radius =  0.325 angstrom
                   Q00  =   0.100357

H          x = -1.971135  y = -2.761622  z =  1.092627 angstrom
           Maximum rank =  0   Radius =  0.325 angstrom
                   Q00  =   0.083719

H          x =  0.485865  y = -4.246622  z =  3.299627 angstrom
           Maximum rank =  0   Radius =  0.325 angstrom
                   Q00  =   0.102487

H          x =  2.859865  y = -2.967622  z =  3.162627 angstrom
           Maximum rank =  0   Radius =  0.325 angstrom
                   Q00  =   0.221817

H          x =  3.708865  y = -0.602622  z =  2.062627 angstrom
           Maximum rank =  0   Radius =  0.325 angstrom
                   Q00  =   0.070882

H          x = -2.214935  y = -2.286192  z =  2.864867 angstrom
           Maximum rank =  0   Radius =  0.325 angstrom
                   Q00  =   0.086425

Total multipoles referred to origin at
           x =   0.000000,  y =    0.000000,  z =    0.000000 angstrom
                   Q00  =  -0.000000

Finished at 17:39:6 on 27 Apr 2020

  DMA results are available in the Python driver through the
	  variable('DMA DISTRIBUTED MULTIPOLES')
  and
	  variable('DMA TOTAL MULTIPOLES')
  commands.

    Psi4 stopped on: Monday, 27 April 2020 05:39PM
    Psi4 wall time for execution: 0:19:41.63

*** Psi4 exiting successfully. Buy a developer a beer!
