                               Psi4 1.3.2 release

  ==> Input File <==

--------------------------------------------------------------------------
import numpy as np
set {scf_type pk
basis cc-pvdz
d_convergence 10
gdma_switch   0
gdma_limit    0
gdma_origin   [ 0.0,  0.0,  0.0 ]
}
molecule test {
    units Angstrom
    0 1
    --
    0 1
    C               -1.030050807485939    -1.267658873015858    -0.860514995533727
    C               -1.846050807485939    -1.690658873015857    -2.071514995533727
    H               -1.550050807485939    -1.537658873015857     0.057485004466273
    H               -0.059050807485939    -1.757658873015857    -0.883514995533727
    H               -0.873050807485939    -0.190658873015857    -0.884514995533727
    H               -1.263050807485939    -1.426658873015857    -2.952514995533726
    H               -2.812560807485939    -1.165428873015858    -2.070794995533727
    H               -2.012720807485939    -2.777958873015858    -2.070794995533727
    C                0.849949192514061     1.054341126984143     1.228485004466273
    C                2.022949192514061     1.902341126984143     1.708485004466273
    H               -0.047050807485939     1.274341126984143     1.806485004466273
    H                0.652949192514061     1.279341126984143     0.184485004466273
    H                1.086949192514061    -0.005658873015857     1.294485004466273
    H                2.940949192514061     1.546341126984142     1.242485004466273
    H                2.104829192514061     1.829801126984143     2.803035004466274
    H                1.869999192514061     2.951331126984142     1.414855004466273

}
e, wfn = energy('scf', return_wfn=True)
gdma(wfn)
dmavals = variable('DMA DISTRIBUTED MULTIPOLES')
charges = np.array(dmavals)
print(charges)
np.save('SSI-150LEU-167LEU-1-dimer.npy', np.array(charges))--------------------------------------------------------------------------

*** tstart() called on ds3
*** at Tue Apr 28 09:39:07 2020

   => Loading Basis Set <=

    Name: CC-PVDZ
    Role: ORBITAL
    Keyword: BASIS
    atoms 1-2, 9-10  entry C          line   138 file /theoryfs2/ds/metcalf/miniconda2/envs/tf2gpu/share/psi4/basis/cc-pvdz.gbs
    atoms 3-8, 11-16 entry H          line    22 file /theoryfs2/ds/metcalf/miniconda2/envs/tf2gpu/share/psi4/basis/cc-pvdz.gbs

         ---------------------------------------------------------
                                   SCF
               by Justin Turney, Rob Parrish, Andy Simmonett
                          and Daniel G. A. Smith
                              RHF Reference
                        1 Threads,    500 MiB Core
         ---------------------------------------------------------

  ==> Geometry <==

    Molecular point group: c1
    Full point group: C1

    Geometry (in Angstrom), charge = 0, multiplicity = 1:

       Center              X                  Y                   Z               Mass
    ------------   -----------------  -----------------  -----------------  -----------------
         C           -1.030050807486    -1.267658873016    -0.860514995534    12.000000000000
         C           -1.846050807486    -1.690658873016    -2.071514995534    12.000000000000
         H           -1.550050807486    -1.537658873016     0.057485004466     1.007825032230
         H           -0.059050807486    -1.757658873016    -0.883514995534     1.007825032230
         H           -0.873050807486    -0.190658873016    -0.884514995534     1.007825032230
         H           -1.263050807486    -1.426658873016    -2.952514995534     1.007825032230
         H           -2.812560807486    -1.165428873016    -2.070794995534     1.007825032230
         H           -2.012720807486    -2.777958873016    -2.070794995534     1.007825032230
         C            0.849949192514     1.054341126984     1.228485004466    12.000000000000
         C            2.022949192514     1.902341126984     1.708485004466    12.000000000000
         H           -0.047050807486     1.274341126984     1.806485004466     1.007825032230
         H            0.652949192514     1.279341126984     0.184485004466     1.007825032230
         H            1.086949192514    -0.005658873016     1.294485004466     1.007825032230
         H            2.940949192514     1.546341126984     1.242485004466     1.007825032230
         H            2.104829192514     1.829801126984     2.803035004466     1.007825032230
         H            1.869999192514     2.951331126984     1.414855004466     1.007825032230

  Running in c1 symmetry.

  Rotational constants: A =      0.98194  B =      0.03913  C =      0.03892 [cm^-1]
  Rotational constants: A =  29437.91233  B =   1173.04028  C =   1166.89538 [MHz]
  Nuclear repulsion =  120.123950647698436

  Charge       = 0
  Multiplicity = 1
  Electrons    = 36
  Nalpha       = 18
  Nbeta        = 18

  ==> Algorithm <==

  SCF Algorithm Type is PK.
  DIIS enabled.
  MOM disabled.
  Fractional occupation disabled.
  Guess Type is SAD.
  Energy threshold   = 1.00e-06
  Density threshold  = 1.00e-10
  Integral threshold = 0.00e+00

  ==> Primary Basis <==

  Basis Set: CC-PVDZ
    Blend: CC-PVDZ
    Number of shells: 60
    Number of basis function: 116
    Number of Cartesian functions: 120
    Spherical Harmonics?: true
    Max angular momentum: 2

  ==> Pre-Iterations <==

   -------------------------------------------------------
    Irrep   Nso     Nmo     Nalpha   Nbeta   Ndocc  Nsocc
   -------------------------------------------------------
     A        116     116       0       0       0       0
   -------------------------------------------------------
    Total     116     116      18      18      18       0
   -------------------------------------------------------

  ==> Integral Setup <==

  Using integral reordering PK algorithm.
  Sizing the integral batches needed.
  Building batch lookup table.
   Calculation information:
      Number of atoms:                  16
      Number of AO shells:              60
      Number of primitives:            148
      Number of atomic orbitals:       120
      Number of basis functions:       116

      Integral cutoff                 1.00e-12
      Number of threads:                 1

	Batch   1 pq = [       0,    6786] index = [             0,23028291] size =     23028291
  Task number: 3
  Buffer size: 11059200
  Buffer per thread: 2
  We computed 1324111 shell quartets total.
  Whereas there are 1675365 unique shell quartets.

  ==> DiskJK: Disk-Based J/K Matrices <==

    J tasked:                  Yes
    K tasked:                  Yes
    wK tasked:                  No
    Memory [MiB]:              375
    Schwarz Cutoff:          1E-12

    OpenMP threads:              1

  Minimum eigenvalue in the overlap matrix is 5.7562000679E-03.
  Using Symmetric Orthogonalization.

  SCF Guess: Superposition of Atomic Densities via on-the-fly atomic UHF.

  ==> Iterations <==

                        Total Energy        Delta E     RMS |[F,P]|

   @RHF iter SAD:  -157.37568146584022   -1.57376e+02   0.00000e+00
   @RHF iter   1:  -158.30529184220512   -9.29610e-01   4.24047e-03 DIIS
   @RHF iter   2:  -158.44006834867147   -1.34777e-01   1.80736e-03 DIIS
   @RHF iter   3:  -158.46374380838708   -2.36755e-02   3.51452e-04 DIIS
   @RHF iter   4:  -158.46558717136693   -1.84336e-03   3.92246e-05 DIIS
   @RHF iter   5:  -158.46561122142498   -2.40501e-05   7.01264e-06 DIIS
   @RHF iter   6:  -158.46561192178837   -7.00363e-07   1.31670e-06 DIIS
   @RHF iter   7:  -158.46561193771257   -1.59242e-08   3.22079e-07 DIIS
   @RHF iter   8:  -158.46561193871256   -9.99989e-10   3.86088e-08 DIIS
   @RHF iter   9:  -158.46561193873666   -2.41016e-11   6.42757e-09 DIIS
   @RHF iter  10:  -158.46561193873714   -4.83169e-13   1.60541e-09 DIIS
   @RHF iter  11:  -158.46561193873748   -3.41061e-13   2.99678e-10 DIIS
   @RHF iter  12:  -158.46561193873757   -8.52651e-14   5.30899e-11 DIIS
  Energy and wave function converged.

  ==> Post-Iterations <==

    Orbital Energies [Eh]
    ---------------------

    Doubly Occupied:

       1A    -11.218278     2A    -11.217594     3A    -11.214584
       4A    -11.213898     5A     -1.020676     6A     -1.018204
       7A     -0.838673     8A     -0.831271     9A     -0.602106
      10A     -0.600050    11A     -0.598449    12A     -0.594642
      13A     -0.506458    14A     -0.494433    15A     -0.487559
      16A     -0.486343    17A     -0.484533    18A     -0.477591

    Virtual:

      19A      0.177364    20A      0.193791    21A      0.221192
      22A      0.234892    23A      0.244424    24A      0.260762
      25A      0.265819    26A      0.280295    27A      0.282450
      28A      0.286840    29A      0.299357    30A      0.338711
      31A      0.380044    32A      0.422492    33A      0.565016
      34A      0.592876    35A      0.598069    36A      0.603729
      37A      0.608888    38A      0.655017    39A      0.665980
      40A      0.689417    41A      0.706548    42A      0.749084
      43A      0.836115    44A      0.886544    45A      0.888653
      46A      0.893649    47A      0.894714    48A      0.900635
      49A      0.903811    50A      0.907947    51A      0.916228
      52A      0.921421    53A      0.944761    54A      0.950140
      55A      0.958838    56A      1.001739    57A      1.122148
      58A      1.127836    59A      1.129890    60A      1.140503
      61A      1.213104    62A      1.269706    63A      1.474852
      64A      1.479702    65A      1.482193    66A      1.492168
      67A      1.574197    68A      1.597954    69A      1.676931
      70A      1.680738    71A      1.694121    72A      1.697444
      73A      1.839196    74A      1.852561    75A      1.868637
      76A      1.879941    77A      1.894685    78A      1.927625
      79A      1.939471    80A      1.941527    81A      1.945113
      82A      1.945727    83A      1.950524    84A      1.955280
      85A      1.961176    86A      1.980849    87A      1.989472
      88A      2.069366    89A      2.101019    90A      2.115054
      91A      2.127046    92A      2.129530    93A      2.293627
      94A      2.308165    95A      2.311084    96A      2.352886
      97A      2.447574    98A      2.454603    99A      2.464492
     100A      2.472610   101A      2.566574   102A      2.569704
     103A      2.582473   104A      2.585322   105A      2.758815
     106A      2.768586   107A      2.788267   108A      2.799063
     109A      2.842984   110A      2.847803   111A      2.853583
     112A      2.859755   113A      2.941888   114A      2.948422
     115A      2.964601   116A      2.969547

    Final Occupation by Irrep:
              A
    DOCC [    18 ]

  @RHF Final Energy:  -158.46561193873757

   => Energetics <=

    Nuclear Repulsion Energy =            120.1239506476984360
    One-Electron Energy =                -449.3684416961411898
    Two-Electron Energy =                 170.7788791097051728
    Total Energy =                       -158.4656119387375668

Computation Completed

Properties will be evaluated at   0.000000,   0.000000,   0.000000 [a0]

Properties computed using the SCF density matrix

  Nuclear Dipole Moment: [e a0]
     X:     0.0358      Y:     0.0183      Z:    -0.0551

  Electronic Dipole Moment: [e a0]
     X:    -0.0258      Y:    -0.0161      Z:     0.0493

  Dipole Moment: [e a0]
     X:     0.0100      Y:     0.0022      Z:    -0.0058     Total:     0.0118

  Dipole Moment: [D]
     X:     0.0254      Y:     0.0056      Z:    -0.0149     Total:     0.0299

*** tstop() called on ds3 at Tue Apr 28 09:39:20 2020
Module time:
	user time   =       7.07 seconds =       0.12 minutes
	system time =       2.56 seconds =       0.04 minutes
	total time  =         13 seconds =       0.22 minutes
Total time:
	user time   =       7.07 seconds =       0.12 minutes
	system time =       2.56 seconds =       0.04 minutes
	total time  =         13 seconds =       0.22 minutes
                                     G D M A

                                 by Anthony Stone

                           version 2.2.06, 22 June 2011

               Distributed Multipoles from Gaussian wavefunctions

Starting at 9:39:20 on 28 Apr 2020

Using SCF density matrix from file ./SSI/SSI-150LEU-167LEU-1-dimer.test.10989.fchk

                         Distributed Multipole Analysis

Standard DMA

Positions and radii in angstrom
Multipole moments in atomic units, ea_0^k for rank k

C          x = -1.030051  y = -1.267659  z = -0.860515 angstrom
           Maximum rank =  0   Radius =  0.650 angstrom
                   Q00  =  -0.232717

C          x = -1.846051  y = -1.690659  z = -2.071515 angstrom
           Maximum rank =  0   Radius =  0.650 angstrom
                   Q00  =  -0.234961

H          x = -1.550051  y = -1.537659  z =  0.057485 angstrom
           Maximum rank =  0   Radius =  0.325 angstrom
                   Q00  =   0.077637

H          x = -0.059051  y = -1.757659  z = -0.883515 angstrom
           Maximum rank =  0   Radius =  0.325 angstrom
                   Q00  =   0.076282

H          x = -0.873051  y = -0.190659  z = -0.884515 angstrom
           Maximum rank =  0   Radius =  0.325 angstrom
                   Q00  =   0.079450

H          x = -1.263051  y = -1.426659  z = -2.952515 angstrom
           Maximum rank =  0   Radius =  0.325 angstrom
                   Q00  =   0.076655

H          x = -2.812561  y = -1.165429  z = -2.070795 angstrom
           Maximum rank =  0   Radius =  0.325 angstrom
                   Q00  =   0.078579

H          x = -2.012721  y = -2.777959  z = -2.070795 angstrom
           Maximum rank =  0   Radius =  0.325 angstrom
                   Q00  =   0.078155

C          x =  0.849949  y =  1.054341  z =  1.228485 angstrom
           Maximum rank =  0   Radius =  0.650 angstrom
                   Q00  =  -0.235772

C          x =  2.022949  y =  1.902341  z =  1.708485 angstrom
           Maximum rank =  0   Radius =  0.650 angstrom
                   Q00  =  -0.233094

H          x = -0.047051  y =  1.274341  z =  1.806485 angstrom
           Maximum rank =  0   Radius =  0.325 angstrom
                   Q00  =   0.079483

H          x =  0.652949  y =  1.279341  z =  0.184485 angstrom
           Maximum rank =  0   Radius =  0.325 angstrom
                   Q00  =   0.074533

H          x =  1.086949  y = -0.005659  z =  1.294485 angstrom
           Maximum rank =  0   Radius =  0.325 angstrom
                   Q00  =   0.080262

H          x =  2.940949  y =  1.546341  z =  1.242485 angstrom
           Maximum rank =  0   Radius =  0.325 angstrom
                   Q00  =   0.079920

H          x =  2.104829  y =  1.829801  z =  2.803035 angstrom
           Maximum rank =  0   Radius =  0.325 angstrom
                   Q00  =   0.078108

H          x =  1.869999  y =  2.951331  z =  1.414855 angstrom
           Maximum rank =  0   Radius =  0.325 angstrom
                   Q00  =   0.077478

Total multipoles referred to origin at
           x =   0.000000,  y =    0.000000,  z =    0.000000 angstrom
                   Q00  =  -0.000000

Finished at 9:39:20 on 28 Apr 2020

  DMA results are available in the Python driver through the
	  variable('DMA DISTRIBUTED MULTIPOLES')
  and
	  variable('DMA TOTAL MULTIPOLES')
  commands.

    Psi4 stopped on: Tuesday, 28 April 2020 09:39AM
    Psi4 wall time for execution: 0:00:13.46

*** Psi4 exiting successfully. Buy a developer a beer!
