                               Psi4 1.3.2 release

  ==> Input File <==

--------------------------------------------------------------------------
import numpy as np
set {scf_type pk
basis cc-pvdz
d_convergence 10
gdma_switch   0
gdma_limit    0
gdma_origin   [ 0.0,  0.0,  0.0 ]
}
molecule test {
    units Angstrom
    0 1
    --
    0 1
    C               -0.693891371356864     1.788675225748870     0.646872386109720
    C               -0.758891371356864     2.752675225748870     1.817872386109720
    C                0.716108628643136     1.473675225748870     0.220872386109720
    C                1.231108628643136     2.080675225748870    -0.897127613890280
    C                1.540108628643136     0.631675225748870     0.968872386109720
    C                2.504108628643136     1.799675225748870    -1.352127613890280
    C                2.844108628643137     0.362675225748870     0.534872386109720
    C                3.314108628643136     0.950675225748870    -0.634127613890280
    H               -1.194891371356864     0.858675225748870     0.918872386109720
    H               -1.238891371356864     2.216675225748869    -0.196127613890280
    H               -0.165891371356864     3.614675225748870     1.535872386109720
    H                0.616108628643136     2.767675225748869    -1.462127613890280
    H                1.165108628643136     0.150675225748870     1.860872386109720
    H                2.876108628643137     2.266675225748869    -2.253127613890280
    H                3.475108628643136    -0.309324774251130     1.096872386109720
    H                4.316108628643136     0.738675225748870    -0.981127613890280
    H               -0.332241371356864     2.299552225748869     2.724874386109720
    H               -1.787391371356864     3.080485225748869     2.029386386109720
    C               -2.972891371356864    -2.607324774251131     1.570872386109720
    C               -2.553891371356864    -1.286324774251130    -0.571127613890280
    C               -2.036891371356864    -2.060324774251130     0.480872386109720
    C               -1.722891371356864    -0.793324774251130    -1.621127613890280
    C               -0.655891371356864    -2.353324774251131     0.475872386109720
    C               -0.381891371356864    -1.089324774251130    -1.608127613890280
    C                0.164108628643136    -1.850324774251130    -0.544127613890280
    H               -3.602891371356864    -1.047324774251130    -0.581127613890280
    H               -2.145891371356864    -0.194324774251130    -2.415127613890281
    H               -2.601891371356864    -3.592324774251131     1.845872386109720
    H               -3.962891371356864    -2.750324774251131     1.136872386109720
    H               -0.218891371356864    -2.940324774251131     1.270872386109720
    H                0.267108628643136    -0.732324774251130    -2.393127613890281
    H                1.225108628643136    -2.059324774251130    -0.529127613890280
    H               -3.078551371356864    -1.988328774251130     2.474021386109719

}
e, wfn = energy('scf', return_wfn=True)
gdma(wfn)
dmavals = variable('DMA DISTRIBUTED MULTIPOLES')
charges = np.array(dmavals)
print(charges)
np.save('SSI-006PHE-061PHE-1-dimer.npy', np.array(charges))--------------------------------------------------------------------------

*** tstart() called on ds3
*** at Tue Apr 28 15:46:12 2020

   => Loading Basis Set <=

    Name: CC-PVDZ
    Role: ORBITAL
    Keyword: BASIS
    atoms 1-8, 19-25  entry C          line   138 file /theoryfs2/ds/metcalf/miniconda2/envs/tf2gpu/share/psi4/basis/cc-pvdz.gbs
    atoms 9-18, 26-33 entry H          line    22 file /theoryfs2/ds/metcalf/miniconda2/envs/tf2gpu/share/psi4/basis/cc-pvdz.gbs

         ---------------------------------------------------------
                                   SCF
               by Justin Turney, Rob Parrish, Andy Simmonett
                          and Daniel G. A. Smith
                              RHF Reference
                        1 Threads,    500 MiB Core
         ---------------------------------------------------------

  ==> Geometry <==

    Molecular point group: c1
    Full point group: C1

    Geometry (in Angstrom), charge = 0, multiplicity = 1:

       Center              X                  Y                   Z               Mass
    ------------   -----------------  -----------------  -----------------  -----------------
         C           -0.693891371357     1.788675225749     0.646872386110    12.000000000000
         C           -0.758891371357     2.752675225749     1.817872386110    12.000000000000
         C            0.716108628643     1.473675225749     0.220872386110    12.000000000000
         C            1.231108628643     2.080675225749    -0.897127613890    12.000000000000
         C            1.540108628643     0.631675225749     0.968872386110    12.000000000000
         C            2.504108628643     1.799675225749    -1.352127613890    12.000000000000
         C            2.844108628643     0.362675225749     0.534872386110    12.000000000000
         C            3.314108628643     0.950675225749    -0.634127613890    12.000000000000
         H           -1.194891371357     0.858675225749     0.918872386110     1.007825032230
         H           -1.238891371357     2.216675225749    -0.196127613890     1.007825032230
         H           -0.165891371357     3.614675225749     1.535872386110     1.007825032230
         H            0.616108628643     2.767675225749    -1.462127613890     1.007825032230
         H            1.165108628643     0.150675225749     1.860872386110     1.007825032230
         H            2.876108628643     2.266675225749    -2.253127613890     1.007825032230
         H            3.475108628643    -0.309324774251     1.096872386110     1.007825032230
         H            4.316108628643     0.738675225749    -0.981127613890     1.007825032230
         H           -0.332241371357     2.299552225749     2.724874386110     1.007825032230
         H           -1.787391371357     3.080485225749     2.029386386110     1.007825032230
         C           -2.972891371357    -2.607324774251     1.570872386110    12.000000000000
         C           -2.553891371357    -1.286324774251    -0.571127613890    12.000000000000
         C           -2.036891371357    -2.060324774251     0.480872386110    12.000000000000
         C           -1.722891371357    -0.793324774251    -1.621127613890    12.000000000000
         C           -0.655891371357    -2.353324774251     0.475872386110    12.000000000000
         C           -0.381891371357    -1.089324774251    -1.608127613890    12.000000000000
         C            0.164108628643    -1.850324774251    -0.544127613890    12.000000000000
         H           -3.602891371357    -1.047324774251    -0.581127613890     1.007825032230
         H           -2.145891371357    -0.194324774251    -2.415127613890     1.007825032230
         H           -2.601891371357    -3.592324774251     1.845872386110     1.007825032230
         H           -3.962891371357    -2.750324774251     1.136872386110     1.007825032230
         H           -0.218891371357    -2.940324774251     1.270872386110     1.007825032230
         H            0.267108628643    -0.732324774251    -2.393127613890     1.007825032230
         H            1.225108628643    -2.059324774251    -0.529127613890     1.007825032230
         H           -3.078551371357    -1.988328774251     2.474021386110     1.007825032230

  Running in c1 symmetry.

  Rotational constants: A =      0.02984  B =      0.01325  C =      0.01182 [cm^-1]
  Rotational constants: A =    894.62948  B =    397.36722  C =    354.38018 [MHz]
  Nuclear repulsion =  931.444672962513437

  Charge       = 0
  Multiplicity = 1
  Electrons    = 108
  Nalpha       = 54
  Nbeta        = 54

  ==> Algorithm <==

  SCF Algorithm Type is PK.
  DIIS enabled.
  MOM disabled.
  Fractional occupation disabled.
  Guess Type is SAD.
  Energy threshold   = 1.00e-06
  Density threshold  = 1.00e-10
  Integral threshold = 0.00e+00

  ==> Primary Basis <==

  Basis Set: CC-PVDZ
    Blend: CC-PVDZ
    Number of shells: 144
    Number of basis function: 300
    Number of Cartesian functions: 315
    Spherical Harmonics?: true
    Max angular momentum: 2

  ==> Pre-Iterations <==

   -------------------------------------------------------
    Irrep   Nso     Nmo     Nalpha   Nbeta   Ndocc  Nsocc
   -------------------------------------------------------
     A        300     300       0       0       0       0
   -------------------------------------------------------
    Total     300     300      54      54      54       0
   -------------------------------------------------------

  ==> Integral Setup <==

  Using integral reordering PK algorithm.
  Sizing the integral batches needed.
  Building batch lookup table.
   Calculation information:
      Number of atoms:                  33
      Number of AO shells:             144
      Number of primitives:            420
      Number of atomic orbitals:       315
      Number of basis functions:       300

      Integral cutoff                 1.00e-12
      Number of threads:                 1

	Batch   1 pq = [       0,    9405] index = [             0,44231715] size =     44231715
	Batch   2 pq = [    9405,   13301] index = [      44231715,88464951] size =     44233236
	Batch   3 pq = [   13301,   16290] index = [      88464951,132690195] size =     44225244
	Batch   4 pq = [   16290,   18810] index = [     132690195,176917455] size =     44227260
	Batch   5 pq = [   18810,   21030] index = [     176917455,221140965] size =     44223510
	Batch   6 pq = [   21030,   23037] index = [     221140965,265363203] size =     44222238
	Batch   7 pq = [   23037,   24883] index = [     265363203,309594286] size =     44231083
	Batch   8 pq = [   24883,   26601] index = [     309594286,353819901] size =     44225615
	Batch   9 pq = [   26601,   28214] index = [     353819901,398029005] size =     44209104
	Batch  10 pq = [   28214,   29740] index = [     398029005,442248670] size =     44219665
	Batch  11 pq = [   29740,   31191] index = [     442248670,486454836] size =     44206166
	Batch  12 pq = [   31191,   32578] index = [     486454836,530679331] size =     44224495
	Batch  13 pq = [   32578,   33908] index = [     530679331,574893186] size =     44213855
	Batch  14 pq = [   33908,   35188] index = [     574893186,619115266] size =     44222080
	Batch  15 pq = [   35188,   36423] index = [     619115266,663335676] size =     44220410
	Batch  16 pq = [   36423,   37617] index = [     663335676,707538153] size =     44202477
	Batch  17 pq = [   37617,   38775] index = [     707538153,751769700] size =     44231547
	Batch  18 pq = [   38775,   39899] index = [     751769700,795985050] size =     44215350
	Batch  19 pq = [   39899,   40992] index = [     795985050,840192528] size =     44207478
	Batch  20 pq = [   40992,   42057] index = [     840192528,884416653] size =     44224125
	Batch  21 pq = [   42057,   43095] index = [     884416653,928611060] size =     44194407
	Batch  22 pq = [   43095,   44109] index = [     928611060,972823995] size =     44212935
	Batch  23 pq = [   44109,   45150] index = [     972823995,1019283825] size =     46459830
  Task number: 93
  Buffer size: 11059200
  Buffer per thread: 2
  We computed 68584858 shell quartets total.
  Whereas there are 54502020 unique shell quartets.
    25.84 percent of shell quartets recomputed by reordering.

  ==> DiskJK: Disk-Based J/K Matrices <==

    J tasked:                  Yes
    K tasked:                  Yes
    wK tasked:                  No
    Memory [MiB]:              375
    Schwarz Cutoff:          1E-12

    OpenMP threads:              1

  Minimum eigenvalue in the overlap matrix is 2.8978105250E-04.
  Using Symmetric Orthogonalization.

  SCF Guess: Superposition of Atomic Densities via on-the-fly atomic UHF.

  ==> Iterations <==

                        Total Energy        Delta E     RMS |[F,P]|

   @RHF iter SAD:  -577.33785387387104   -5.77338e+02   0.00000e+00
   @RHF iter   1:  -578.23045759051558   -8.92604e-01   2.21142e-03 DIIS
   @RHF iter   2:  -578.50063493227367   -2.70177e-01   9.21376e-04 DIIS
   @RHF iter   3:  -578.54223540441581   -4.16005e-02   2.23278e-04 DIIS
   @RHF iter   4:  -578.54584330867226   -3.60790e-03   8.03327e-05 DIIS
   @RHF iter   5:  -578.54618348410202   -3.40175e-04   1.70543e-05 DIIS
   @RHF iter   6:  -578.54620323366908   -1.97496e-05   4.66176e-06 DIIS
   @RHF iter   7:  -578.54620500939677   -1.77573e-06   1.31335e-06 DIIS
   @RHF iter   8:  -578.54620531549415   -3.06097e-07   6.12571e-07 DIIS
   @RHF iter   9:  -578.54620541946656   -1.03972e-07   2.95568e-07 DIIS
   @RHF iter  10:  -578.54620544531190   -2.58453e-08   1.24354e-07 DIIS
   @RHF iter  11:  -578.54620544988632   -4.57442e-09   4.39135e-08 DIIS
   @RHF iter  12:  -578.54620545014370   -2.57387e-10   1.33977e-08 DIIS
   @RHF iter  13:  -578.54620545017292   -2.92175e-11   4.71983e-09 DIIS
   @RHF iter  14:  -578.54620545017190    1.02318e-12   1.69525e-09 DIIS
   @RHF iter  15:  -578.54620545017337   -1.47793e-12   5.42693e-10 DIIS
   @RHF iter  16:  -578.54620545017247    9.09495e-13   2.46726e-10 DIIS
   @RHF iter  17:  -578.54620545017087    1.59162e-12   1.24472e-10 DIIS
   @RHF iter  18:  -578.54620545017838   -7.50333e-12   6.46322e-11 DIIS
  Energy and wave function converged.

  ==> Post-Iterations <==

    Orbital Energies [Eh]
    ---------------------

    Doubly Occupied:

       1A    -11.244958     2A    -11.234703     3A    -11.234506
       4A    -11.232320     5A    -11.232236     6A    -11.232215
       7A    -11.231546     8A    -11.229083     9A    -11.228245
      10A    -11.227674    11A    -11.226902    12A    -11.226292
      13A    -11.221452    14A    -11.217759    15A    -11.215577
      16A     -1.154404    17A     -1.140382    18A     -1.060286
      19A     -1.036205    20A     -1.009186    21A     -1.001196
      22A     -0.979469    23A     -0.927970    24A     -0.855048
      25A     -0.822851    26A     -0.819967    27A     -0.789435
      28A     -0.781440    29A     -0.688563    30A     -0.684775
      31A     -0.636599    32A     -0.628993    33A     -0.628741
      34A     -0.621712    35A     -0.590242    36A     -0.583751
      37A     -0.577088    38A     -0.573414    39A     -0.572092
      40A     -0.555624    41A     -0.539142    42A     -0.534430
      43A     -0.513081    44A     -0.494316    45A     -0.483210
      46A     -0.479137    47A     -0.477196    48A     -0.475570
      49A     -0.469260    50A     -0.459582    51A     -0.336497
      52A     -0.330171    53A     -0.320432    54A     -0.304214

    Virtual:

      55A      0.127580    56A      0.137144    57A      0.144528
      58A      0.153508    59A      0.176349    60A      0.191744
      61A      0.199473    62A      0.201817    63A      0.215696
      64A      0.231261    65A      0.242497    66A      0.245214
      67A      0.246784    68A      0.255086    69A      0.263421
      70A      0.268797    71A      0.274309    72A      0.287484
      73A      0.290386    74A      0.304861    75A      0.313496
      76A      0.318776    77A      0.354134    78A      0.364583
      79A      0.370315    80A      0.396793    81A      0.421130
      82A      0.450646    83A      0.457085    84A      0.463558
      85A      0.470697    86A      0.475021    87A      0.486789
      88A      0.497199    89A      0.505158    90A      0.559637
      91A      0.567546    92A      0.580456    93A      0.600841
      94A      0.604481    95A      0.623954    96A      0.632584
      97A      0.637776    98A      0.662032    99A      0.672510
     100A      0.682702   101A      0.693262   102A      0.698308
     103A      0.706188   104A      0.710134   105A      0.725337
     106A      0.737857   107A      0.738551   108A      0.745713
     109A      0.750292   110A      0.753933   111A      0.760403
     112A      0.764775   113A      0.777815   114A      0.778812
     115A      0.797078   116A      0.801603   117A      0.819578
     118A      0.829495   119A      0.845293   120A      0.852954
     121A      0.858721   122A      0.868515   123A      0.876122
     124A      0.876940   125A      0.892085   126A      0.893206
     127A      0.895811   128A      0.901254   129A      0.903250
     130A      0.908574   131A      0.914205   132A      0.918526
     133A      0.920694   134A      0.938065   135A      0.940211
     136A      0.945252   137A      0.958533   138A      0.962929
     139A      0.972243   140A      0.973159   141A      0.997600
     142A      1.003444   143A      1.024206   144A      1.028001
     145A      1.041518   146A      1.051433   147A      1.084185
     148A      1.097963   149A      1.113824   150A      1.127607
     151A      1.137753   152A      1.144703   153A      1.151378
     154A      1.158971   155A      1.168588   156A      1.176509
     157A      1.186269   158A      1.215600   159A      1.222819
     160A      1.232585   161A      1.236520   162A      1.253877
     163A      1.262773   164A      1.278491   165A      1.284033
     166A      1.292534   167A      1.295527   168A      1.309501
     169A      1.316982   170A      1.324820   171A      1.337369
     172A      1.345687   173A      1.355475   174A      1.388684
     175A      1.415604   176A      1.423286   177A      1.439370
     178A      1.456373   179A      1.499141   180A      1.513922
     181A      1.533133   182A      1.541740   183A      1.564406
     184A      1.609740   185A      1.615923   186A      1.634401
     187A      1.679418   188A      1.692189   189A      1.699001
     190A      1.706179   191A      1.719050   192A      1.743133
     193A      1.758640   194A      1.764457   195A      1.772939
     196A      1.783544   197A      1.785662   198A      1.812382
     199A      1.815437   200A      1.854955   201A      1.858160
     202A      1.871773   203A      1.881381   204A      1.886918
     205A      1.889084   206A      1.896057   207A      1.905853
     208A      1.910399   209A      1.914609   210A      1.919953
     211A      1.925335   212A      1.932756   213A      1.940724
     214A      1.947372   215A      1.948522   216A      1.955220
     217A      1.959527   218A      1.965247   219A      1.972247
     220A      1.976219   221A      1.979112   222A      1.995803
     223A      2.012462   224A      2.014855   225A      2.019542
     226A      2.030433   227A      2.050712   228A      2.054132
     229A      2.068121   230A      2.074050   231A      2.076313
     232A      2.103879   233A      2.110591   234A      2.111641
     235A      2.136793   236A      2.150573   237A      2.158039
     238A      2.163102   239A      2.165597   240A      2.170993
     241A      2.177845   242A      2.185602   243A      2.191802
     244A      2.200324   245A      2.217459   246A      2.247462
     247A      2.253156   248A      2.271416   249A      2.280610
     250A      2.286000   251A      2.292873   252A      2.301219
     253A      2.317791   254A      2.324666   255A      2.333605
     256A      2.357890   257A      2.378290   258A      2.386404
     259A      2.464526   260A      2.466816   261A      2.467939
     262A      2.483290   263A      2.493350   264A      2.507325
     265A      2.527760   266A      2.543800   267A      2.581012
     268A      2.603392   269A      2.605911   270A      2.646676
     271A      2.747085   272A      2.747621   273A      2.755801
     274A      2.767536   275A      2.776757   276A      2.782332
     277A      2.800306   278A      2.808375   279A      2.810563
     280A      2.820194   281A      2.852506   282A      2.858250
     283A      2.871340   284A      2.893314   285A      2.919098
     286A      2.961206   287A      2.991633   288A      3.001888
     289A      3.015996   290A      3.024970   291A      3.068712
     292A      3.100309   293A      3.133514   294A      3.179978
     295A      3.205588   296A      3.221483   297A      3.276171
     298A      3.329791   299A      3.927343   300A      3.995828

    Final Occupation by Irrep:
              A
    DOCC [    54 ]

  @RHF Final Energy:  -578.54620545017838

   => Energetics <=

    Nuclear Repulsion Energy =            931.4446729625134367
    One-Electron Energy =               -2631.2394781870398219
    Two-Electron Energy =                1121.2485997743481221
    Total Energy =                       -578.5462054501783769

Computation Completed

Properties will be evaluated at   0.000000,   0.000000,   0.000000 [a0]

Properties computed using the SCF density matrix

  Nuclear Dipole Moment: [e a0]
     X:    -5.9900      Y:     2.2310      Z:     5.7030

  Electronic Dipole Moment: [e a0]
     X:     5.8242      Y:    -2.2830      Z:    -5.6177

  Dipole Moment: [e a0]
     X:    -0.1658      Y:    -0.0519      Z:     0.0853     Total:     0.1936

  Dipole Moment: [D]
     X:    -0.4214      Y:    -0.1320      Z:     0.2168     Total:     0.4920

*** tstop() called on ds3 at Tue Apr 28 16:08:04 2020
Module time:
	user time   =     568.54 seconds =       9.48 minutes
	system time =     144.58 seconds =       2.41 minutes
	total time  =       1312 seconds =      21.87 minutes
Total time:
	user time   =     568.54 seconds =       9.48 minutes
	system time =     144.58 seconds =       2.41 minutes
	total time  =       1312 seconds =      21.87 minutes
                                     G D M A

                                 by Anthony Stone

                           version 2.2.06, 22 June 2011

               Distributed Multipoles from Gaussian wavefunctions

Starting at 16:8:4 on 28 Apr 2020

Using SCF density matrix from file ./SSI/SSI-006PHE-061PHE-1-dimer.test.14528.fchk

                         Distributed Multipole Analysis

Standard DMA

Positions and radii in angstrom
Multipole moments in atomic units, ea_0^k for rank k

C          x = -0.693891  y =  1.788675  z =  0.646872 angstrom
           Maximum rank =  0   Radius =  0.650 angstrom
                   Q00  =  -0.036508

C          x = -0.758891  y =  2.752675  z =  1.817872 angstrom
           Maximum rank =  0   Radius =  0.650 angstrom
                   Q00  =  -0.228984

C          x =  0.716109  y =  1.473675  z =  0.220872 angstrom
           Maximum rank =  0   Radius =  0.650 angstrom
                   Q00  =  -0.093925

C          x =  1.231109  y =  2.080675  z = -0.897128 angstrom
           Maximum rank =  0   Radius =  0.650 angstrom
                   Q00  =   0.020375

C          x =  1.540109  y =  0.631675  z =  0.968872 angstrom
           Maximum rank =  0   Radius =  0.650 angstrom
                   Q00  =  -0.091742

C          x =  2.504109  y =  1.799675  z = -1.352128 angstrom
           Maximum rank =  0   Radius =  0.650 angstrom
                   Q00  =  -0.082966

C          x =  2.844109  y =  0.362675  z =  0.534872 angstrom
           Maximum rank =  0   Radius =  0.650 angstrom
                   Q00  =  -0.063033

C          x =  3.314109  y =  0.950675  z = -0.634128 angstrom
           Maximum rank =  0   Radius =  0.650 angstrom
                   Q00  =  -0.088103

H          x = -1.194891  y =  0.858675  z =  0.918872 angstrom
           Maximum rank =  0   Radius =  0.325 angstrom
                   Q00  =   0.081482

H          x = -1.238891  y =  2.216675  z = -0.196128 angstrom
           Maximum rank =  0   Radius =  0.325 angstrom
                   Q00  =   0.058466

H          x = -0.165891  y =  3.614675  z =  1.535872 angstrom
           Maximum rank =  0   Radius =  0.325 angstrom
                   Q00  =   0.077746

H          x =  0.616109  y =  2.767675  z = -1.462128 angstrom
           Maximum rank =  0   Radius =  0.325 angstrom
                   Q00  =   0.048712

H          x =  1.165109  y =  0.150675  z =  1.860872 angstrom
           Maximum rank =  0   Radius =  0.325 angstrom
                   Q00  =   0.057987

H          x =  2.876109  y =  2.266675  z = -2.253128 angstrom
           Maximum rank =  0   Radius =  0.325 angstrom
                   Q00  =   0.059488

H          x =  3.475109  y = -0.309325  z =  1.096872 angstrom
           Maximum rank =  0   Radius =  0.325 angstrom
                   Q00  =   0.061558

H          x =  4.316109  y =  0.738675  z = -0.981128 angstrom
           Maximum rank =  0   Radius =  0.325 angstrom
                   Q00  =   0.056844

H          x = -0.332241  y =  2.299552  z =  2.724874 angstrom
           Maximum rank =  0   Radius =  0.325 angstrom
                   Q00  =   0.079345

H          x = -1.787391  y =  3.080485  z =  2.029386 angstrom
           Maximum rank =  0   Radius =  0.325 angstrom
                   Q00  =   0.080415

C          x = -2.972891  y = -2.607325  z =  1.570872 angstrom
           Maximum rank =  0   Radius =  0.650 angstrom
                   Q00  =  -0.205060

C          x = -2.553891  y = -1.286325  z = -0.571128 angstrom
           Maximum rank =  0   Radius =  0.650 angstrom
                   Q00  =  -0.037856

C          x = -2.036891  y = -2.060325  z =  0.480872 angstrom
           Maximum rank =  0   Radius =  0.650 angstrom
                   Q00  =  -0.118911

C          x = -1.722891  y = -0.793325  z = -1.621128 angstrom
           Maximum rank =  0   Radius =  0.650 angstrom
                   Q00  =  -0.069412

C          x = -0.655891  y = -2.353325  z =  0.475872 angstrom
           Maximum rank =  0   Radius =  0.650 angstrom
                   Q00  =  -0.108057

C          x = -0.381891  y = -1.089325  z = -1.608128 angstrom
           Maximum rank =  0   Radius =  0.650 angstrom
                   Q00  =  -0.081154

C          x =  0.164109  y = -1.850325  z = -0.544128 angstrom
           Maximum rank =  0   Radius =  0.650 angstrom
                   Q00  =   0.003537

H          x = -3.602891  y = -1.047325  z = -0.581128 angstrom
           Maximum rank =  0   Radius =  0.325 angstrom
                   Q00  =   0.057143

H          x = -2.145891  y = -0.194325  z = -2.415128 angstrom
           Maximum rank =  0   Radius =  0.325 angstrom
                   Q00  =   0.064181

H          x = -2.601891  y = -3.592325  z =  1.845872 angstrom
           Maximum rank =  0   Radius =  0.325 angstrom
                   Q00  =   0.099382

H          x = -3.962891  y = -2.750325  z =  1.136872 angstrom
           Maximum rank =  0   Radius =  0.325 angstrom
                   Q00  =   0.100431

H          x = -0.218891  y = -2.940325  z =  1.270872 angstrom
           Maximum rank =  0   Radius =  0.325 angstrom
                   Q00  =   0.057590

H          x =  0.267109  y = -0.732325  z = -2.393128 angstrom
           Maximum rank =  0   Radius =  0.325 angstrom
                   Q00  =   0.066512

H          x =  1.225109  y = -2.059325  z = -0.529128 angstrom
           Maximum rank =  0   Radius =  0.325 angstrom
                   Q00  =   0.070408

H          x = -3.078551  y = -1.988329  z =  2.474021 angstrom
           Maximum rank =  0   Radius =  0.325 angstrom
                   Q00  =   0.104108

Total multipoles referred to origin at
           x =   0.000000,  y =    0.000000,  z =    0.000000 angstrom
                   Q00  =  -0.000000

Finished at 16:8:4 on 28 Apr 2020

  DMA results are available in the Python driver through the
	  variable('DMA DISTRIBUTED MULTIPOLES')
  and
	  variable('DMA TOTAL MULTIPOLES')
  commands.

    Psi4 stopped on: Tuesday, 28 April 2020 04:08PM
    Psi4 wall time for execution: 0:21:52.60

*** Psi4 exiting successfully. Buy a developer a beer!
