                               Psi4 1.3.2 release

  ==> Input File <==

--------------------------------------------------------------------------
import numpy as np
set {scf_type pk
basis cc-pvdz
d_convergence 10
gdma_switch   0
gdma_limit    0
gdma_origin   [ 0.0,  0.0,  0.0 ]
}
molecule test {
    units Angstrom
    0 1
    --
    0 1
    C                0.907605148771845    -0.781885756805366     2.623742060078442
    C                1.576605148771845     0.067114243194634     3.722742060078441
    H                1.646605148771845    -1.439885756805365     2.165742060078442
    H                0.104605148771845    -1.382885756805365     3.051742060078442
    H                0.487605148771845    -0.129885756805366     1.857742060078442
    H                0.827605148771845     0.719114243194634     4.177742060078442
    H                2.385025148771845     0.685944243194634     3.306202060078441
    H                1.996235148771845    -0.619905756805366     4.472352060078443
    C                0.462605148771845     1.944114243194635    -2.433257939921558
    C               -1.664394851228155     0.006114243194634     0.023742060078442
    C               -1.082394851228155    -1.258885756805366     0.021742060078442
    C               -1.158394851228155     1.026114243194634    -0.761257939921558
    C               -0.054394851228155     0.811114243194634    -1.567257939921558
    C                0.028605148771845    -1.491885756805365    -0.788257939921558
    C                0.532605148771845    -0.455885756805366    -1.570257939921558
    H               -2.522394851228155     0.196114243194634     0.645742060078442
    H               -1.494394851228155    -2.040885756805366     0.646742060078442
    H               -1.626394851228155     1.997114243194634    -0.744257939921558
    H                0.495605148771845    -2.465885756805366    -0.808257939921558
    H                0.509605148771845     2.832114243194634    -1.807257939921558
    H               -0.277394851228155     2.108114243194634    -3.220257939921559
    H                1.392605148771845    -0.640885756805366    -2.187257939921558
    H                1.451655148771845     1.776884243194635    -2.884717939921558

}
e, wfn = energy('scf', return_wfn=True)
gdma(wfn)
dmavals = variable('DMA DISTRIBUTED MULTIPOLES')
charges = np.array(dmavals)
print(charges)
np.save('SSI-145THR-149PHE-1-dimer.npy', np.array(charges))--------------------------------------------------------------------------

*** tstart() called on ds3
*** at Mon Apr 27 23:37:35 2020

   => Loading Basis Set <=

    Name: CC-PVDZ
    Role: ORBITAL
    Keyword: BASIS
    atoms 1-2, 9-15  entry C          line   138 file /theoryfs2/ds/metcalf/miniconda2/envs/tf2gpu/share/psi4/basis/cc-pvdz.gbs
    atoms 3-8, 16-23 entry H          line    22 file /theoryfs2/ds/metcalf/miniconda2/envs/tf2gpu/share/psi4/basis/cc-pvdz.gbs

         ---------------------------------------------------------
                                   SCF
               by Justin Turney, Rob Parrish, Andy Simmonett
                          and Daniel G. A. Smith
                              RHF Reference
                        1 Threads,    500 MiB Core
         ---------------------------------------------------------

  ==> Geometry <==

    Molecular point group: c1
    Full point group: C1

    Geometry (in Angstrom), charge = 0, multiplicity = 1:

       Center              X                  Y                   Z               Mass
    ------------   -----------------  -----------------  -----------------  -----------------
         C            0.907605148772    -0.781885756805     2.623742060078    12.000000000000
         C            1.576605148772     0.067114243195     3.722742060078    12.000000000000
         H            1.646605148772    -1.439885756805     2.165742060078     1.007825032230
         H            0.104605148772    -1.382885756805     3.051742060078     1.007825032230
         H            0.487605148772    -0.129885756805     1.857742060078     1.007825032230
         H            0.827605148772     0.719114243195     4.177742060078     1.007825032230
         H            2.385025148772     0.685944243195     3.306202060078     1.007825032230
         H            1.996235148772    -0.619905756805     4.472352060078     1.007825032230
         C            0.462605148772     1.944114243195    -2.433257939922    12.000000000000
         C           -1.664394851228     0.006114243195     0.023742060078    12.000000000000
         C           -1.082394851228    -1.258885756805     0.021742060078    12.000000000000
         C           -1.158394851228     1.026114243195    -0.761257939922    12.000000000000
         C           -0.054394851228     0.811114243195    -1.567257939922    12.000000000000
         C            0.028605148772    -1.491885756805    -0.788257939922    12.000000000000
         C            0.532605148772    -0.455885756805    -1.570257939922    12.000000000000
         H           -2.522394851228     0.196114243195     0.645742060078     1.007825032230
         H           -1.494394851228    -2.040885756805     0.646742060078     1.007825032230
         H           -1.626394851228     1.997114243195    -0.744257939922     1.007825032230
         H            0.495605148772    -2.465885756805    -0.808257939922     1.007825032230
         H            0.509605148772     2.832114243195    -1.807257939922     1.007825032230
         H           -0.277394851228     2.108114243195    -3.220257939922     1.007825032230
         H            1.392605148772    -0.640885756805    -2.187257939922     1.007825032230
         H            1.451655148772     1.776884243195    -2.884717939922     1.007825032230

  Running in c1 symmetry.

  Rotational constants: A =      0.06937  B =      0.02655  C =      0.02437 [cm^-1]
  Rotational constants: A =   2079.61019  B =    796.07879  C =    730.53599 [MHz]
  Nuclear repulsion =  413.223026965590577

  Charge       = 0
  Multiplicity = 1
  Electrons    = 68
  Nalpha       = 34
  Nbeta        = 34

  ==> Algorithm <==

  SCF Algorithm Type is PK.
  DIIS enabled.
  MOM disabled.
  Fractional occupation disabled.
  Guess Type is SAD.
  Energy threshold   = 1.00e-06
  Density threshold  = 1.00e-10
  Integral threshold = 0.00e+00

  ==> Primary Basis <==

  Basis Set: CC-PVDZ
    Blend: CC-PVDZ
    Number of shells: 96
    Number of basis function: 196
    Number of Cartesian functions: 205
    Spherical Harmonics?: true
    Max angular momentum: 2

  ==> Pre-Iterations <==

   -------------------------------------------------------
    Irrep   Nso     Nmo     Nalpha   Nbeta   Ndocc  Nsocc
   -------------------------------------------------------
     A        196     196       0       0       0       0
   -------------------------------------------------------
    Total     196     196      34      34      34       0
   -------------------------------------------------------

  ==> Integral Setup <==

  Using integral reordering PK algorithm.
  Sizing the integral batches needed.
  Building batch lookup table.
   Calculation information:
      Number of atoms:                  23
      Number of AO shells:              96
      Number of primitives:            268
      Number of atomic orbitals:       205
      Number of basis functions:       196

      Integral cutoff                 1.00e-12
      Number of threads:                 1

	Batch   1 pq = [       0,    9405] index = [             0,44231715] size =     44231715
	Batch   2 pq = [    9405,   13301] index = [      44231715,88464951] size =     44233236
	Batch   3 pq = [   13301,   16290] index = [      88464951,132690195] size =     44225244
	Batch   4 pq = [   16290,   18810] index = [     132690195,176917455] size =     44227260
	Batch   5 pq = [   18810,   19306] index = [     176917455,186370471] size =      9453016
  Task number: 17
  Buffer size: 11059200
  Buffer per thread: 2
  We computed 9756398 shell quartets total.
  Whereas there are 10841496 unique shell quartets.

  ==> DiskJK: Disk-Based J/K Matrices <==

    J tasked:                  Yes
    K tasked:                  Yes
    wK tasked:                  No
    Memory [MiB]:              375
    Schwarz Cutoff:          1E-12

    OpenMP threads:              1

  Minimum eigenvalue in the overlap matrix is 3.0380933538E-04.
  Using Symmetric Orthogonalization.

  SCF Guess: Superposition of Atomic Densities via on-the-fly atomic UHF.

  ==> Iterations <==

                        Total Energy        Delta E     RMS |[F,P]|

   @RHF iter SAD:  -347.87719032450894   -3.47877e+02   0.00000e+00
   @RHF iter   1:  -348.76598946079076   -8.88799e-01   2.88430e-03 DIIS
   @RHF iter   2:  -348.95771701486137   -1.91728e-01   1.18569e-03 DIIS
   @RHF iter   3:  -348.98716425322772   -2.94472e-02   2.57185e-04 DIIS
   @RHF iter   4:  -348.98959989364027   -2.43564e-03   5.41103e-05 DIIS
   @RHF iter   5:  -348.98967581703857   -7.59234e-05   1.85855e-05 DIIS
   @RHF iter   6:  -348.98968428695542   -8.46992e-06   5.00002e-06 DIIS
   @RHF iter   7:  -348.98968499271950   -7.05764e-07   1.22814e-06 DIIS
   @RHF iter   8:  -348.98968504753873   -5.48192e-08   3.22967e-07 DIIS
   @RHF iter   9:  -348.98968505565495   -8.11622e-09   1.41474e-07 DIIS
   @RHF iter  10:  -348.98968505761206   -1.95712e-09   6.69197e-08 DIIS
   @RHF iter  11:  -348.98968505826900   -6.56939e-10   2.33075e-08 DIIS
   @RHF iter  12:  -348.98968505833682   -6.78142e-11   8.54038e-09 DIIS
   @RHF iter  13:  -348.98968505834341   -6.59384e-12   3.59699e-09 DIIS
   @RHF iter  14:  -348.98968505834415   -7.38964e-13   8.68097e-10 DIIS
   @RHF iter  15:  -348.98968505834483   -6.82121e-13   3.86145e-10 DIIS
   @RHF iter  16:  -348.98968505834466    1.70530e-13   1.67766e-10 DIIS
   @RHF iter  17:  -348.98968505834426    3.97904e-13   6.84637e-11 DIIS
  Energy and wave function converged.

  ==> Post-Iterations <==

    Orbital Energies [Eh]
    ---------------------

    Doubly Occupied:

       1A    -11.241035     2A    -11.234978     3A    -11.232894
       4A    -11.231473     5A    -11.230348     6A    -11.229435
       7A    -11.227908     8A    -11.212921     9A    -11.206024
      10A     -1.153864    11A     -1.043592    12A     -1.012323
      13A     -1.006160    14A     -0.931956    15A     -0.828058
      16A     -0.824212    17A     -0.796816    18A     -0.691425
      19A     -0.630686    20A     -0.629219    21A     -0.590290
      22A     -0.587309    23A     -0.582276    24A     -0.578549
      25A     -0.562587    26A     -0.538034    27A     -0.498331
      28A     -0.485898    29A     -0.483465    30A     -0.481646
      31A     -0.479212    32A     -0.466874    33A     -0.333209
      34A     -0.320112

    Virtual:

      35A      0.136072    36A      0.142902    37A      0.178256
      38A      0.195282    39A      0.203612    40A      0.215047
      41A      0.235793    42A      0.245445    43A      0.262178
      44A      0.267714    45A      0.270803    46A      0.274420
      47A      0.278735    48A      0.284944    49A      0.305157
      50A      0.308389    51A      0.368528    52A      0.374433
      53A      0.400347    54A      0.452581    55A      0.462037
      56A      0.475012    57A      0.497250    58A      0.559937
      59A      0.577825    60A      0.595959    61A      0.601341
      62A      0.619172    63A      0.627070    64A      0.661727
      65A      0.672806    66A      0.681414    67A      0.703390
      68A      0.705213    69A      0.738247    70A      0.741053
      71A      0.744940    72A      0.755482    73A      0.764766
      74A      0.787332    75A      0.803625    76A      0.825975
      77A      0.846187    78A      0.854903    79A      0.858452
      80A      0.869506    81A      0.887319    82A      0.891101
      83A      0.899028    84A      0.900913    85A      0.902473
      86A      0.912516    87A      0.919515    88A      0.924251
      89A      0.933549    90A      0.941197    91A      0.951205
      92A      0.970693    93A      0.997861    94A      1.007201
      95A      1.038339    96A      1.076463    97A      1.121335
      98A      1.125567    99A      1.137132   100A      1.155262
     101A      1.158119   102A      1.182446   103A      1.198603
     104A      1.216918   105A      1.239770   106A      1.255710
     107A      1.256844   108A      1.288242   109A      1.303255
     110A      1.308700   111A      1.325592   112A      1.349768
     113A      1.418279   114A      1.477913   115A      1.488589
     116A      1.512591   117A      1.534929   118A      1.575662
     119A      1.579192   120A      1.606985   121A      1.662292
     122A      1.684394   123A      1.684762   124A      1.703098
     125A      1.736521   126A      1.748301   127A      1.781500
     128A      1.798124   129A      1.823393   130A      1.842325
     131A      1.873675   132A      1.883616   133A      1.884501
     134A      1.899974   135A      1.908388   136A      1.913470
     137A      1.917507   138A      1.929521   139A      1.945760
     140A      1.948480   141A      1.951998   142A      1.958258
     143A      1.961925   144A      1.968443   145A      1.973955
     146A      2.001524   147A      2.008755   148A      2.031219
     149A      2.040618   150A      2.066519   151A      2.090710
     152A      2.103028   153A      2.122283   154A      2.134368
     155A      2.140703   156A      2.157667   157A      2.172346
     158A      2.187412   159A      2.193851   160A      2.249708
     161A      2.268891   162A      2.281810   163A      2.298132
     164A      2.309228   165A      2.330172   166A      2.346850
     167A      2.369472   168A      2.455581   169A      2.467740
     170A      2.472974   171A      2.474803   172A      2.505999
     173A      2.534630   174A      2.565166   175A      2.588068
     176A      2.638004   177A      2.731151   178A      2.747678
     179A      2.769707   180A      2.772669   181A      2.798238
     182A      2.810404   183A      2.820956   184A      2.837015
     185A      2.850965   186A      2.855098   187A      2.861775
     188A      2.957833   189A      2.976820   190A      2.995620
     191A      3.024872   192A      3.040709   193A      3.169042
     194A      3.208228   195A      3.311313   196A      3.975716

    Final Occupation by Irrep:
              A
    DOCC [    34 ]

  @RHF Final Energy:  -348.98968505834426

   => Energetics <=

    Nuclear Repulsion Energy =            413.2230269655905772
    One-Electron Energy =               -1289.2591843479203817
    Two-Electron Energy =                 527.0464723239854266
    Total Energy =                       -348.9896850583443211

Computation Completed

Properties will be evaluated at   0.000000,   0.000000,   0.000000 [a0]

Properties computed using the SCF density matrix

  Nuclear Dipole Moment: [e a0]
     X:     5.0404      Y:     1.4954      Z:     8.1297

  Electronic Dipole Moment: [e a0]
     X:    -5.0408      Y:    -1.3770      Z:    -8.2898

  Dipole Moment: [e a0]
     X:    -0.0004      Y:     0.1185      Z:    -0.1601     Total:     0.1991

  Dipole Moment: [D]
     X:    -0.0011      Y:     0.3011      Z:    -0.4069     Total:     0.5062

*** tstop() called on ds3 at Mon Apr 27 23:39:26 2020
Module time:
	user time   =      72.54 seconds =       1.21 minutes
	system time =      33.96 seconds =       0.57 minutes
	total time  =        111 seconds =       1.85 minutes
Total time:
	user time   =      72.54 seconds =       1.21 minutes
	system time =      33.96 seconds =       0.57 minutes
	total time  =        111 seconds =       1.85 minutes
                                     G D M A

                                 by Anthony Stone

                           version 2.2.06, 22 June 2011

               Distributed Multipoles from Gaussian wavefunctions

Starting at 23:39:26 on 27 Apr 2020

Using SCF density matrix from file ./SSI/SSI-145THR-149PHE-1-dimer.test.3466.fchk

                         Distributed Multipole Analysis

Standard DMA

Positions and radii in angstrom
Multipole moments in atomic units, ea_0^k for rank k

C          x =  0.907605  y = -0.781886  z =  2.623742 angstrom
           Maximum rank =  0   Radius =  0.650 angstrom
                   Q00  =  -0.238611

C          x =  1.576605  y =  0.067114  z =  3.722742 angstrom
           Maximum rank =  0   Radius =  0.650 angstrom
                   Q00  =  -0.237869

H          x =  1.646605  y = -1.439886  z =  2.165742 angstrom
           Maximum rank =  0   Radius =  0.325 angstrom
                   Q00  =   0.075615

H          x =  0.104605  y = -1.382886  z =  3.051742 angstrom
           Maximum rank =  0   Radius =  0.325 angstrom
                   Q00  =   0.070881

H          x =  0.487605  y = -0.129886  z =  1.857742 angstrom
           Maximum rank =  0   Radius =  0.325 angstrom
                   Q00  =   0.092627

H          x =  0.827605  y =  0.719114  z =  4.177742 angstrom
           Maximum rank =  0   Radius =  0.325 angstrom
                   Q00  =   0.077864

H          x =  2.385025  y =  0.685944  z =  3.306202 angstrom
           Maximum rank =  0   Radius =  0.325 angstrom
                   Q00  =   0.079247

H          x =  1.996235  y = -0.619906  z =  4.472352 angstrom
           Maximum rank =  0   Radius =  0.325 angstrom
                   Q00  =   0.073274

C          x =  0.462605  y =  1.944114  z = -2.433258 angstrom
           Maximum rank =  0   Radius =  0.650 angstrom
                   Q00  =  -0.204761

C          x = -1.664395  y =  0.006114  z =  0.023742 angstrom
           Maximum rank =  0   Radius =  0.650 angstrom
                   Q00  =  -0.018936

C          x = -1.082395  y = -1.258886  z =  0.021742 angstrom
           Maximum rank =  0   Radius =  0.650 angstrom
                   Q00  =  -0.086783

C          x = -1.158395  y =  1.026114  z = -0.761258 angstrom
           Maximum rank =  0   Radius =  0.650 angstrom
                   Q00  =  -0.082325

C          x = -0.054395  y =  0.811114  z = -1.567258 angstrom
           Maximum rank =  0   Radius =  0.650 angstrom
                   Q00  =  -0.100507

C          x =  0.028605  y = -1.491886  z = -0.788258 angstrom
           Maximum rank =  0   Radius =  0.650 angstrom
                   Q00  =  -0.072308

C          x =  0.532605  y = -0.455886  z = -1.570258 angstrom
           Maximum rank =  0   Radius =  0.650 angstrom
                   Q00  =  -0.031625

H          x = -2.522395  y =  0.196114  z =  0.645742 angstrom
           Maximum rank =  0   Radius =  0.325 angstrom
                   Q00  =   0.061426

H          x = -1.494395  y = -2.040886  z =  0.646742 angstrom
           Maximum rank =  0   Radius =  0.325 angstrom
                   Q00  =   0.063048

H          x = -1.626395  y =  1.997114  z = -0.744258 angstrom
           Maximum rank =  0   Radius =  0.325 angstrom
                   Q00  =   0.052880

H          x =  0.495605  y = -2.465886  z = -0.808258 angstrom
           Maximum rank =  0   Radius =  0.325 angstrom
                   Q00  =   0.066000

H          x =  0.509605  y =  2.832114  z = -1.807258 angstrom
           Maximum rank =  0   Radius =  0.325 angstrom
                   Q00  =   0.099534

H          x = -0.277395  y =  2.108114  z = -3.220258 angstrom
           Maximum rank =  0   Radius =  0.325 angstrom
                   Q00  =   0.103074

H          x =  1.392605  y = -0.640886  z = -2.187258 angstrom
           Maximum rank =  0   Radius =  0.325 angstrom
                   Q00  =   0.055863

H          x =  1.451655  y =  1.776884  z = -2.884718 angstrom
           Maximum rank =  0   Radius =  0.325 angstrom
                   Q00  =   0.102390

Total multipoles referred to origin at
           x =   0.000000,  y =    0.000000,  z =    0.000000 angstrom
                   Q00  =  -0.000000

Finished at 23:39:26 on 27 Apr 2020

  DMA results are available in the Python driver through the
	  variable('DMA DISTRIBUTED MULTIPOLES')
  and
	  variable('DMA TOTAL MULTIPOLES')
  commands.

    Psi4 stopped on: Monday, 27 April 2020 11:39PM
    Psi4 wall time for execution: 0:01:51.13

*** Psi4 exiting successfully. Buy a developer a beer!
