                               Psi4 1.3.2 release

  ==> Input File <==

--------------------------------------------------------------------------
import numpy as np
set {scf_type pk
basis cc-pvdz
d_convergence 10
gdma_switch   0
gdma_limit    0
gdma_origin   [ 0.0,  0.0,  0.0 ]
}
molecule test {
    units Angstrom
    0 1
    --
    0 1
    C                1.620977406914916    -1.612205129312393    -0.978561405571631
    C               -0.573022593085083     1.254794870687607    -1.211561405571630
    C                0.457977406914917    -0.668205129312393    -0.979561405571631
    C               -0.879022593085083    -0.883205129312393    -0.750561405571631
    N                0.638977406914917     0.682794870687607    -1.238561405571631
    N               -1.505022593085084     0.347794870687607    -0.897561405571631
    H               -0.774022593085083     2.302794870687606    -1.400561405571630
    H               -2.503022593085083     0.538794870687607    -0.820561405571631
    H               -1.362022593085084    -1.814205129312393    -0.495561405571631
    H                2.330977406914916    -1.257205129312393    -0.231561405571631
    H                2.111977406914916    -1.558205129312393    -1.951561405571630
    H                1.366898406914917    -2.658205129312393    -0.751989405571631
    C                0.490977406914917     1.048794870687607     2.492438594428369
    C               -0.262022593085083    -0.182205129312393     3.013438594428370
    H                1.380977406914916     0.726794870687607     1.951438594428369
    H               -0.154022593085083     1.600794870687607     1.808438594428370
    H                0.773977406914917     1.696794870687607     3.321438594428369
    H               -0.518022593085083    -0.788205129312393     2.145438594428370
    H                0.382462406914917    -0.769515129312393     3.684041594428369
    H               -1.193653593085084     0.069854870687607     3.541195594428370

}
e, wfn = energy('scf', return_wfn=True)
gdma(wfn)
dmavals = variable('DMA DISTRIBUTED MULTIPOLES')
charges = np.array(dmavals)
print(charges)
np.save('SSI-040HIE-105LEU-1-dimer.npy', np.array(charges))--------------------------------------------------------------------------

*** tstart() called on ds3
*** at Mon Apr 27 07:28:01 2020

   => Loading Basis Set <=

    Name: CC-PVDZ
    Role: ORBITAL
    Keyword: BASIS
    atoms 1-4, 13-14  entry C          line   138 file /theoryfs2/ds/metcalf/miniconda2/envs/tf2gpu/share/psi4/basis/cc-pvdz.gbs
    atoms 5-6         entry N          line   168 file /theoryfs2/ds/metcalf/miniconda2/envs/tf2gpu/share/psi4/basis/cc-pvdz.gbs
    atoms 7-12, 15-20 entry H          line    22 file /theoryfs2/ds/metcalf/miniconda2/envs/tf2gpu/share/psi4/basis/cc-pvdz.gbs

         ---------------------------------------------------------
                                   SCF
               by Justin Turney, Rob Parrish, Andy Simmonett
                          and Daniel G. A. Smith
                              RHF Reference
                        1 Threads,    500 MiB Core
         ---------------------------------------------------------

  ==> Geometry <==

    Molecular point group: c1
    Full point group: C1

    Geometry (in Angstrom), charge = 0, multiplicity = 1:

       Center              X                  Y                   Z               Mass
    ------------   -----------------  -----------------  -----------------  -----------------
         C            1.620977406915    -1.612205129312    -0.978561405572    12.000000000000
         C           -0.573022593085     1.254794870688    -1.211561405572    12.000000000000
         C            0.457977406915    -0.668205129312    -0.979561405572    12.000000000000
         C           -0.879022593085    -0.883205129312    -0.750561405572    12.000000000000
         N            0.638977406915     0.682794870688    -1.238561405572    14.003074004430
         N           -1.505022593085     0.347794870688    -0.897561405572    14.003074004430
         H           -0.774022593085     2.302794870688    -1.400561405572     1.007825032230
         H           -2.503022593085     0.538794870688    -0.820561405572     1.007825032230
         H           -1.362022593085    -1.814205129312    -0.495561405572     1.007825032230
         H            2.330977406915    -1.257205129312    -0.231561405572     1.007825032230
         H            2.111977406915    -1.558205129312    -1.951561405572     1.007825032230
         H            1.366898406915    -2.658205129312    -0.751989405572     1.007825032230
         C            0.490977406915     1.048794870688     2.492438594428    12.000000000000
         C           -0.262022593085    -0.182205129312     3.013438594428    12.000000000000
         H            1.380977406915     0.726794870688     1.951438594428     1.007825032230
         H           -0.154022593085     1.600794870688     1.808438594428     1.007825032230
         H            0.773977406915     1.696794870688     3.321438594428     1.007825032230
         H           -0.518022593085    -0.788205129312     2.145438594428     1.007825032230
         H            0.382462406915    -0.769515129312     3.684041594428     1.007825032230
         H           -1.193653593085     0.069854870688     3.541195594428     1.007825032230

  Running in c1 symmetry.

  Rotational constants: A =      0.07588  B =      0.04224  C =      0.03555 [cm^-1]
  Rotational constants: A =   2274.81473  B =   1266.45187  C =   1065.90235 [MHz]
  Nuclear repulsion =  365.879323932901912

  Charge       = 0
  Multiplicity = 1
  Electrons    = 62
  Nalpha       = 31
  Nbeta        = 31

  ==> Algorithm <==

  SCF Algorithm Type is PK.
  DIIS enabled.
  MOM disabled.
  Fractional occupation disabled.
  Guess Type is SAD.
  Energy threshold   = 1.00e-06
  Density threshold  = 1.00e-10
  Integral threshold = 0.00e+00

  ==> Primary Basis <==

  Basis Set: CC-PVDZ
    Blend: CC-PVDZ
    Number of shells: 84
    Number of basis function: 172
    Number of Cartesian functions: 180
    Spherical Harmonics?: true
    Max angular momentum: 2

  ==> Pre-Iterations <==

   -------------------------------------------------------
    Irrep   Nso     Nmo     Nalpha   Nbeta   Ndocc  Nsocc
   -------------------------------------------------------
     A        172     172       0       0       0       0
   -------------------------------------------------------
    Total     172     172      31      31      31       0
   -------------------------------------------------------

  ==> Integral Setup <==

  Using integral reordering PK algorithm.
  Sizing the integral batches needed.
  Building batch lookup table.
   Calculation information:
      Number of atoms:                  20
      Number of AO shells:              84
      Number of primitives:            236
      Number of atomic orbitals:       180
      Number of basis functions:       172

      Integral cutoff                 1.00e-12
      Number of threads:                 1

	Batch   1 pq = [       0,    9405] index = [             0,44231715] size =     44231715
	Batch   2 pq = [    9405,   13301] index = [      44231715,88464951] size =     44233236
	Batch   3 pq = [   13301,   14878] index = [      88464951,110684881] size =     22219930
  Task number: 11
  Buffer size: 11059200
  Buffer per thread: 2
  We computed 6246654 shell quartets total.
  Whereas there are 6374235 unique shell quartets.

  ==> DiskJK: Disk-Based J/K Matrices <==

    J tasked:                  Yes
    K tasked:                  Yes
    wK tasked:                  No
    Memory [MiB]:              375
    Schwarz Cutoff:          1E-12

    OpenMP threads:              1

  Minimum eigenvalue in the overlap matrix is 1.1836172034E-03.
  Using Symmetric Orthogonalization.

  SCF Guess: Superposition of Atomic Densities via on-the-fly atomic UHF.

  ==> Iterations <==

                        Total Energy        Delta E     RMS |[F,P]|

   @RHF iter SAD:  -342.08349779546728   -3.42083e+02   0.00000e+00
   @RHF iter   1:  -342.89181938093725   -8.08322e-01   3.33275e-03 DIIS
   @RHF iter   2:  -343.06127597731211   -1.69457e-01   1.69780e-03 DIIS
   @RHF iter   3:  -343.10173587778337   -4.04599e-02   4.40544e-04 DIIS
   @RHF iter   4:  -343.10526252911586   -3.52665e-03   1.83561e-04 DIIS
   @RHF iter   5:  -343.10583867449134   -5.76145e-04   2.69926e-05 DIIS
   @RHF iter   6:  -343.10585993539405   -2.12609e-05   1.17673e-05 DIIS
   @RHF iter   7:  -343.10586348848653   -3.55309e-06   4.03526e-06 DIIS
   @RHF iter   8:  -343.10586427058632   -7.82100e-07   1.68241e-06 DIIS
   @RHF iter   9:  -343.10586443986540   -1.69279e-07   5.92459e-07 DIIS
   @RHF iter  10:  -343.10586445673169   -1.68663e-08   1.82880e-07 DIIS
   @RHF iter  11:  -343.10586445856973   -1.83803e-09   8.05799e-08 DIIS
   @RHF iter  12:  -343.10586445884059   -2.70859e-10   3.35490e-08 DIIS
   @RHF iter  13:  -343.10586445889322   -5.26370e-11   9.56773e-09 DIIS
   @RHF iter  14:  -343.10586445889879   -5.57066e-12   3.74052e-09 DIIS
   @RHF iter  15:  -343.10586445890010   -1.30740e-12   1.45180e-09 DIIS
   @RHF iter  16:  -343.10586445889993    1.70530e-13   4.65890e-10 DIIS
   @RHF iter  17:  -343.10586445889896    9.66338e-13   1.45679e-10 DIIS
   @RHF iter  18:  -343.10586445889811    8.52651e-13   5.06789e-11 DIIS
  Energy and wave function converged.

  ==> Post-Iterations <==

    Orbital Energies [Eh]
    ---------------------

    Doubly Occupied:

       1A    -15.624227     2A    -15.534100     3A    -11.298013
       4A    -11.254416     5A    -11.247485     6A    -11.224801
       7A    -11.210529     8A    -11.206536     9A     -1.334175
      10A     -1.153594    11A     -1.027527    12A     -1.007121
      13A     -0.940787    14A     -0.827406    15A     -0.818290
      16A     -0.760697    17A     -0.738386    18A     -0.609553
      19A     -0.606301    20A     -0.597076    21A     -0.586849
      22A     -0.583731    23A     -0.549853    24A     -0.538071
      25A     -0.525387    26A     -0.490240    27A     -0.477179
      28A     -0.475541    29A     -0.417528    30A     -0.378115
      31A     -0.307948

    Virtual:

      32A      0.165516    33A      0.181937    34A      0.185485
      35A      0.209754    36A      0.221562    37A      0.223007
      38A      0.231913    39A      0.255575    40A      0.265572
      41A      0.270030    42A      0.283499    43A      0.290717
      44A      0.315412    45A      0.343246    46A      0.375924
      47A      0.394208    48A      0.403851    49A      0.417113
      50A      0.478122    51A      0.491475    52A      0.589220
      53A      0.598310    54A      0.610995    55A      0.613587
      56A      0.618862    57A      0.648253    58A      0.662846
      59A      0.679829    60A      0.695876    61A      0.720942
      62A      0.747944    63A      0.772494    64A      0.799305
      65A      0.804042    66A      0.827562    67A      0.843714
      68A      0.854892    69A      0.866983    70A      0.877080
      71A      0.893838    72A      0.898419    73A      0.903558
      74A      0.912254    75A      0.922087    76A      0.940890
      77A      0.947987    78A      0.965483    79A      0.988076
      80A      1.008587    81A      1.016037    82A      1.036458
      83A      1.057651    84A      1.092830    85A      1.100937
      86A      1.112693    87A      1.130826    88A      1.152007
      89A      1.167016    90A      1.183798    91A      1.231210
      92A      1.262896    93A      1.284162    94A      1.319596
      95A      1.325621    96A      1.329262    97A      1.433173
      98A      1.437055    99A      1.470622   100A      1.475439
     101A      1.499201   102A      1.502712   103A      1.562684
     104A      1.580721   105A      1.620024   106A      1.648206
     107A      1.681518   108A      1.689271   109A      1.705341
     110A      1.754447   111A      1.766851   112A      1.791771
     113A      1.820465   114A      1.856120   115A      1.874805
     116A      1.890301   117A      1.891570   118A      1.915620
     119A      1.926022   120A      1.940114   121A      1.948806
     122A      1.957042   123A      1.959000   124A      1.969058
     125A      1.969833   126A      1.993548   127A      2.008987
     128A      2.015579   129A      2.041994   130A      2.092780
     131A      2.111880   132A      2.117561   133A      2.129527
     134A      2.139950   135A      2.142109   136A      2.190465
     137A      2.230984   138A      2.293222   139A      2.320270
     140A      2.347922   141A      2.358974   142A      2.415200
     143A      2.432250   144A      2.448278   145A      2.466878
     146A      2.480148   147A      2.484931   148A      2.522518
     149A      2.570009   150A      2.589094   151A      2.597248
     152A      2.690335   153A      2.735960   154A      2.738565
     155A      2.775265   156A      2.776627   157A      2.782079
     158A      2.805381   159A      2.814090   160A      2.842086
     161A      2.865949   162A      2.871944   163A      2.886577
     164A      2.903016   165A      2.943774   166A      2.969549
     167A      2.996981   168A      3.051829   169A      3.150089
     170A      3.242574   171A      3.446949   172A      3.775368

    Final Occupation by Irrep:
              A
    DOCC [    31 ]

  @RHF Final Energy:  -343.10586445889811

   => Energetics <=

    Nuclear Repulsion Energy =            365.8793239329019116
    One-Electron Energy =               -1189.2674510036054016
    Two-Electron Energy =                 480.2822626118053790
    Total Energy =                       -343.1058644588981110

Computation Completed

Properties will be evaluated at   0.000000,   0.000000,   0.000000 [a0]

Properties computed using the SCF density matrix

  Nuclear Dipole Moment: [e a0]
     X:     1.7298      Y:    -1.7933      Z:    10.1311

  Electronic Dipole Moment: [e a0]
     X:    -3.0399      Y:     1.6314      Z:   -10.0815

  Dipole Moment: [e a0]
     X:    -1.3101      Y:    -0.1619      Z:     0.0496     Total:     1.3210

  Dipole Moment: [D]
     X:    -3.3299      Y:    -0.4115      Z:     0.1260     Total:     3.3576

*** tstop() called on ds3 at Mon Apr 27 07:29:07 2020
Module time:
	user time   =      48.27 seconds =       0.80 minutes
	system time =      19.91 seconds =       0.33 minutes
	total time  =         66 seconds =       1.10 minutes
Total time:
	user time   =      48.27 seconds =       0.80 minutes
	system time =      19.91 seconds =       0.33 minutes
	total time  =         66 seconds =       1.10 minutes
                                     G D M A

                                 by Anthony Stone

                           version 2.2.06, 22 June 2011

               Distributed Multipoles from Gaussian wavefunctions

Starting at 7:29:7 on 27 Apr 2020

Using SCF density matrix from file ./SSI/SSI-040HIE-105LEU-1-dimer.test.13118.fchk

                         Distributed Multipole Analysis

Standard DMA

Positions and radii in angstrom
Multipole moments in atomic units, ea_0^k for rank k

C          x =  1.620977  y = -1.612205  z = -0.978561 angstrom
           Maximum rank =  0   Radius =  0.650 angstrom
                   Q00  =  -0.194400

C          x = -0.573023  y =  1.254795  z = -1.211561 angstrom
           Maximum rank =  0   Radius =  0.650 angstrom
                   Q00  =   0.454349

C          x =  0.457977  y = -0.668205  z = -0.979561 angstrom
           Maximum rank =  0   Radius =  0.650 angstrom
                   Q00  =   0.214051

C          x = -0.879023  y = -0.883205  z = -0.750561 angstrom
           Maximum rank =  0   Radius =  0.650 angstrom
                   Q00  =  -0.014550

N          x =  0.638977  y =  0.682795  z = -1.238561 angstrom
           Maximum rank =  0   Radius =  0.650 angstrom
                   Q00  =  -0.753429

N          x = -1.505023  y =  0.347795  z = -0.897561 angstrom
           Maximum rank =  0   Radius =  0.650 angstrom
                   Q00  =  -0.474200

H          x = -0.774023  y =  2.302795  z = -1.400561 angstrom
           Maximum rank =  0   Radius =  0.325 angstrom
                   Q00  =   0.123468

H          x = -2.503023  y =  0.538795  z = -0.820561 angstrom
           Maximum rank =  0   Radius =  0.325 angstrom
                   Q00  =   0.226490

H          x = -1.362023  y = -1.814205  z = -0.495561 angstrom
           Maximum rank =  0   Radius =  0.325 angstrom
                   Q00  =   0.104467

H          x =  2.330977  y = -1.257205  z = -0.231561 angstrom
           Maximum rank =  0   Radius =  0.325 angstrom
                   Q00  =   0.110807

H          x =  2.111977  y = -1.558205  z = -1.951561 angstrom
           Maximum rank =  0   Radius =  0.325 angstrom
                   Q00  =   0.113568

H          x =  1.366898  y = -2.658205  z = -0.751989 angstrom
           Maximum rank =  0   Radius =  0.325 angstrom
                   Q00  =   0.092205

C          x =  0.490977  y =  1.048795  z =  2.492439 angstrom
           Maximum rank =  0   Radius =  0.650 angstrom
                   Q00  =  -0.228507

C          x = -0.262023  y = -0.182205  z =  3.013439 angstrom
           Maximum rank =  0   Radius =  0.650 angstrom
                   Q00  =  -0.242136

H          x =  1.380977  y =  0.726795  z =  1.951439 angstrom
           Maximum rank =  0   Radius =  0.325 angstrom
                   Q00  =   0.090561

H          x = -0.154023  y =  1.600795  z =  1.808439 angstrom
           Maximum rank =  0   Radius =  0.325 angstrom
                   Q00  =   0.076602

H          x =  0.773977  y =  1.696795  z =  3.321439 angstrom
           Maximum rank =  0   Radius =  0.325 angstrom
                   Q00  =   0.071284

H          x = -0.518023  y = -0.788205  z =  2.145439 angstrom
           Maximum rank =  0   Radius =  0.325 angstrom
                   Q00  =   0.083060

H          x =  0.382462  y = -0.769515  z =  3.684042 angstrom
           Maximum rank =  0   Radius =  0.325 angstrom
                   Q00  =   0.074619

H          x = -1.193654  y =  0.069855  z =  3.541196 angstrom
           Maximum rank =  0   Radius =  0.325 angstrom
                   Q00  =   0.071691

Total multipoles referred to origin at
           x =   0.000000,  y =    0.000000,  z =    0.000000 angstrom
                   Q00  =  -0.000000

Finished at 7:29:7 on 27 Apr 2020

  DMA results are available in the Python driver through the
	  variable('DMA DISTRIBUTED MULTIPOLES')
  and
	  variable('DMA TOTAL MULTIPOLES')
  commands.

    Psi4 stopped on: Monday, 27 April 2020 07:29AM
    Psi4 wall time for execution: 0:01:06.22

*** Psi4 exiting successfully. Buy a developer a beer!
