                               Psi4 1.3.2 release

  ==> Input File <==

--------------------------------------------------------------------------
import numpy as np
set {scf_type pk
basis cc-pvdz
d_convergence 10
gdma_switch   0
gdma_limit    0
gdma_origin   [ 0.0,  0.0,  0.0 ]
}
molecule test {
    units Angstrom
    0 1
    --
    0 1
    C               -0.030531806642209    -1.529753002520454    -0.525496455829356
    C                1.050468193357790    -2.211753002520454    -1.388496455829356
    C                0.514468193357791    -0.547753002520454     0.450503544170644
    C                0.707468193357791     0.788246997479546     0.096503544170644
    C                0.851468193357791    -0.975753002520454     1.749503544170644
    C                1.233468193357791     1.693246997479546     1.036503544170644
    C                1.386468193357791    -0.084753002520454     2.693503544170644
    C                1.577468193357791     1.252246997479546     2.347503544170644
    H               -0.748531806642209    -1.033753002520454    -1.171496455829356
    H               -0.576531806642209    -2.288753002520454     0.028503544170644
    H                0.550468193357791    -2.966753002520454    -1.999496455829356
    H                0.420468193357791     1.137246997479546    -0.884496455829356
    H                0.676468193357791    -2.005753002520454     2.018503544170644
    H                1.349468193357791     2.731246997479546     0.759503544170644
    H                1.633468193357791    -0.430753002520454     3.688503544170644
    H                1.979468193357791     1.950246997479546     3.068503544170644
    H                1.834718193357791    -2.669357002520454    -0.767566455829356
    H                1.585638193357791    -1.531478002520454    -2.067336455829356
    C               -2.519531806642209     0.797246997479546    -2.316496455829356
    C               -3.890531806642209     0.970246997479546    -3.024496455829356
    H               -2.015531806642209    -0.076753002520454    -2.724496455829356
    H               -1.901531806642209     1.677246997479546    -2.489496455829356
    H               -2.664531806642209     0.669246997479546    -1.243496455829356
    H               -4.363531806642209     1.875246997479546    -2.649496455829356
    H               -4.504991806642209     0.091126997479546    -2.780416455829356
    H               -3.741111806642210     1.068216997479546    -4.109886455829356

}
e, wfn = energy('scf', return_wfn=True)
gdma(wfn)
dmavals = variable('DMA DISTRIBUTED MULTIPOLES')
charges = np.array(dmavals)
print(charges)
np.save('SSI-068PHE-080LEU-1-dimer.npy', np.array(charges))--------------------------------------------------------------------------

*** tstart() called on ds3
*** at Mon Apr 27 18:38:53 2020

   => Loading Basis Set <=

    Name: CC-PVDZ
    Role: ORBITAL
    Keyword: BASIS
    atoms 1-8, 19-20  entry C          line   138 file /theoryfs2/ds/metcalf/miniconda2/envs/tf2gpu/share/psi4/basis/cc-pvdz.gbs
    atoms 9-18, 21-26 entry H          line    22 file /theoryfs2/ds/metcalf/miniconda2/envs/tf2gpu/share/psi4/basis/cc-pvdz.gbs

         ---------------------------------------------------------
                                   SCF
               by Justin Turney, Rob Parrish, Andy Simmonett
                          and Daniel G. A. Smith
                              RHF Reference
                        1 Threads,    500 MiB Core
         ---------------------------------------------------------

  ==> Geometry <==

    Molecular point group: c1
    Full point group: C1

    Geometry (in Angstrom), charge = 0, multiplicity = 1:

       Center              X                  Y                   Z               Mass
    ------------   -----------------  -----------------  -----------------  -----------------
         C           -0.030531806642    -1.529753002520    -0.525496455829    12.000000000000
         C            1.050468193358    -2.211753002520    -1.388496455829    12.000000000000
         C            0.514468193358    -0.547753002520     0.450503544171    12.000000000000
         C            0.707468193358     0.788246997480     0.096503544171    12.000000000000
         C            0.851468193358    -0.975753002520     1.749503544171    12.000000000000
         C            1.233468193358     1.693246997480     1.036503544171    12.000000000000
         C            1.386468193358    -0.084753002520     2.693503544171    12.000000000000
         C            1.577468193358     1.252246997480     2.347503544171    12.000000000000
         H           -0.748531806642    -1.033753002520    -1.171496455829     1.007825032230
         H           -0.576531806642    -2.288753002520     0.028503544171     1.007825032230
         H            0.550468193358    -2.966753002520    -1.999496455829     1.007825032230
         H            0.420468193358     1.137246997480    -0.884496455829     1.007825032230
         H            0.676468193358    -2.005753002520     2.018503544171     1.007825032230
         H            1.349468193358     2.731246997480     0.759503544171     1.007825032230
         H            1.633468193358    -0.430753002520     3.688503544171     1.007825032230
         H            1.979468193358     1.950246997480     3.068503544171     1.007825032230
         H            1.834718193358    -2.669357002520    -0.767566455829     1.007825032230
         H            1.585638193358    -1.531478002520    -2.067336455829     1.007825032230
         C           -2.519531806642     0.797246997480    -2.316496455829    12.000000000000
         C           -3.890531806642     0.970246997480    -3.024496455829    12.000000000000
         H           -2.015531806642    -0.076753002520    -2.724496455829     1.007825032230
         H           -1.901531806642     1.677246997480    -2.489496455829     1.007825032230
         H           -2.664531806642     0.669246997480    -1.243496455829     1.007825032230
         H           -4.363531806642     1.875246997480    -2.649496455829     1.007825032230
         H           -4.504991806642     0.091126997480    -2.780416455829     1.007825032230
         H           -3.741111806642     1.068216997480    -4.109886455829     1.007825032230

  Running in c1 symmetry.

  Rotational constants: A =      0.05366  B =      0.01847  C =      0.01519 [cm^-1]
  Rotational constants: A =   1608.77852  B =    553.76121  C =    455.35170 [MHz]
  Nuclear repulsion =  481.910872456227935

  Charge       = 0
  Multiplicity = 1
  Electrons    = 76
  Nalpha       = 38
  Nbeta        = 38

  ==> Algorithm <==

  SCF Algorithm Type is PK.
  DIIS enabled.
  MOM disabled.
  Fractional occupation disabled.
  Guess Type is SAD.
  Energy threshold   = 1.00e-06
  Density threshold  = 1.00e-10
  Integral threshold = 0.00e+00

  ==> Primary Basis <==

  Basis Set: CC-PVDZ
    Blend: CC-PVDZ
    Number of shells: 108
    Number of basis function: 220
    Number of Cartesian functions: 230
    Spherical Harmonics?: true
    Max angular momentum: 2

  ==> Pre-Iterations <==

   -------------------------------------------------------
    Irrep   Nso     Nmo     Nalpha   Nbeta   Ndocc  Nsocc
   -------------------------------------------------------
     A        220     220       0       0       0       0
   -------------------------------------------------------
    Total     220     220      38      38      38       0
   -------------------------------------------------------

  ==> Integral Setup <==

  Using integral reordering PK algorithm.
  Sizing the integral batches needed.
  Building batch lookup table.
   Calculation information:
      Number of atoms:                  26
      Number of AO shells:             108
      Number of primitives:            300
      Number of atomic orbitals:       230
      Number of basis functions:       220

      Integral cutoff                 1.00e-12
      Number of threads:                 1

	Batch   1 pq = [       0,    9405] index = [             0,44231715] size =     44231715
	Batch   2 pq = [    9405,   13301] index = [      44231715,88464951] size =     44233236
	Batch   3 pq = [   13301,   16290] index = [      88464951,132690195] size =     44225244
	Batch   4 pq = [   16290,   18810] index = [     132690195,176917455] size =     44227260
	Batch   5 pq = [   18810,   21030] index = [     176917455,221140965] size =     44223510
	Batch   6 pq = [   21030,   23037] index = [     221140965,265363203] size =     44222238
	Batch   7 pq = [   23037,   24310] index = [     265363203,295500205] size =     30137002
  Task number: 27
  Buffer size: 11059200
  Buffer per thread: 2
  We computed 14611250 shell quartets total.
  Whereas there are 17325441 unique shell quartets.

  ==> DiskJK: Disk-Based J/K Matrices <==

    J tasked:                  Yes
    K tasked:                  Yes
    wK tasked:                  No
    Memory [MiB]:              375
    Schwarz Cutoff:          1E-12

    OpenMP threads:              1

  Minimum eigenvalue in the overlap matrix is 3.3150991699E-04.
  Using Symmetric Orthogonalization.

  SCF Guess: Superposition of Atomic Densities via on-the-fly atomic UHF.

  ==> Iterations <==

                        Total Energy        Delta E     RMS |[F,P]|

   @RHF iter SAD:  -386.71542554722782   -3.86715e+02   0.00000e+00
   @RHF iter   1:  -387.78147698889734   -1.06605e+00   2.67365e-03 DIIS
   @RHF iter   2:  -387.99072747379330   -2.09250e-01   1.10094e-03 DIIS
   @RHF iter   3:  -388.02309101807936   -3.23635e-02   2.48985e-04 DIIS
   @RHF iter   4:  -388.02590132963297   -2.81031e-03   6.62454e-05 DIIS
   @RHF iter   5:  -388.02603148743674   -1.30158e-04   2.13415e-05 DIIS
   @RHF iter   6:  -388.02604665411235   -1.51667e-05   3.99732e-06 DIIS
   @RHF iter   7:  -388.02604737154286   -7.17431e-07   1.21791e-06 DIIS
   @RHF iter   8:  -388.02604744577695   -7.42341e-08   4.29811e-07 DIIS
   @RHF iter   9:  -388.02604746449470   -1.87177e-08   2.16813e-07 DIIS
   @RHF iter  10:  -388.02604747091135   -6.41666e-09   1.11915e-07 DIIS
   @RHF iter  11:  -388.02604747263763   -1.72628e-09   3.43534e-08 DIIS
   @RHF iter  12:  -388.02604747275376   -1.16131e-10   1.48453e-08 DIIS
   @RHF iter  13:  -388.02604747276371   -9.94760e-12   4.88345e-09 DIIS
   @RHF iter  14:  -388.02604747276700   -3.29692e-12   1.37846e-09 DIIS
   @RHF iter  15:  -388.02604747276655    4.54747e-13   4.09973e-10 DIIS
   @RHF iter  16:  -388.02604747276723   -6.82121e-13   1.41150e-10 DIIS
   @RHF iter  17:  -388.02604747276547    1.76215e-12   7.03369e-11 DIIS
  Energy and wave function converged.

  ==> Post-Iterations <==

    Orbital Energies [Eh]
    ---------------------

    Doubly Occupied:

       1A    -11.240020     2A    -11.237233     3A    -11.236909
       4A    -11.234964     5A    -11.231499     6A    -11.231306
       7A    -11.226085     8A    -11.223661     9A    -11.222842
      10A    -11.220605    11A     -1.146106    12A     -1.059632
      13A     -1.015969    14A     -1.006198    15A     -0.975606
      16A     -0.863122    17A     -0.840293    18A     -0.822181
      19A     -0.783049    20A     -0.686509    21A     -0.636974
      22A     -0.634939    23A     -0.601013    24A     -0.599009
      25A     -0.589505    26A     -0.581163    27A     -0.569713
      28A     -0.540652    29A     -0.523179    30A     -0.500087
      31A     -0.494182    32A     -0.491383    33A     -0.489881
      34A     -0.476194    35A     -0.470535    36A     -0.467946
      37A     -0.329090    38A     -0.316127

    Virtual:

      39A      0.133351    40A      0.138923    41A      0.175547
      42A      0.190667    43A      0.201491    44A      0.209033
      45A      0.227631    46A      0.237448    47A      0.243578
      48A      0.256528    49A      0.259038    50A      0.262892
      51A      0.277411    52A      0.279694    53A      0.282967
      54A      0.302234    55A      0.317063    56A      0.339237
      57A      0.340340    58A      0.385200    59A      0.408040
      60A      0.420459    61A      0.447747    62A      0.465010
      63A      0.489869    64A      0.494122    65A      0.564641
      66A      0.594663    67A      0.597842    68A      0.598874
      69A      0.617758    70A      0.621081    71A      0.635689
      72A      0.661035    73A      0.681162    74A      0.693195
      75A      0.699568    76A      0.719739    77A      0.720571
      78A      0.736131    79A      0.743779    80A      0.745426
      81A      0.753382    82A      0.755185    83A      0.782526
      84A      0.796297    85A      0.831890    86A      0.834265
      87A      0.860258    88A      0.862754    89A      0.870773
      90A      0.881514    91A      0.890193    92A      0.891244
      93A      0.894297    94A      0.897123    95A      0.902035
      96A      0.907785    97A      0.912621    98A      0.915887
      99A      0.926858   100A      0.944209   101A      0.950773
     102A      0.964738   103A      0.973003   104A      0.980612
     105A      0.999005   106A      1.014498   107A      1.050937
     108A      1.080584   109A      1.110431   110A      1.121735
     111A      1.137993   112A      1.138581   113A      1.153295
     114A      1.172348   115A      1.210488   116A      1.223482
     117A      1.233470   118A      1.242418   119A      1.251853
     120A      1.264885   121A      1.289315   122A      1.290424
     123A      1.307814   124A      1.318590   125A      1.402085
     126A      1.420527   127A      1.454717   128A      1.470756
     129A      1.487227   130A      1.508130   131A      1.542821
     132A      1.576277   133A      1.598091   134A      1.622904
     135A      1.672185   136A      1.682195   137A      1.687736
     138A      1.690399   139A      1.730874   140A      1.733760
     141A      1.756414   142A      1.763870   143A      1.841053
     144A      1.848277   145A      1.857488   146A      1.862260
     147A      1.864621   148A      1.876217   149A      1.892503
     150A      1.901117   151A      1.903379   152A      1.913999
     153A      1.920196   154A      1.920788   155A      1.930791
     156A      1.933923   157A      1.938784   158A      1.945115
     159A      1.951944   160A      1.954767   161A      1.975338
     162A      1.978588   163A      1.985547   164A      1.990424
     165A      2.001136   166A      2.011549   167A      2.047635
     168A      2.054848   169A      2.061603   170A      2.083077
     171A      2.099642   172A      2.117985   173A      2.124850
     174A      2.142867   175A      2.151002   176A      2.154569
     177A      2.161010   178A      2.186683   179A      2.234743
     180A      2.243205   181A      2.269476   182A      2.287653
     183A      2.301610   184A      2.312623   185A      2.332152
     186A      2.341039   187A      2.395485   188A      2.449943
     189A      2.452850   190A      2.477115   191A      2.479773
     192A      2.493401   193A      2.505023   194A      2.529990
     195A      2.560007   196A      2.578949   197A      2.585453
     198A      2.640247   199A      2.737089   200A      2.748694
     201A      2.759961   202A      2.766940   203A      2.771193
     204A      2.790698   205A      2.800139   206A      2.828473
     207A      2.835474   208A      2.843934   209A      2.888343
     210A      2.926990   211A      2.942146   212A      2.949719
     213A      2.970422   214A      2.986741   215A      3.013072
     216A      3.049985   217A      3.182022   218A      3.188200
     219A      3.289239   220A      3.932256

    Final Occupation by Irrep:
              A
    DOCC [    38 ]

  @RHF Final Energy:  -388.02604747276547

   => Energetics <=

    Nuclear Repulsion Energy =            481.9108724562279349
    One-Electron Energy =               -1478.2431154950304517
    Two-Electron Energy =                 608.3061955660369904
    Total Energy =                       -388.0260474727655264

Computation Completed

Properties will be evaluated at   0.000000,   0.000000,   0.000000 [a0]

Properties computed using the SCF density matrix

  Nuclear Dipole Moment: [e a0]
     X:    -9.8304      Y:    -1.6908      Z:   -12.4910

  Electronic Dipole Moment: [e a0]
     X:     9.7322      Y:     1.6353      Z:    12.3871

  Dipole Moment: [e a0]
     X:    -0.0982      Y:    -0.0555      Z:    -0.1039     Total:     0.1534

  Dipole Moment: [D]
     X:    -0.2497      Y:    -0.1410      Z:    -0.2641     Total:     0.3898

*** tstop() called on ds3 at Mon Apr 27 18:41:35 2020
Module time:
	user time   =      99.93 seconds =       1.67 minutes
	system time =      42.66 seconds =       0.71 minutes
	total time  =        162 seconds =       2.70 minutes
Total time:
	user time   =      99.93 seconds =       1.67 minutes
	system time =      42.66 seconds =       0.71 minutes
	total time  =        162 seconds =       2.70 minutes
                                     G D M A

                                 by Anthony Stone

                           version 2.2.06, 22 June 2011

               Distributed Multipoles from Gaussian wavefunctions

Starting at 18:41:35 on 27 Apr 2020

Using SCF density matrix from file ./SSI/SSI-068PHE-080LEU-1-dimer.test.27034.fchk

                         Distributed Multipole Analysis

Standard DMA

Positions and radii in angstrom
Multipole moments in atomic units, ea_0^k for rank k

C          x = -0.030532  y = -1.529753  z = -0.525496 angstrom
           Maximum rank =  0   Radius =  0.650 angstrom
                   Q00  =  -0.026521

C          x =  1.050468  y = -2.211753  z = -1.388496 angstrom
           Maximum rank =  0   Radius =  0.650 angstrom
                   Q00  =  -0.262648

C          x =  0.514468  y = -0.547753  z =  0.450504 angstrom
           Maximum rank =  0   Radius =  0.650 angstrom
                   Q00  =  -0.093451

C          x =  0.707468  y =  0.788247  z =  0.096504 angstrom
           Maximum rank =  0   Radius =  0.650 angstrom
                   Q00  =  -0.091051

C          x =  0.851468  y = -0.975753  z =  1.749504 angstrom
           Maximum rank =  0   Radius =  0.650 angstrom
                   Q00  =  -0.001236

C          x =  1.233468  y =  1.693247  z =  1.036504 angstrom
           Maximum rank =  0   Radius =  0.650 angstrom
                   Q00  =  -0.069760

C          x =  1.386468  y = -0.084753  z =  2.693504 angstrom
           Maximum rank =  0   Radius =  0.650 angstrom
                   Q00  =  -0.080890

C          x =  1.577468  y =  1.252247  z =  2.347504 angstrom
           Maximum rank =  0   Radius =  0.650 angstrom
                   Q00  =  -0.091741

H          x = -0.748532  y = -1.033753  z = -1.171496 angstrom
           Maximum rank =  0   Radius =  0.325 angstrom
                   Q00  =   0.079127

H          x = -0.576532  y = -2.288753  z =  0.028504 angstrom
           Maximum rank =  0   Radius =  0.325 angstrom
                   Q00  =   0.066860

H          x =  0.550468  y = -2.966753  z = -1.999496 angstrom
           Maximum rank =  0   Radius =  0.325 angstrom
                   Q00  =   0.080201

H          x =  0.420468  y =  1.137247  z = -0.884496 angstrom
           Maximum rank =  0   Radius =  0.325 angstrom
                   Q00  =   0.061124

H          x =  0.676468  y = -2.005753  z =  2.018504 angstrom
           Maximum rank =  0   Radius =  0.325 angstrom
                   Q00  =   0.056644

H          x =  1.349468  y =  2.731247  z =  0.759504 angstrom
           Maximum rank =  0   Radius =  0.325 angstrom
                   Q00  =   0.068662

H          x =  1.633468  y = -0.430753  z =  3.688504 angstrom
           Maximum rank =  0   Radius =  0.325 angstrom
                   Q00  =   0.066980

H          x =  1.979468  y =  1.950247  z =  3.068504 angstrom
           Maximum rank =  0   Radius =  0.325 angstrom
                   Q00  =   0.065620

H          x =  1.834718  y = -2.669357  z = -0.767566 angstrom
           Maximum rank =  0   Radius =  0.325 angstrom
                   Q00  =   0.086458

H          x =  1.585638  y = -1.531478  z = -2.067336 angstrom
           Maximum rank =  0   Radius =  0.325 angstrom
                   Q00  =   0.084535

C          x = -2.519532  y =  0.797247  z = -2.316496 angstrom
           Maximum rank =  0   Radius =  0.650 angstrom
                   Q00  =  -0.264015

C          x = -3.890532  y =  0.970247  z = -3.024496 angstrom
           Maximum rank =  0   Radius =  0.650 angstrom
                   Q00  =  -0.224578

H          x = -2.015532  y = -0.076753  z = -2.724496 angstrom
           Maximum rank =  0   Radius =  0.325 angstrom
                   Q00  =   0.076305

H          x = -1.901532  y =  1.677247  z = -2.489496 angstrom
           Maximum rank =  0   Radius =  0.325 angstrom
                   Q00  =   0.081069

H          x = -2.664532  y =  0.669247  z = -1.243496 angstrom
           Maximum rank =  0   Radius =  0.325 angstrom
                   Q00  =   0.085028

H          x = -4.363532  y =  1.875247  z = -2.649496 angstrom
           Maximum rank =  0   Radius =  0.325 angstrom
                   Q00  =   0.083891

H          x = -4.504992  y =  0.091127  z = -2.780416 angstrom
           Maximum rank =  0   Radius =  0.325 angstrom
                   Q00  =   0.080954

H          x = -3.741112  y =  1.068217  z = -4.109886 angstrom
           Maximum rank =  0   Radius =  0.325 angstrom
                   Q00  =   0.082432

Total multipoles referred to origin at
           x =   0.000000,  y =    0.000000,  z =    0.000000 angstrom
                   Q00  =  -0.000000

Finished at 18:41:35 on 27 Apr 2020

  DMA results are available in the Python driver through the
	  variable('DMA DISTRIBUTED MULTIPOLES')
  and
	  variable('DMA TOTAL MULTIPOLES')
  commands.

    Psi4 stopped on: Monday, 27 April 2020 06:41PM
    Psi4 wall time for execution: 0:02:42.14

*** Psi4 exiting successfully. Buy a developer a beer!
