                               Psi4 1.3.2 release

  ==> Input File <==

--------------------------------------------------------------------------
import numpy as np
set {scf_type pk
basis cc-pvdz
d_convergence 10
gdma_switch   0
gdma_limit    0
gdma_origin   [ 0.0,  0.0,  0.0 ]
}
molecule test {
    units Angstrom
    0 1
    --
    0 1
    C               -0.791098643143364    -3.016326542481626     0.853609961351601
    C               -2.056098643143364    -3.777326542481627     1.271609961351601
    H               -1.078098643143364    -2.111326542481626     0.318609961351601
    H               -0.212098643143364    -2.733326542481626     1.728609961351601
    H               -0.186098643143364    -3.636326542481627     0.192609961351601
    H               -2.628098643143364    -3.146326542481626     1.943609961351601
    H               -1.811819643143364    -4.708324542481626     1.804119961351601
    H               -2.676266643143364    -4.007716542481625     0.392799961351601
    C               -0.710098643143364     1.140673457518374     1.793609961351601
    C                0.945901356856636     0.126673457518374     0.192609961351601
    C               -0.024098643143364     1.091673457518374     0.461609961351601
    C                1.638901356856636     0.133673457518374    -1.012390038648399
    C                1.383901356856636     1.106673457518374    -1.955390038648399
    C               -0.263098643143364     2.077673457518374    -0.484390038648399
    C                0.430901356856636     2.074673457518374    -1.694390038648399
    H                1.156901356856636    -0.646326542481626     0.915609961351601
    H                2.373901356856636    -0.631326542481626    -1.212390038648399
    H               -0.861098643143364     0.122673457518374     2.155609961351601
    H               -1.697098643143364     1.591673457518374     1.678609961351601
    H                1.930901356856636     1.124673457518374    -2.888390038648399
    H               -1.002098643143364     2.834673457518374    -0.294390038648399
    H                0.215901356856636     2.825673457518374    -2.441390038648399
    H               -0.134454643143364     1.714163457518374     2.535059961351601

}
e, wfn = energy('scf', return_wfn=True)
gdma(wfn)
dmavals = variable('DMA DISTRIBUTED MULTIPOLES')
charges = np.array(dmavals)
print(charges)
np.save('SSI-097LEU-111PHE-1-dimer.npy', np.array(charges))--------------------------------------------------------------------------

*** tstart() called on ds3
*** at Mon Apr 27 23:49:36 2020

   => Loading Basis Set <=

    Name: CC-PVDZ
    Role: ORBITAL
    Keyword: BASIS
    atoms 1-2, 9-15  entry C          line   138 file /theoryfs2/ds/metcalf/miniconda2/envs/tf2gpu/share/psi4/basis/cc-pvdz.gbs
    atoms 3-8, 16-23 entry H          line    22 file /theoryfs2/ds/metcalf/miniconda2/envs/tf2gpu/share/psi4/basis/cc-pvdz.gbs

         ---------------------------------------------------------
                                   SCF
               by Justin Turney, Rob Parrish, Andy Simmonett
                          and Daniel G. A. Smith
                              RHF Reference
                        1 Threads,    500 MiB Core
         ---------------------------------------------------------

  ==> Geometry <==

    Molecular point group: c1
    Full point group: C1

    Geometry (in Angstrom), charge = 0, multiplicity = 1:

       Center              X                  Y                   Z               Mass
    ------------   -----------------  -----------------  -----------------  -----------------
         C           -0.791098643143    -3.016326542482     0.853609961352    12.000000000000
         C           -2.056098643143    -3.777326542482     1.271609961352    12.000000000000
         H           -1.078098643143    -2.111326542482     0.318609961352     1.007825032230
         H           -0.212098643143    -2.733326542482     1.728609961352     1.007825032230
         H           -0.186098643143    -3.636326542482     0.192609961352     1.007825032230
         H           -2.628098643143    -3.146326542482     1.943609961352     1.007825032230
         H           -1.811819643143    -4.708324542482     1.804119961352     1.007825032230
         H           -2.676266643143    -4.007716542482     0.392799961352     1.007825032230
         C           -0.710098643143     1.140673457518     1.793609961352    12.000000000000
         C            0.945901356857     0.126673457518     0.192609961352    12.000000000000
         C           -0.024098643143     1.091673457518     0.461609961352    12.000000000000
         C            1.638901356857     0.133673457518    -1.012390038648    12.000000000000
         C            1.383901356857     1.106673457518    -1.955390038648    12.000000000000
         C           -0.263098643143     2.077673457518    -0.484390038648    12.000000000000
         C            0.430901356857     2.074673457518    -1.694390038648    12.000000000000
         H            1.156901356857    -0.646326542482     0.915609961352     1.007825032230
         H            2.373901356857    -0.631326542482    -1.212390038648     1.007825032230
         H           -0.861098643143     0.122673457518     2.155609961352     1.007825032230
         H           -1.697098643143     1.591673457518     1.678609961352     1.007825032230
         H            1.930901356857     1.124673457518    -2.888390038648     1.007825032230
         H           -1.002098643143     2.834673457518    -0.294390038648     1.007825032230
         H            0.215901356857     2.825673457518    -2.441390038648     1.007825032230
         H           -0.134454643143     1.714163457518     2.535059961352     1.007825032230

  Running in c1 symmetry.

  Rotational constants: A =      0.07619  B =      0.02314  C =      0.01981 [cm^-1]
  Rotational constants: A =   2284.00381  B =    693.65323  C =    593.78344 [MHz]
  Nuclear repulsion =  405.421347671986268

  Charge       = 0
  Multiplicity = 1
  Electrons    = 68
  Nalpha       = 34
  Nbeta        = 34

  ==> Algorithm <==

  SCF Algorithm Type is PK.
  DIIS enabled.
  MOM disabled.
  Fractional occupation disabled.
  Guess Type is SAD.
  Energy threshold   = 1.00e-06
  Density threshold  = 1.00e-10
  Integral threshold = 0.00e+00

  ==> Primary Basis <==

  Basis Set: CC-PVDZ
    Blend: CC-PVDZ
    Number of shells: 96
    Number of basis function: 196
    Number of Cartesian functions: 205
    Spherical Harmonics?: true
    Max angular momentum: 2

  ==> Pre-Iterations <==

   -------------------------------------------------------
    Irrep   Nso     Nmo     Nalpha   Nbeta   Ndocc  Nsocc
   -------------------------------------------------------
     A        196     196       0       0       0       0
   -------------------------------------------------------
    Total     196     196      34      34      34       0
   -------------------------------------------------------

  ==> Integral Setup <==

  Using integral reordering PK algorithm.
  Sizing the integral batches needed.
  Building batch lookup table.
   Calculation information:
      Number of atoms:                  23
      Number of AO shells:              96
      Number of primitives:            268
      Number of atomic orbitals:       205
      Number of basis functions:       196

      Integral cutoff                 1.00e-12
      Number of threads:                 1

	Batch   1 pq = [       0,    9405] index = [             0,44231715] size =     44231715
	Batch   2 pq = [    9405,   13301] index = [      44231715,88464951] size =     44233236
	Batch   3 pq = [   13301,   16290] index = [      88464951,132690195] size =     44225244
	Batch   4 pq = [   16290,   18810] index = [     132690195,176917455] size =     44227260
	Batch   5 pq = [   18810,   19306] index = [     176917455,186370471] size =      9453016
  Task number: 17
  Buffer size: 11059200
  Buffer per thread: 2
  We computed 9202233 shell quartets total.
  Whereas there are 10841496 unique shell quartets.

  ==> DiskJK: Disk-Based J/K Matrices <==

    J tasked:                  Yes
    K tasked:                  Yes
    wK tasked:                  No
    Memory [MiB]:              375
    Schwarz Cutoff:          1E-12

    OpenMP threads:              1

  Minimum eigenvalue in the overlap matrix is 3.0056786396E-04.
  Using Symmetric Orthogonalization.

  SCF Guess: Superposition of Atomic Densities via on-the-fly atomic UHF.

  ==> Iterations <==

                        Total Energy        Delta E     RMS |[F,P]|

   @RHF iter SAD:  -347.92463002977627   -3.47925e+02   0.00000e+00
   @RHF iter   1:  -348.76668011507979   -8.42050e-01   2.90539e-03 DIIS
   @RHF iter   2:  -348.96042208095872   -1.93742e-01   1.20508e-03 DIIS
   @RHF iter   3:  -348.99078416692180   -3.03621e-02   2.58894e-04 DIIS
   @RHF iter   4:  -348.99326771340628   -2.48355e-03   5.18017e-05 DIIS
   @RHF iter   5:  -348.99333965527586   -7.19419e-05   1.72311e-05 DIIS
   @RHF iter   6:  -348.99334694626793   -7.29099e-06   4.73734e-06 DIIS
   @RHF iter   7:  -348.99334758318105   -6.36913e-07   1.30309e-06 DIIS
   @RHF iter   8:  -348.99334763801284   -5.48318e-08   3.24217e-07 DIIS
   @RHF iter   9:  -348.99334764501867   -7.00584e-09   1.45853e-07 DIIS
   @RHF iter  10:  -348.99334764662382   -1.60514e-09   6.78983e-08 DIIS
   @RHF iter  11:  -348.99334764719083   -5.67013e-10   2.48313e-08 DIIS
   @RHF iter  12:  -348.99334764726143   -7.05995e-11   9.77030e-09 DIIS
   @RHF iter  13:  -348.99334764726802   -6.59384e-12   3.61933e-09 DIIS
   @RHF iter  14:  -348.99334764726996   -1.93268e-12   8.29172e-10 DIIS
   @RHF iter  15:  -348.99334764726791    2.04636e-12   3.87480e-10 DIIS
   @RHF iter  16:  -348.99334764726973   -1.81899e-12   1.57015e-10 DIIS
   @RHF iter  17:  -348.99334764726945    2.84217e-13   6.59473e-11 DIIS
  Energy and wave function converged.

  ==> Post-Iterations <==

    Orbital Energies [Eh]
    ---------------------

    Doubly Occupied:

       1A    -11.238174     2A    -11.233210     3A    -11.232243
       4A    -11.228581     5A    -11.228256     6A    -11.228194
       7A    -11.227853     8A    -11.218204     9A    -11.215688
      10A     -1.154651    11A     -1.046891    12A     -1.016366
      13A     -1.010544    14A     -0.931852    15A     -0.837772
      16A     -0.825416    17A     -0.794252    18A     -0.691822
      19A     -0.632085    20A     -0.628864    21A     -0.598357
      22A     -0.595248    23A     -0.580757    24A     -0.577722
      25A     -0.563864    26A     -0.534655    27A     -0.500189
      28A     -0.489482    29A     -0.487498    30A     -0.483867
      31A     -0.481917    32A     -0.479516    33A     -0.330784
      34A     -0.323017

    Virtual:

      35A      0.137206    36A      0.142603    37A      0.171198
      38A      0.191827    39A      0.207140    40A      0.214683
      41A      0.238099    42A      0.239447    43A      0.255700
      44A      0.260138    45A      0.264984    46A      0.272739
      47A      0.286710    48A      0.290047    49A      0.309949
      50A      0.326471    51A      0.364525    52A      0.375798
      53A      0.406904    54A      0.455171    55A      0.466954
      56A      0.483402    57A      0.491248    58A      0.557453
      59A      0.589900    60A      0.596179    61A      0.604310
      62A      0.613779    63A      0.650121    64A      0.673449
      65A      0.681595    66A      0.689395    67A      0.697160
      68A      0.717736    69A      0.724234    70A      0.740448
      71A      0.744791    72A      0.751313    73A      0.757268
      74A      0.778780    75A      0.780676    76A      0.806649
      77A      0.823367    78A      0.852044    79A      0.865076
      80A      0.867239    81A      0.879734    82A      0.885222
      83A      0.890230    84A      0.894203    85A      0.897860
      86A      0.900408    87A      0.914977    88A      0.916473
      89A      0.922513    90A      0.949066    91A      0.974525
      92A      0.985879    93A      0.996766    94A      1.006403
      95A      1.025853    96A      1.052941    97A      1.126393
      98A      1.128554    99A      1.139859   100A      1.143461
     101A      1.155205   102A      1.163203   103A      1.188198
     104A      1.226392   105A      1.243026   106A      1.246921
     107A      1.257122   108A      1.262011   109A      1.303577
     110A      1.310220   111A      1.329040   112A      1.340608
     113A      1.417445   114A      1.472752   115A      1.482126
     116A      1.515506   117A      1.528929   118A      1.569823
     119A      1.587176   120A      1.612078   121A      1.666878
     122A      1.684527   123A      1.695500   124A      1.701204
     125A      1.740318   126A      1.746454   127A      1.763294
     128A      1.793294   129A      1.812467   130A      1.860207
     131A      1.867812   132A      1.876245   133A      1.891988
     134A      1.897941   135A      1.913324   136A      1.914093
     137A      1.917321   138A      1.922780   139A      1.942636
     140A      1.944962   141A      1.949549   142A      1.951184
     143A      1.958517   144A      1.973615   145A      1.980390
     146A      1.993528   147A      1.998072   148A      2.024798
     149A      2.048693   150A      2.070024   151A      2.076431
     152A      2.095812   153A      2.113069   154A      2.117778
     155A      2.144901   156A      2.163876   157A      2.170260
     158A      2.178540   159A      2.184504   160A      2.265072
     161A      2.285938   162A      2.290925   163A      2.303109
     164A      2.305518   165A      2.323000   166A      2.325430
     167A      2.335436   168A      2.460189   169A      2.466952
     170A      2.468968   171A      2.491948   172A      2.503372
     173A      2.546250   174A      2.557538   175A      2.578769
     176A      2.629306   177A      2.742118   178A      2.762693
     179A      2.765015   180A      2.772847   181A      2.795184
     182A      2.801740   183A      2.823483   184A      2.844738
     185A      2.858920   186A      2.864260   187A      2.888020
     188A      2.953170   189A      2.963335   190A      2.998764
     191A      3.021692   192A      3.029949   193A      3.160483
     194A      3.212904   195A      3.312938   196A      3.988073

    Final Occupation by Irrep:
              A
    DOCC [    34 ]

  @RHF Final Energy:  -348.99334764726945

   => Energetics <=

    Nuclear Repulsion Energy =            405.4213476719862683
    One-Electron Energy =               -1273.5338226800558914
    Two-Electron Energy =                 519.1191273608002348
    Total Energy =                       -348.9933476472693883

Computation Completed

Properties will be evaluated at   0.000000,   0.000000,   0.000000 [a0]

Properties computed using the SCF density matrix

  Nuclear Dipole Moment: [e a0]
     X:    -6.1963      Y:   -10.6942      Z:     6.4017

  Electronic Dipole Moment: [e a0]
     X:     6.1542      Y:    10.7231      Z:    -6.3115

  Dipole Moment: [e a0]
     X:    -0.0422      Y:     0.0290      Z:     0.0902     Total:     0.1037

  Dipole Moment: [D]
     X:    -0.1072      Y:     0.0737      Z:     0.2292     Total:     0.2635

*** tstop() called on ds3 at Mon Apr 27 23:51:11 2020
Module time:
	user time   =      67.31 seconds =       1.12 minutes
	system time =      33.62 seconds =       0.56 minutes
	total time  =         95 seconds =       1.58 minutes
Total time:
	user time   =      67.31 seconds =       1.12 minutes
	system time =      33.62 seconds =       0.56 minutes
	total time  =         95 seconds =       1.58 minutes
                                     G D M A

                                 by Anthony Stone

                           version 2.2.06, 22 June 2011

               Distributed Multipoles from Gaussian wavefunctions

Starting at 23:51:11 on 27 Apr 2020

Using SCF density matrix from file ./SSI/SSI-097LEU-111PHE-1-dimer.test.4224.fchk

                         Distributed Multipole Analysis

Standard DMA

Positions and radii in angstrom
Multipole moments in atomic units, ea_0^k for rank k

C          x = -0.791099  y = -3.016327  z =  0.853610 angstrom
           Maximum rank =  0   Radius =  0.650 angstrom
                   Q00  =  -0.242662

C          x = -2.056099  y = -3.777327  z =  1.271610 angstrom
           Maximum rank =  0   Radius =  0.650 angstrom
                   Q00  =  -0.238319

H          x = -1.078099  y = -2.111327  z =  0.318610 angstrom
           Maximum rank =  0   Radius =  0.325 angstrom
                   Q00  =   0.088533

H          x = -0.212099  y = -2.733327  z =  1.728610 angstrom
           Maximum rank =  0   Radius =  0.325 angstrom
                   Q00  =   0.073864

H          x = -0.186099  y = -3.636327  z =  0.192610 angstrom
           Maximum rank =  0   Radius =  0.325 angstrom
                   Q00  =   0.080633

H          x = -2.628099  y = -3.146327  z =  1.943610 angstrom
           Maximum rank =  0   Radius =  0.325 angstrom
                   Q00  =   0.077328

H          x = -1.811820  y = -4.708325  z =  1.804120 angstrom
           Maximum rank =  0   Radius =  0.325 angstrom
                   Q00  =   0.078509

H          x = -2.676267  y = -4.007717  z =  0.392800 angstrom
           Maximum rank =  0   Radius =  0.325 angstrom
                   Q00  =   0.081251

C          x = -0.710099  y =  1.140673  z =  1.793610 angstrom
           Maximum rank =  0   Radius =  0.650 angstrom
                   Q00  =  -0.203964

C          x =  0.945901  y =  0.126673  z =  0.192610 angstrom
           Maximum rank =  0   Radius =  0.650 angstrom
                   Q00  =  -0.026847

C          x = -0.024099  y =  1.091673  z =  0.461610 angstrom
           Maximum rank =  0   Radius =  0.650 angstrom
                   Q00  =  -0.100956

C          x =  1.638901  y =  0.133673  z = -1.012390 angstrom
           Maximum rank =  0   Radius =  0.650 angstrom
                   Q00  =  -0.076624

C          x =  1.383901  y =  1.106673  z = -1.955390 angstrom
           Maximum rank =  0   Radius =  0.650 angstrom
                   Q00  =  -0.075477

C          x = -0.263099  y =  2.077673  z = -0.484390 angstrom
           Maximum rank =  0   Radius =  0.650 angstrom
                   Q00  =  -0.088381

C          x =  0.430901  y =  2.074673  z = -1.694390 angstrom
           Maximum rank =  0   Radius =  0.650 angstrom
                   Q00  =  -0.024570

H          x =  1.156901  y = -0.646327  z =  0.915610 angstrom
           Maximum rank =  0   Radius =  0.325 angstrom
                   Q00  =   0.057024

H          x =  2.373901  y = -0.631327  z = -1.212390 angstrom
           Maximum rank =  0   Radius =  0.325 angstrom
                   Q00  =   0.062253

H          x = -0.861099  y =  0.122673  z =  2.155610 angstrom
           Maximum rank =  0   Radius =  0.325 angstrom
                   Q00  =   0.097782

H          x = -1.697099  y =  1.591673  z =  1.678610 angstrom
           Maximum rank =  0   Radius =  0.325 angstrom
                   Q00  =   0.097564

H          x =  1.930901  y =  1.124673  z = -2.888390 angstrom
           Maximum rank =  0   Radius =  0.325 angstrom
                   Q00  =   0.059372

H          x = -1.002099  y =  2.834673  z = -0.294390 angstrom
           Maximum rank =  0   Radius =  0.325 angstrom
                   Q00  =   0.055408

H          x =  0.215901  y =  2.825673  z = -2.441390 angstrom
           Maximum rank =  0   Radius =  0.325 angstrom
                   Q00  =   0.062733

H          x = -0.134455  y =  1.714163  z =  2.535060 angstrom
           Maximum rank =  0   Radius =  0.325 angstrom
                   Q00  =   0.105544

Total multipoles referred to origin at
           x =   0.000000,  y =    0.000000,  z =    0.000000 angstrom
                   Q00  =  -0.000000

Finished at 23:51:12 on 27 Apr 2020

  DMA results are available in the Python driver through the
	  variable('DMA DISTRIBUTED MULTIPOLES')
  and
	  variable('DMA TOTAL MULTIPOLES')
  commands.

    Psi4 stopped on: Monday, 27 April 2020 11:51PM
    Psi4 wall time for execution: 0:01:35.97

*** Psi4 exiting successfully. Buy a developer a beer!
