                               Psi4 1.3.2 release

  ==> Input File <==

--------------------------------------------------------------------------
import numpy as np
set {scf_type pk
basis cc-pvdz
d_convergence 10
gdma_switch   0
gdma_limit    0
gdma_origin   [ 0.0,  0.0,  0.0 ]
}
molecule test {
    units Angstrom
    0 1
    --
    0 1
    C               -2.890713635499885     0.257692326956705     1.076448860566045
    C               -1.397713635499885     0.501692326956705     0.914448860566045
    O               -0.952713635499885     1.062692326956705    -0.084551139433955
    N               -0.610713635499885     0.099692326956705     1.911448860566045
    H               -3.272713635499885     0.950692326956705     1.827448860566045
    H               -3.036713635499884    -0.747307673043295     1.473448860566045
    H                0.380286364500115     0.266692326956705     1.837448860566045
    H               -1.002713635499885    -0.326307673043295     2.739448860566045
    H               -3.458183635499885     0.346091326956705     0.138278860566045
    C                1.673286364500115    -0.990307673043295    -0.871551139433955
    C                1.238286364500115    -0.958307673043295    -2.323551139433955
    O                2.580286364500116     0.073692326956705    -0.641551139433955
    H                0.806286364500115    -0.898307673043295    -0.220551139433955
    H                2.170286364500115    -1.940307673043295    -0.665551139433955
    H                2.135286364500115    -1.044307673043295    -2.941551139433955
    H                3.001286364500116    -0.059307673043295     0.220448860566045
    H                0.748936364500115    -0.000727673043295    -2.555031139433956
    H                0.576636364500115    -1.807345373043295    -2.550151139433955

}
e, wfn = energy('scf', return_wfn=True)
gdma(wfn)
dmavals = variable('DMA DISTRIBUTED MULTIPOLES')
charges = np.array(dmavals)
print(charges)
np.save('SSI-081ASN-085SER-1-dimer.npy', np.array(charges))--------------------------------------------------------------------------

*** tstart() called on ds3
*** at Mon Apr 27 17:32:14 2020

   => Loading Basis Set <=

    Name: CC-PVDZ
    Role: ORBITAL
    Keyword: BASIS
    atoms 1-2, 10-11 entry C          line   138 file /theoryfs2/ds/metcalf/miniconda2/envs/tf2gpu/share/psi4/basis/cc-pvdz.gbs
    atoms 3, 12      entry O          line   198 file /theoryfs2/ds/metcalf/miniconda2/envs/tf2gpu/share/psi4/basis/cc-pvdz.gbs
    atoms 4          entry N          line   168 file /theoryfs2/ds/metcalf/miniconda2/envs/tf2gpu/share/psi4/basis/cc-pvdz.gbs
    atoms 5-9, 13-18 entry H          line    22 file /theoryfs2/ds/metcalf/miniconda2/envs/tf2gpu/share/psi4/basis/cc-pvdz.gbs

         ---------------------------------------------------------
                                   SCF
               by Justin Turney, Rob Parrish, Andy Simmonett
                          and Daniel G. A. Smith
                              RHF Reference
                        1 Threads,    500 MiB Core
         ---------------------------------------------------------

  ==> Geometry <==

    Molecular point group: c1
    Full point group: C1

    Geometry (in Angstrom), charge = 0, multiplicity = 1:

       Center              X                  Y                   Z               Mass
    ------------   -----------------  -----------------  -----------------  -----------------
         C           -2.890713635500     0.257692326957     1.076448860566    12.000000000000
         C           -1.397713635500     0.501692326957     0.914448860566    12.000000000000
         O           -0.952713635500     1.062692326957    -0.084551139434    15.994914619570
         N           -0.610713635500     0.099692326957     1.911448860566    14.003074004430
         H           -3.272713635500     0.950692326957     1.827448860566     1.007825032230
         H           -3.036713635500    -0.747307673043     1.473448860566     1.007825032230
         H            0.380286364500     0.266692326957     1.837448860566     1.007825032230
         H           -1.002713635500    -0.326307673043     2.739448860566     1.007825032230
         H           -3.458183635500     0.346091326957     0.138278860566     1.007825032230
         C            1.673286364500    -0.990307673043    -0.871551139434    12.000000000000
         C            1.238286364500    -0.958307673043    -2.323551139434    12.000000000000
         O            2.580286364500     0.073692326957    -0.641551139434    15.994914619570
         H            0.806286364500    -0.898307673043    -0.220551139434     1.007825032230
         H            2.170286364500    -1.940307673043    -0.665551139434     1.007825032230
         H            2.135286364500    -1.044307673043    -2.941551139434     1.007825032230
         H            3.001286364500    -0.059307673043     0.220448860566     1.007825032230
         H            0.748936364500    -0.000727673043    -2.555031139434     1.007825032230
         H            0.576636364500    -1.807345373043    -2.550151139434     1.007825032230

  Running in c1 symmetry.

  Rotational constants: A =      0.13815  B =      0.03256  C =      0.02951 [cm^-1]
  Rotational constants: A =   4141.77738  B =    975.98716  C =    884.70987 [MHz]
  Nuclear repulsion =  305.842880703167282

  Charge       = 0
  Multiplicity = 1
  Electrons    = 58
  Nalpha       = 29
  Nbeta        = 29

  ==> Algorithm <==

  SCF Algorithm Type is PK.
  DIIS enabled.
  MOM disabled.
  Fractional occupation disabled.
  Guess Type is SAD.
  Energy threshold   = 1.00e-06
  Density threshold  = 1.00e-10
  Integral threshold = 0.00e+00

  ==> Primary Basis <==

  Basis Set: CC-PVDZ
    Blend: CC-PVDZ
    Number of shells: 75
    Number of basis function: 153
    Number of Cartesian functions: 160
    Spherical Harmonics?: true
    Max angular momentum: 2

  ==> Pre-Iterations <==

   -------------------------------------------------------
    Irrep   Nso     Nmo     Nalpha   Nbeta   Ndocc  Nsocc
   -------------------------------------------------------
     A        153     153       0       0       0       0
   -------------------------------------------------------
    Total     153     153      29      29      29       0
   -------------------------------------------------------

  ==> Integral Setup <==

  Using integral reordering PK algorithm.
  Sizing the integral batches needed.
  Building batch lookup table.
   Calculation information:
      Number of atoms:                  18
      Number of AO shells:              75
      Number of primitives:            209
      Number of atomic orbitals:       160
      Number of basis functions:       153

      Integral cutoff                 1.00e-12
      Number of threads:                 1

	Batch   1 pq = [       0,    9405] index = [             0,44231715] size =     44231715
	Batch   2 pq = [    9405,   11781] index = [      44231715,69401871] size =     25170156
  Task number: 7
  Buffer size: 11059200
  Buffer per thread: 2
  We computed 3441078 shell quartets total.
  Whereas there are 4062675 unique shell quartets.

  ==> DiskJK: Disk-Based J/K Matrices <==

    J tasked:                  Yes
    K tasked:                  Yes
    wK tasked:                  No
    Memory [MiB]:              375
    Schwarz Cutoff:          1E-12

    OpenMP threads:              1

  Minimum eigenvalue in the overlap matrix is 4.7611147212E-03.
  Using Symmetric Orthogonalization.

  SCF Guess: Superposition of Atomic Densities via on-the-fly atomic UHF.

  ==> Iterations <==

                        Total Energy        Delta E     RMS |[F,P]|

   @RHF iter SAD:  -360.65624834367463   -3.60656e+02   0.00000e+00
   @RHF iter   1:  -361.82430524864674   -1.16806e+00   4.56733e-03 DIIS
   @RHF iter   2:  -362.01658145241805   -1.92276e-01   2.66160e-03 DIIS
   @RHF iter   3:  -362.07786156757641   -6.12801e-02   5.12214e-04 DIIS
   @RHF iter   4:  -362.08148556880650   -3.62400e-03   2.10325e-04 DIIS
   @RHF iter   5:  -362.08211771072058   -6.32142e-04   3.91750e-05 DIIS
   @RHF iter   6:  -362.08215397299659   -3.62623e-05   1.83971e-05 DIIS
   @RHF iter   7:  -362.08216144590494   -7.47291e-06   6.60181e-06 DIIS
   @RHF iter   8:  -362.08216290703950   -1.46113e-06   2.35968e-06 DIIS
   @RHF iter   9:  -362.08216309259944   -1.85560e-07   7.30340e-07 DIIS
   @RHF iter  10:  -362.08216310800742   -1.54080e-08   2.26376e-07 DIIS
   @RHF iter  11:  -362.08216310932596   -1.31854e-09   4.96469e-08 DIIS
   @RHF iter  12:  -362.08216310938724   -6.12772e-11   1.82095e-08 DIIS
   @RHF iter  13:  -362.08216310939503   -7.78755e-12   4.12674e-09 DIIS
   @RHF iter  14:  -362.08216310939423    7.95808e-13   1.27176e-09 DIIS
   @RHF iter  15:  -362.08216310939457   -3.41061e-13   4.28848e-10 DIIS
   @RHF iter  16:  -362.08216310939537   -7.95808e-13   1.75675e-10 DIIS
   @RHF iter  17:  -362.08216310939548   -1.13687e-13   6.76723e-11 DIIS
  Energy and wave function converged.

  ==> Post-Iterations <==

    Orbital Energies [Eh]
    ---------------------

    Doubly Occupied:

       1A    -20.537954     2A    -20.507413     3A    -15.592719
       4A    -11.351664     5A    -11.259597     6A    -11.245850
       7A    -11.203831     8A     -1.369623     9A     -1.340341
      10A     -1.219020    11A     -1.001908    12A     -0.994276
      13A     -0.816749    14A     -0.802043    15A     -0.731288
      16A     -0.680200    17A     -0.656438    18A     -0.630760
      19A     -0.613110    20A     -0.573068    21A     -0.561020
      22A     -0.551958    23A     -0.524379    24A     -0.518931
      25A     -0.504093    26A     -0.465118    27A     -0.423260
      28A     -0.410322    29A     -0.407119

    Virtual:

      30A      0.154876    31A      0.181716    32A      0.196033
      33A      0.213643    34A      0.226965    35A      0.248330
      36A      0.261066    37A      0.272668    38A      0.273007
      39A      0.278724    40A      0.301926    41A      0.326030
      42A      0.376148    43A      0.395352    44A      0.409055
      45A      0.477370    46A      0.551864    47A      0.608240
      48A      0.624403    49A      0.633707    50A      0.651307
      51A      0.679929    52A      0.698975    53A      0.731208
      54A      0.737793    55A      0.758203    56A      0.768191
      57A      0.804469    58A      0.834189    59A      0.855737
      60A      0.858067    61A      0.872999    62A      0.879582
      63A      0.887344    64A      0.902353    65A      0.909100
      66A      0.916680    67A      0.944357    68A      0.945550
      69A      0.980119    70A      0.999843    71A      1.036002
      72A      1.068233    73A      1.144277    74A      1.149469
      75A      1.157190    76A      1.179740    77A      1.244071
      78A      1.272329    79A      1.334208    80A      1.339755
      81A      1.346341    82A      1.376520    83A      1.386593
      84A      1.429269    85A      1.456778    86A      1.474349
      87A      1.497671    88A      1.523739    89A      1.546321
      90A      1.570328    91A      1.636667    92A      1.651366
      93A      1.657272    94A      1.698814    95A      1.722248
      96A      1.799370    97A      1.803115    98A      1.835737
      99A      1.878960   100A      1.882556   101A      1.894495
     102A      1.902136   103A      1.905640   104A      1.922736
     105A      1.938079   106A      1.957332   107A      1.972740
     108A      1.987094   109A      1.991790   110A      2.012421
     111A      2.018741   112A      2.037198   113A      2.084181
     114A      2.132116   115A      2.147150   116A      2.221278
     117A      2.224434   118A      2.262855   119A      2.265086
     120A      2.292389   121A      2.317896   122A      2.431886
     123A      2.437992   124A      2.489230   125A      2.495761
     126A      2.531178   127A      2.548626   128A      2.563682
     129A      2.578459   130A      2.601666   131A      2.616441
     132A      2.700513   133A      2.734945   134A      2.775795
     135A      2.792829   136A      2.803190   137A      2.816423
     138A      2.867866   139A      2.905086   140A      2.965342
     141A      2.989950   142A      3.088549   143A      3.139914
     144A      3.282629   145A      3.336341   146A      3.430404
     147A      3.473990   148A      3.503894   149A      3.531509
     150A      3.628170   151A      3.858388   152A      3.909632
     153A      4.121103

    Final Occupation by Irrep:
              A
    DOCC [    29 ]

  @RHF Final Energy:  -362.08216310939548

   => Energetics <=

    Nuclear Repulsion Energy =            305.8428807031672818
    One-Electron Energy =               -1100.8619861395700354
    Two-Electron Energy =                 432.9369423270072161
    Total Energy =                       -362.0821631093954807

Computation Completed

Properties will be evaluated at   0.000000,   0.000000,   0.000000 [a0]

Properties computed using the SCF density matrix

  Nuclear Dipole Moment: [e a0]
     X:    -0.8822      Y:    -4.9263      Z:    -0.6618

  Electronic Dipole Moment: [e a0]
     X:     0.3465      Y:     3.7852      Z:     2.5730

  Dipole Moment: [e a0]
     X:    -0.5357      Y:    -1.1412      Z:     1.9112     Total:     2.2896

  Dipole Moment: [D]
     X:    -1.3617      Y:    -2.9006      Z:     4.8579     Total:     5.8195

*** tstop() called on ds3 at Mon Apr 27 17:32:46 2020
Module time:
	user time   =      21.83 seconds =       0.36 minutes
	system time =       9.98 seconds =       0.17 minutes
	total time  =         32 seconds =       0.53 minutes
Total time:
	user time   =      21.83 seconds =       0.36 minutes
	system time =       9.98 seconds =       0.17 minutes
	total time  =         32 seconds =       0.53 minutes
                                     G D M A

                                 by Anthony Stone

                           version 2.2.06, 22 June 2011

               Distributed Multipoles from Gaussian wavefunctions

Starting at 17:32:46 on 27 Apr 2020

Using SCF density matrix from file ./SSI/SSI-081ASN-085SER-1-dimer.test.30164.fchk

                         Distributed Multipole Analysis

Standard DMA

Positions and radii in angstrom
Multipole moments in atomic units, ea_0^k for rank k

C          x = -2.890714  y =  0.257692  z =  1.076449 angstrom
           Maximum rank =  0   Radius =  0.650 angstrom
                   Q00  =  -0.254681

C          x = -1.397714  y =  0.501692  z =  0.914449 angstrom
           Maximum rank =  0   Radius =  0.650 angstrom
                   Q00  =   0.805890

O          x = -0.952714  y =  1.062692  z = -0.084551 angstrom
           Maximum rank =  0   Radius =  0.650 angstrom
                   Q00  =  -0.775035

N          x = -0.610714  y =  0.099692  z =  1.911449 angstrom
           Maximum rank =  0   Radius =  0.650 angstrom
                   Q00  =  -0.527249

H          x = -3.272714  y =  0.950692  z =  1.827449 angstrom
           Maximum rank =  0   Radius =  0.325 angstrom
                   Q00  =   0.120524

H          x = -3.036714  y = -0.747308  z =  1.473449 angstrom
           Maximum rank =  0   Radius =  0.325 angstrom
                   Q00  =   0.084248

H          x =  0.380286  y =  0.266692  z =  1.837449 angstrom
           Maximum rank =  0   Radius =  0.325 angstrom
                   Q00  =   0.220345

H          x = -1.002714  y = -0.326308  z =  2.739449 angstrom
           Maximum rank =  0   Radius =  0.325 angstrom
                   Q00  =   0.205157

H          x = -3.458184  y =  0.346091  z =  0.138279 angstrom
           Maximum rank =  0   Radius =  0.325 angstrom
                   Q00  =   0.133472

C          x =  1.673286  y = -0.990308  z = -0.871551 angstrom
           Maximum rank =  0   Radius =  0.650 angstrom
                   Q00  =   0.095632

C          x =  1.238286  y = -0.958308  z = -2.323551 angstrom
           Maximum rank =  0   Radius =  0.650 angstrom
                   Q00  =  -0.230708

O          x =  2.580286  y =  0.073692  z = -0.641551 angstrom
           Maximum rank =  0   Radius =  0.650 angstrom
                   Q00  =  -0.576367

H          x =  0.806286  y = -0.898308  z = -0.220551 angstrom
           Maximum rank =  0   Radius =  0.325 angstrom
                   Q00  =   0.040283

H          x =  2.170286  y = -1.940308  z = -0.665551 angstrom
           Maximum rank =  0   Radius =  0.325 angstrom
                   Q00  =   0.019389

H          x =  2.135286  y = -1.044308  z = -2.941551 angstrom
           Maximum rank =  0   Radius =  0.325 angstrom
                   Q00  =   0.078346

H          x =  3.001286  y = -0.059308  z =  0.220449 angstrom
           Maximum rank =  0   Radius =  0.325 angstrom
                   Q00  =   0.375830

H          x =  0.748936  y = -0.000728  z = -2.555031 angstrom
           Maximum rank =  0   Radius =  0.325 angstrom
                   Q00  =   0.107724

H          x =  0.576636  y = -1.807345  z = -2.550151 angstrom
           Maximum rank =  0   Radius =  0.325 angstrom
                   Q00  =   0.077198

Total multipoles referred to origin at
           x =   0.000000,  y =    0.000000,  z =    0.000000 angstrom
                   Q00  =  -0.000000

Finished at 17:32:46 on 27 Apr 2020

  DMA results are available in the Python driver through the
	  variable('DMA DISTRIBUTED MULTIPOLES')
  and
	  variable('DMA TOTAL MULTIPOLES')
  commands.

    Psi4 stopped on: Monday, 27 April 2020 05:32PM
    Psi4 wall time for execution: 0:00:31.40

*** Psi4 exiting successfully. Buy a developer a beer!
