                               Psi4 1.3.2 release

  ==> Input File <==

--------------------------------------------------------------------------
import numpy as np
set {scf_type pk
basis cc-pvdz
d_convergence 10
gdma_switch   0
gdma_limit    0
gdma_origin   [ 0.0,  0.0,  0.0 ]
}
molecule test {
    units Angstrom
    0 1
    --
    0 1
    C                0.960864940767662     1.212260515852974    -3.025195839279442
    C                1.340864940767662     2.104260515852974    -0.701195839279442
    C                1.628864940767662     1.138260515852974    -1.665195839279442
    C                1.954864940767662     2.074260515852974     0.563804160720558
    C                2.846864940767662     1.043260515852974     0.901804160720558
    C                2.515864940767662     0.102260515852974    -1.332195839279442
    C                3.130864940767662     0.051260515852974    -0.047195839279442
    O                3.358864940767662     1.004260515852974     2.180804160720558
    H                0.653864940767662     2.907260515852974    -0.932195839279442
    H                1.712864940767662     2.839260515852974     1.287804160720558
    H                0.125864940767662     1.910260515852974    -2.958195839279442
    H                0.532864940767662     0.236260515852974    -3.260195839279442
    H                2.727864940767662    -0.678739484147026    -2.050195839279442
    H                3.058864940767662     1.744260515852974     2.714804160720558
    H                3.801864940767662    -0.756739484147026     0.208804160720558
    H                1.616424940767662     1.539320515852974    -3.845726839279442
    C               -4.943135059232339    -1.196739484147026     1.116804160720558
    C               -1.578135059232338    -0.178739484147026    -0.289195839279442
    C               -0.836135059232338    -1.347739484147026    -0.127195839279442
    C               -2.913135059232338    -0.141739484147026     0.110804160720558
    C               -3.514135059232338    -1.265739484147026     0.688804160720558
    C               -1.440135059232338    -2.468739484147026     0.434804160720558
    C               -2.773135059232338    -2.428739484147026     0.849804160720558
    H               -1.122135059232338     0.696260515852974    -0.730195839279442
    H                0.198864940767662    -1.383739484147026    -0.439195839279442
    H               -3.482135059232338     0.768260515852974    -0.023195839279442
    H               -0.871135059232338    -3.381739484147026     0.548804160720558
    H               -5.470135059232338    -2.066739484147026     0.720804160720558
    H               -5.399135059232337    -0.323739484147026     0.662804160720558
    H               -3.227135059232338    -3.306739484147026     1.289804160720558
    H               -5.075645059232338    -1.174419484147026     2.208564160720558

}
e, wfn = energy('scf', return_wfn=True)
gdma(wfn)
dmavals = variable('DMA DISTRIBUTED MULTIPOLES')
charges = np.array(dmavals)
print(charges)
np.save('SSI-064TYR-078PHE-1-dimer.npy', np.array(charges))--------------------------------------------------------------------------

*** tstart() called on ds3
*** at Tue Apr 28 21:53:01 2020

   => Loading Basis Set <=

    Name: CC-PVDZ
    Role: ORBITAL
    Keyword: BASIS
    atoms 1-7, 17-23  entry C          line   138 file /theoryfs2/ds/metcalf/miniconda2/envs/tf2gpu/share/psi4/basis/cc-pvdz.gbs
    atoms 8           entry O          line   198 file /theoryfs2/ds/metcalf/miniconda2/envs/tf2gpu/share/psi4/basis/cc-pvdz.gbs
    atoms 9-16, 24-31 entry H          line    22 file /theoryfs2/ds/metcalf/miniconda2/envs/tf2gpu/share/psi4/basis/cc-pvdz.gbs

         ---------------------------------------------------------
                                   SCF
               by Justin Turney, Rob Parrish, Andy Simmonett
                          and Daniel G. A. Smith
                              RHF Reference
                        1 Threads,    500 MiB Core
         ---------------------------------------------------------

  ==> Geometry <==

    Molecular point group: c1
    Full point group: C1

    Geometry (in Angstrom), charge = 0, multiplicity = 1:

       Center              X                  Y                   Z               Mass
    ------------   -----------------  -----------------  -----------------  -----------------
         C            0.960864940768     1.212260515853    -3.025195839279    12.000000000000
         C            1.340864940768     2.104260515853    -0.701195839279    12.000000000000
         C            1.628864940768     1.138260515853    -1.665195839279    12.000000000000
         C            1.954864940768     2.074260515853     0.563804160721    12.000000000000
         C            2.846864940768     1.043260515853     0.901804160721    12.000000000000
         C            2.515864940768     0.102260515853    -1.332195839279    12.000000000000
         C            3.130864940768     0.051260515853    -0.047195839279    12.000000000000
         O            3.358864940768     1.004260515853     2.180804160721    15.994914619570
         H            0.653864940768     2.907260515853    -0.932195839279     1.007825032230
         H            1.712864940768     2.839260515853     1.287804160721     1.007825032230
         H            0.125864940768     1.910260515853    -2.958195839279     1.007825032230
         H            0.532864940768     0.236260515853    -3.260195839279     1.007825032230
         H            2.727864940768    -0.678739484147    -2.050195839279     1.007825032230
         H            3.058864940768     1.744260515853     2.714804160721     1.007825032230
         H            3.801864940768    -0.756739484147     0.208804160721     1.007825032230
         H            1.616424940768     1.539320515853    -3.845726839279     1.007825032230
         C           -4.943135059232    -1.196739484147     1.116804160721    12.000000000000
         C           -1.578135059232    -0.178739484147    -0.289195839279    12.000000000000
         C           -0.836135059232    -1.347739484147    -0.127195839279    12.000000000000
         C           -2.913135059232    -0.141739484147     0.110804160721    12.000000000000
         C           -3.514135059232    -1.265739484147     0.688804160721    12.000000000000
         C           -1.440135059232    -2.468739484147     0.434804160721    12.000000000000
         C           -2.773135059232    -2.428739484147     0.849804160721    12.000000000000
         H           -1.122135059232     0.696260515853    -0.730195839279     1.007825032230
         H            0.198864940768    -1.383739484147    -0.439195839279     1.007825032230
         H           -3.482135059232     0.768260515853    -0.023195839279     1.007825032230
         H           -0.871135059232    -3.381739484147     0.548804160721     1.007825032230
         H           -5.470135059232    -2.066739484147     0.720804160721     1.007825032230
         H           -5.399135059232    -0.323739484147     0.662804160721     1.007825032230
         H           -3.227135059232    -3.306739484147     1.289804160721     1.007825032230
         H           -5.075645059232    -1.174419484147     2.208564160721     1.007825032230

  Running in c1 symmetry.

  Rotational constants: A =      0.03126  B =      0.00908  C =      0.00835 [cm^-1]
  Rotational constants: A =    937.10477  B =    272.35578  C =    250.31838 [MHz]
  Nuclear repulsion =  882.594099812980289

  Charge       = 0
  Multiplicity = 1
  Electrons    = 108
  Nalpha       = 54
  Nbeta        = 54

  ==> Algorithm <==

  SCF Algorithm Type is PK.
  DIIS enabled.
  MOM disabled.
  Fractional occupation disabled.
  Guess Type is SAD.
  Energy threshold   = 1.00e-06
  Density threshold  = 1.00e-10
  Integral threshold = 0.00e+00

  ==> Primary Basis <==

  Basis Set: CC-PVDZ
    Blend: CC-PVDZ
    Number of shells: 138
    Number of basis function: 290
    Number of Cartesian functions: 305
    Spherical Harmonics?: true
    Max angular momentum: 2

  ==> Pre-Iterations <==

   -------------------------------------------------------
    Irrep   Nso     Nmo     Nalpha   Nbeta   Ndocc  Nsocc
   -------------------------------------------------------
     A        290     290       0       0       0       0
   -------------------------------------------------------
    Total     290     290      54      54      54       0
   -------------------------------------------------------

  ==> Integral Setup <==

  Using integral reordering PK algorithm.
  Sizing the integral batches needed.
  Building batch lookup table.
   Calculation information:
      Number of atoms:                  31
      Number of AO shells:             138
      Number of primitives:            410
      Number of atomic orbitals:       305
      Number of basis functions:       290

      Integral cutoff                 1.00e-12
      Number of threads:                 1

	Batch   1 pq = [       0,    9405] index = [             0,44231715] size =     44231715
	Batch   2 pq = [    9405,   13301] index = [      44231715,88464951] size =     44233236
	Batch   3 pq = [   13301,   16290] index = [      88464951,132690195] size =     44225244
	Batch   4 pq = [   16290,   18810] index = [     132690195,176917455] size =     44227260
	Batch   5 pq = [   18810,   21030] index = [     176917455,221140965] size =     44223510
	Batch   6 pq = [   21030,   23037] index = [     221140965,265363203] size =     44222238
	Batch   7 pq = [   23037,   24883] index = [     265363203,309594286] size =     44231083
	Batch   8 pq = [   24883,   26601] index = [     309594286,353819901] size =     44225615
	Batch   9 pq = [   26601,   28214] index = [     353819901,398029005] size =     44209104
	Batch  10 pq = [   28214,   29740] index = [     398029005,442248670] size =     44219665
	Batch  11 pq = [   29740,   31191] index = [     442248670,486454836] size =     44206166
	Batch  12 pq = [   31191,   32578] index = [     486454836,530679331] size =     44224495
	Batch  13 pq = [   32578,   33908] index = [     530679331,574893186] size =     44213855
	Batch  14 pq = [   33908,   35188] index = [     574893186,619115266] size =     44222080
	Batch  15 pq = [   35188,   36423] index = [     619115266,663335676] size =     44220410
	Batch  16 pq = [   36423,   37617] index = [     663335676,707538153] size =     44202477
	Batch  17 pq = [   37617,   38775] index = [     707538153,751769700] size =     44231547
	Batch  18 pq = [   38775,   39899] index = [     751769700,795985050] size =     44215350
	Batch  19 pq = [   39899,   40992] index = [     795985050,840192528] size =     44207478
	Batch  20 pq = [   40992,   42057] index = [     840192528,884416653] size =     44224125
	Batch  21 pq = [   42057,   42195] index = [     884416653,890230110] size =      5813457
  Task number: 81
  Buffer size: 11059200
  Buffer per thread: 2
  We computed 42837441 shell quartets total.
  Whereas there are 45998436 unique shell quartets.

  ==> DiskJK: Disk-Based J/K Matrices <==

    J tasked:                  Yes
    K tasked:                  Yes
    wK tasked:                  No
    Memory [MiB]:              375
    Schwarz Cutoff:          1E-12

    OpenMP threads:              1

  Minimum eigenvalue in the overlap matrix is 2.9959740578E-04.
  Using Symmetric Orthogonalization.

  SCF Guess: Superposition of Atomic Densities via on-the-fly atomic UHF.

  ==> Iterations <==

                        Total Energy        Delta E     RMS |[F,P]|

   @RHF iter SAD:  -613.03511423873931   -6.13035e+02   0.00000e+00
   @RHF iter   1:  -614.06247646475856   -1.02736e+00   2.35228e-03 DIIS
   @RHF iter   2:  -614.33430809093818   -2.71832e-01   9.69870e-04 DIIS
   @RHF iter   3:  -614.37454693265556   -4.02388e-02   2.32140e-04 DIIS
   @RHF iter   4:  -614.37807845826990   -3.53153e-03   8.78961e-05 DIIS
   @RHF iter   5:  -614.37845411002945   -3.75652e-04   1.77541e-05 DIIS
   @RHF iter   6:  -614.37847569989253   -2.15899e-05   5.93744e-06 DIIS
   @RHF iter   7:  -614.37847817053262   -2.47064e-06   1.71004e-06 DIIS
   @RHF iter   8:  -614.37847847717785   -3.06645e-07   6.75603e-07 DIIS
   @RHF iter   9:  -614.37847852506457   -4.78867e-08   2.68369e-07 DIIS
   @RHF iter  10:  -614.37847853393760   -8.87303e-09   1.10424e-07 DIIS
   @RHF iter  11:  -614.37847853655910   -2.62150e-09   5.39233e-08 DIIS
   @RHF iter  12:  -614.37847853719961   -6.40512e-10   2.70680e-08 DIIS
   @RHF iter  13:  -614.37847853734331   -1.43700e-10   7.65009e-09 DIIS
   @RHF iter  14:  -614.37847853734274    5.68434e-13   2.25456e-09 DIIS
   @RHF iter  15:  -614.37847853734968   -6.93490e-12   6.55939e-10 DIIS
   @RHF iter  16:  -614.37847853735332   -3.63798e-12   2.53566e-10 DIIS
   @RHF iter  17:  -614.37847853735286    4.54747e-13   8.64554e-11 DIIS
  Energy and wave function converged.

  ==> Post-Iterations <==

    Orbital Energies [Eh]
    ---------------------

    Doubly Occupied:

       1A    -20.583956     2A    -11.306525     3A    -11.247278
       4A    -11.243616     5A    -11.240783     6A    -11.240125
       7A    -11.238641     8A    -11.234243     9A    -11.231785
      10A    -11.229763    11A    -11.228103    12A    -11.225043
      13A    -11.224829    14A    -11.224045    15A    -11.222881
      16A     -1.394442    17A     -1.147100    18A     -1.145728
      19A     -1.040317    20A     -1.037564    21A     -1.013194
      22A     -1.004451    23A     -0.928297    24A     -0.926184
      25A     -0.844494    26A     -0.818759    27A     -0.802162
      28A     -0.788448    29A     -0.730779    30A     -0.684131
      31A     -0.667034    32A     -0.643913    33A     -0.625955
      34A     -0.624615    35A     -0.608256    36A     -0.585348
      37A     -0.584975    38A     -0.576239    39A     -0.573880
      40A     -0.570442    41A     -0.568430    42A     -0.556999
      43A     -0.530500    44A     -0.526672    45A     -0.498486
      46A     -0.488029    47A     -0.480702    48A     -0.478804
      49A     -0.476128    50A     -0.465123    51A     -0.336234
      52A     -0.325415    53A     -0.315228    54A     -0.306226

    Virtual:

      55A      0.120766    56A      0.139674    57A      0.147597
      58A      0.150774    59A      0.175830    60A      0.180942
      61A      0.194690    62A      0.208648    63A      0.215652
      64A      0.220420    65A      0.231856    66A      0.257018
      67A      0.258034    68A      0.261556    69A      0.271616
      70A      0.274990    71A      0.285030    72A      0.292613
      73A      0.300724    74A      0.324410    75A      0.363707
      76A      0.364322    77A      0.372254    78A      0.382972
      79A      0.421041    80A      0.445989    81A      0.454890
      82A      0.469372    83A      0.473421    84A      0.478829
      85A      0.491562    86A      0.501304    87A      0.509224
      88A      0.567678    89A      0.595084    90A      0.605278
      91A      0.631559    92A      0.635265    93A      0.654298
      94A      0.658788    95A      0.676509    96A      0.681972
      97A      0.691124    98A      0.693846    99A      0.714190
     100A      0.720425   101A      0.723082   102A      0.728402
     103A      0.737171   104A      0.739966   105A      0.742597
     106A      0.751036   107A      0.751924   108A      0.757902
     109A      0.761741   110A      0.768169   111A      0.771712
     112A      0.793333   113A      0.799500   114A      0.803268
     115A      0.820413   116A      0.839073   117A      0.843674
     118A      0.849639   119A      0.862672   120A      0.873264
     121A      0.878356   122A      0.880336   123A      0.887591
     124A      0.888873   125A      0.893702   126A      0.898444
     127A      0.907445   128A      0.918261   129A      0.918468
     130A      0.926166   131A      0.934087   132A      0.944137
     133A      0.946625   134A      0.957257   135A      0.976564
     136A      0.985973   137A      0.999923   138A      1.007836
     139A      1.041444   140A      1.050665   141A      1.055708
     142A      1.076290   143A      1.104376   144A      1.125450
     145A      1.131758   146A      1.147897   147A      1.154586
     148A      1.161305   149A      1.186655   150A      1.188511
     151A      1.209158   152A      1.218748   153A      1.228667
     154A      1.237996   155A      1.250314   156A      1.254296
     157A      1.262991   158A      1.279408   159A      1.281899
     160A      1.293923   161A      1.299190   162A      1.306358
     163A      1.314403   164A      1.318944   165A      1.330510
     166A      1.333656   167A      1.344809   168A      1.349435
     169A      1.354089   170A      1.390700   171A      1.423058
     172A      1.479767   173A      1.498881   174A      1.516358
     175A      1.536520   176A      1.542425   177A      1.547538
     178A      1.565898   179A      1.607963   180A      1.621021
     181A      1.626078   182A      1.678675   183A      1.687830
     184A      1.697249   185A      1.698730   186A      1.723844
     187A      1.736974   188A      1.744249   189A      1.753985
     190A      1.764987   191A      1.784230   192A      1.792695
     193A      1.799862   194A      1.803679   195A      1.822444
     196A      1.859138   197A      1.864512   198A      1.870675
     199A      1.890001   200A      1.892731   201A      1.898126
     202A      1.902138   203A      1.910443   204A      1.913172
     205A      1.923438   206A      1.928752   207A      1.939761
     208A      1.942397   209A      1.948303   210A      1.955594
     211A      1.964445   212A      1.968911   213A      1.981489
     214A      1.990069   215A      2.000368   216A      2.008254
     217A      2.026935   218A      2.035113   219A      2.044356
     220A      2.051299   221A      2.058054   222A      2.067728
     223A      2.075189   224A      2.083948   225A      2.115407
     226A      2.123834   227A      2.126744   228A      2.141477
     229A      2.159692   230A      2.171042   231A      2.181773
     232A      2.195962   233A      2.196979   234A      2.209678
     235A      2.235623   236A      2.245861   237A      2.249295
     238A      2.260498   239A      2.277847   240A      2.297660
     241A      2.304083   242A      2.311553   243A      2.339944
     244A      2.348647   245A      2.358608   246A      2.376349
     247A      2.407806   248A      2.453778   249A      2.460918
     250A      2.471221   251A      2.480132   252A      2.488664
     253A      2.518692   254A      2.520508   255A      2.529696
     256A      2.543658   257A      2.596357   258A      2.626027
     259A      2.637881   260A      2.725194   261A      2.744524
     262A      2.762610   263A      2.772513   264A      2.780384
     265A      2.782959   266A      2.795241   267A      2.812192
     268A      2.826987   269A      2.848965   270A      2.854266
     271A      2.879616   272A      2.889948   273A      2.939993
     274A      2.983938   275A      2.991301   276A      3.019860
     277A      3.040182   278A      3.053279   279A      3.098135
     280A      3.166421   281A      3.211261   282A      3.242030
     283A      3.253063   284A      3.309167   285A      3.338219
     286A      3.551594   287A      3.630288   288A      3.944134
     289A      3.974386   290A      4.173002

    Final Occupation by Irrep:
              A
    DOCC [    54 ]

  @RHF Final Energy:  -614.37847853735286

   => Energetics <=

    Nuclear Repulsion Energy =            882.5940998129802892
    One-Electron Energy =               -2584.6625618503494479
    Two-Electron Energy =                1087.6899835000160692
    Total Energy =                       -614.3784785373529758

Computation Completed

Properties will be evaluated at   0.000000,   0.000000,   0.000000 [a0]

Properties computed using the SCF density matrix

  Nuclear Dipole Moment: [e a0]
     X:    -9.5630      Y:    -0.3996      Z:    -4.2990

  Electronic Dipole Moment: [e a0]
     X:     9.2286      Y:     0.8885      Z:     4.2592

  Dipole Moment: [e a0]
     X:    -0.3344      Y:     0.4888      Z:    -0.0398     Total:     0.5936

  Dipole Moment: [D]
     X:    -0.8500      Y:     1.2425      Z:    -0.1011     Total:     1.5089

*** tstop() called on ds3 at Tue Apr 28 22:05:26 2020
Module time:
	user time   =     369.50 seconds =       6.16 minutes
	system time =     133.34 seconds =       2.22 minutes
	total time  =        745 seconds =      12.42 minutes
Total time:
	user time   =     369.50 seconds =       6.16 minutes
	system time =     133.34 seconds =       2.22 minutes
	total time  =        745 seconds =      12.42 minutes
                                     G D M A

                                 by Anthony Stone

                           version 2.2.06, 22 June 2011

               Distributed Multipoles from Gaussian wavefunctions

Starting at 22:5:26 on 28 Apr 2020

Using SCF density matrix from file ./SSI/SSI-064TYR-078PHE-1-dimer.test.3525.fchk

                         Distributed Multipole Analysis

Standard DMA

Positions and radii in angstrom
Multipole moments in atomic units, ea_0^k for rank k

C          x =  0.960865  y =  1.212261  z = -3.025196 angstrom
           Maximum rank =  0   Radius =  0.650 angstrom
                   Q00  =  -0.199523

C          x =  1.340865  y =  2.104261  z = -0.701196 angstrom
           Maximum rank =  0   Radius =  0.650 angstrom
                   Q00  =   0.024878

C          x =  1.628865  y =  1.138261  z = -1.665196 angstrom
           Maximum rank =  0   Radius =  0.650 angstrom
                   Q00  =  -0.136839

C          x =  1.954865  y =  2.074261  z =  0.563804 angstrom
           Maximum rank =  0   Radius =  0.650 angstrom
                   Q00  =  -0.157916

C          x =  2.846865  y =  1.043261  z =  0.901804 angstrom
           Maximum rank =  0   Radius =  0.650 angstrom
                   Q00  =   0.269918

C          x =  2.515865  y =  0.102261  z = -1.332196 angstrom
           Maximum rank =  0   Radius =  0.650 angstrom
                   Q00  =  -0.029878

C          x =  3.130865  y =  0.051261  z = -0.047196 angstrom
           Maximum rank =  0   Radius =  0.650 angstrom
                   Q00  =  -0.122900

O          x =  3.358865  y =  1.004261  z =  2.180804 angstrom
           Maximum rank =  0   Radius =  0.650 angstrom
                   Q00  =  -0.651617

H          x =  0.653865  y =  2.907261  z = -0.932196 angstrom
           Maximum rank =  0   Radius =  0.325 angstrom
                   Q00  =   0.071045

H          x =  1.712865  y =  2.839261  z =  1.287804 angstrom
           Maximum rank =  0   Radius =  0.325 angstrom
                   Q00  =   0.073524

H          x =  0.125865  y =  1.910261  z = -2.958196 angstrom
           Maximum rank =  0   Radius =  0.325 angstrom
                   Q00  =   0.092961

H          x =  0.532865  y =  0.236261  z = -3.260196 angstrom
           Maximum rank =  0   Radius =  0.325 angstrom
                   Q00  =   0.099842

H          x =  2.727865  y = -0.678739  z = -2.050196 angstrom
           Maximum rank =  0   Radius =  0.325 angstrom
                   Q00  =   0.068733

H          x =  3.058865  y =  1.744261  z =  2.714804 angstrom
           Maximum rank =  0   Radius =  0.325 angstrom
                   Q00  =   0.409583

H          x =  3.801865  y = -0.756739  z =  0.208804 angstrom
           Maximum rank =  0   Radius =  0.325 angstrom
                   Q00  =   0.085702

H          x =  1.616425  y =  1.539321  z = -3.845727 angstrom
           Maximum rank =  0   Radius =  0.325 angstrom
                   Q00  =   0.105125

C          x = -4.943135  y = -1.196739  z =  1.116804 angstrom
           Maximum rank =  0   Radius =  0.650 angstrom
                   Q00  =  -0.200236

C          x = -1.578135  y = -0.178739  z = -0.289196 angstrom
           Maximum rank =  0   Radius =  0.650 angstrom
                   Q00  =  -0.070680

C          x = -0.836135  y = -1.347739  z = -0.127196 angstrom
           Maximum rank =  0   Radius =  0.650 angstrom
                   Q00  =  -0.075355

C          x = -2.913135  y = -0.141739  z =  0.110804 angstrom
           Maximum rank =  0   Radius =  0.650 angstrom
                   Q00  =  -0.076802

C          x = -3.514135  y = -1.265739  z =  0.688804 angstrom
           Maximum rank =  0   Radius =  0.650 angstrom
                   Q00  =  -0.095273

C          x = -1.440135  y = -2.468739  z =  0.434804 angstrom
           Maximum rank =  0   Radius =  0.650 angstrom
                   Q00  =   0.009064

C          x = -2.773135  y = -2.428739  z =  0.849804 angstrom
           Maximum rank =  0   Radius =  0.650 angstrom
                   Q00  =  -0.087200

H          x = -1.122135  y =  0.696261  z = -0.730196 angstrom
           Maximum rank =  0   Radius =  0.325 angstrom
                   Q00  =   0.063542

H          x =  0.198865  y = -1.383739  z = -0.439196 angstrom
           Maximum rank =  0   Radius =  0.325 angstrom
                   Q00  =   0.068852

H          x = -3.482135  y =  0.768261  z = -0.023196 angstrom
           Maximum rank =  0   Radius =  0.325 angstrom
                   Q00  =   0.052318

H          x = -0.871135  y = -3.381739  z =  0.548804 angstrom
           Maximum rank =  0   Radius =  0.325 angstrom
                   Q00  =   0.060745

H          x = -5.470135  y = -2.066739  z =  0.720804 angstrom
           Maximum rank =  0   Radius =  0.325 angstrom
                   Q00  =   0.096222

H          x = -5.399135  y = -0.323739  z =  0.662804 angstrom
           Maximum rank =  0   Radius =  0.325 angstrom
                   Q00  =   0.095580

H          x = -3.227135  y = -3.306739  z =  1.289804 angstrom
           Maximum rank =  0   Radius =  0.325 angstrom
                   Q00  =   0.054111

H          x = -5.075645  y = -1.174419  z =  2.208564 angstrom
           Maximum rank =  0   Radius =  0.325 angstrom
                   Q00  =   0.102475

Total multipoles referred to origin at
           x =   0.000000,  y =    0.000000,  z =    0.000000 angstrom
                   Q00  =  -0.000000

Finished at 22:5:27 on 28 Apr 2020

  DMA results are available in the Python driver through the
	  variable('DMA DISTRIBUTED MULTIPOLES')
  and
	  variable('DMA TOTAL MULTIPOLES')
  commands.

    Psi4 stopped on: Tuesday, 28 April 2020 10:05PM
    Psi4 wall time for execution: 0:12:25.55

*** Psi4 exiting successfully. Buy a developer a beer!
