                               Psi4 1.3.2 release

  ==> Input File <==

--------------------------------------------------------------------------
import numpy as np
set {scf_type pk
basis cc-pvdz
d_convergence 10
gdma_switch   0
gdma_limit    0
gdma_origin   [ 0.0,  0.0,  0.0 ]
}
molecule test {
    units Angstrom
    0 1
    --
    0 1
    C                0.259724712918407     1.577227896517322    -1.087693367755244
    C                0.050724712918407     1.174227896517322    -2.538693367755243
    H                0.695724712918407     2.577227896517322    -1.039693367755244
    H               -0.699275287081593     1.580227896517322    -0.571693367755244
    H                0.924724712918407     0.864227896517322    -0.596693367755244
    H               -0.543275287081593     1.963227896517322    -2.996693367755243
    H                1.021044712918407     1.096945896517322    -3.051043367755244
    H               -0.523525287081593     0.237900896517322    -2.598073367755244
    C               -0.683275287081593    -0.844772103482678     1.644306632244756
    C                0.379724712918407    -1.907772103482678     1.981306632244756
    H               -0.202275287081593     0.116227896517322     1.462306632244756
    H               -1.227275287081593    -1.143772103482678     0.746306632244756
    H               -1.405275287081593    -0.729772103482678     2.451306632244757
    H               -0.126275287081593    -2.825772103482678     2.254306632244757
    H                0.992804712918407    -1.610174303482678     2.844766632244756
    H                1.010734712918407    -2.113536103482678     1.104106632244756

}
e, wfn = energy('scf', return_wfn=True)
gdma(wfn)
dmavals = variable('DMA DISTRIBUTED MULTIPOLES')
charges = np.array(dmavals)
print(charges)
np.save('SSI-122LEU-188VAL-1-dimer.npy', np.array(charges))--------------------------------------------------------------------------

*** tstart() called on ds3
*** at Sun Apr 26 21:05:17 2020

   => Loading Basis Set <=

    Name: CC-PVDZ
    Role: ORBITAL
    Keyword: BASIS
    atoms 1-2, 9-10  entry C          line   138 file /theoryfs2/ds/metcalf/miniconda2/envs/tf2gpu/share/psi4/basis/cc-pvdz.gbs
    atoms 3-8, 11-16 entry H          line    22 file /theoryfs2/ds/metcalf/miniconda2/envs/tf2gpu/share/psi4/basis/cc-pvdz.gbs

         ---------------------------------------------------------
                                   SCF
               by Justin Turney, Rob Parrish, Andy Simmonett
                          and Daniel G. A. Smith
                              RHF Reference
                        1 Threads,    500 MiB Core
         ---------------------------------------------------------

  ==> Geometry <==

    Molecular point group: c1
    Full point group: C1

    Geometry (in Angstrom), charge = 0, multiplicity = 1:

       Center              X                  Y                   Z               Mass
    ------------   -----------------  -----------------  -----------------  -----------------
         C            0.259724712918     1.577227896517    -1.087693367755    12.000000000000
         C            0.050724712918     1.174227896517    -2.538693367755    12.000000000000
         H            0.695724712918     2.577227896517    -1.039693367755     1.007825032230
         H           -0.699275287082     1.580227896517    -0.571693367755     1.007825032230
         H            0.924724712918     0.864227896517    -0.596693367755     1.007825032230
         H           -0.543275287082     1.963227896517    -2.996693367755     1.007825032230
         H            1.021044712918     1.096945896517    -3.051043367755     1.007825032230
         H           -0.523525287082     0.237900896517    -2.598073367755     1.007825032230
         C           -0.683275287082    -0.844772103483     1.644306632245    12.000000000000
         C            0.379724712918    -1.907772103483     1.981306632245    12.000000000000
         H           -0.202275287082     0.116227896517     1.462306632245     1.007825032230
         H           -1.227275287082    -1.143772103483     0.746306632245     1.007825032230
         H           -1.405275287082    -0.729772103483     2.451306632245     1.007825032230
         H           -0.126275287082    -2.825772103483     2.254306632245     1.007825032230
         H            0.992804712918    -1.610174303483     2.844766632245     1.007825032230
         H            1.010734712918    -2.113536103483     1.104106632245     1.007825032230

  Running in c1 symmetry.

  Rotational constants: A =      0.44611  B =      0.04864  C =      0.04756 [cm^-1]
  Rotational constants: A =  13374.02277  B =   1458.23564  C =   1425.89566 [MHz]
  Nuclear repulsion =  122.025231715276007

  Charge       = 0
  Multiplicity = 1
  Electrons    = 36
  Nalpha       = 18
  Nbeta        = 18

  ==> Algorithm <==

  SCF Algorithm Type is PK.
  DIIS enabled.
  MOM disabled.
  Fractional occupation disabled.
  Guess Type is SAD.
  Energy threshold   = 1.00e-06
  Density threshold  = 1.00e-10
  Integral threshold = 0.00e+00

  ==> Primary Basis <==

  Basis Set: CC-PVDZ
    Blend: CC-PVDZ
    Number of shells: 60
    Number of basis function: 116
    Number of Cartesian functions: 120
    Spherical Harmonics?: true
    Max angular momentum: 2

  ==> Pre-Iterations <==

   -------------------------------------------------------
    Irrep   Nso     Nmo     Nalpha   Nbeta   Ndocc  Nsocc
   -------------------------------------------------------
     A        116     116       0       0       0       0
   -------------------------------------------------------
    Total     116     116      18      18      18       0
   -------------------------------------------------------

  ==> Integral Setup <==

  Using integral reordering PK algorithm.
  Sizing the integral batches needed.
  Building batch lookup table.
   Calculation information:
      Number of atoms:                  16
      Number of AO shells:              60
      Number of primitives:            148
      Number of atomic orbitals:       120
      Number of basis functions:       116

      Integral cutoff                 1.00e-12
      Number of threads:                 1

	Batch   1 pq = [       0,    6786] index = [             0,23028291] size =     23028291
  Task number: 3
  Buffer size: 11059200
  Buffer per thread: 2
  We computed 1440831 shell quartets total.
  Whereas there are 1675365 unique shell quartets.

  ==> DiskJK: Disk-Based J/K Matrices <==

    J tasked:                  Yes
    K tasked:                  Yes
    wK tasked:                  No
    Memory [MiB]:              375
    Schwarz Cutoff:          1E-12

    OpenMP threads:              1

  Minimum eigenvalue in the overlap matrix is 7.1698175452E-03.
  Using Symmetric Orthogonalization.

  SCF Guess: Superposition of Atomic Densities via on-the-fly atomic UHF.

  ==> Iterations <==

                        Total Energy        Delta E     RMS |[F,P]|

   @RHF iter SAD:  -157.34511225323953   -1.57345e+02   0.00000e+00
   @RHF iter   1:  -158.30707750183859   -9.61965e-01   4.20957e-03 DIIS
   @RHF iter   2:  -158.44025418617912   -1.33177e-01   1.79511e-03 DIIS
   @RHF iter   3:  -158.46364049650214   -2.33863e-02   3.49728e-04 DIIS
   @RHF iter   4:  -158.46547436425072   -1.83387e-03   3.90234e-05 DIIS
   @RHF iter   5:  -158.46549846026807   -2.40960e-05   6.64909e-06 DIIS
   @RHF iter   6:  -158.46549911731057   -6.57043e-07   1.12565e-06 DIIS
   @RHF iter   7:  -158.46549912983772   -1.25272e-08   3.26570e-07 DIIS
   @RHF iter   8:  -158.46549913078707   -9.49342e-10   3.99221e-08 DIIS
   @RHF iter   9:  -158.46549913081103   -2.39595e-11   8.45741e-09 DIIS
   @RHF iter  10:  -158.46549913081188   -8.52651e-13   2.41938e-09 DIIS
   @RHF iter  11:  -158.46549913081208   -1.98952e-13   6.99832e-10 DIIS
   @RHF iter  12:  -158.46549913081174    3.41061e-13   1.54690e-10 DIIS
   @RHF iter  13:  -158.46549913081225   -5.11591e-13   2.16630e-11 DIIS
  Energy and wave function converged.

  ==> Post-Iterations <==

    Orbital Energies [Eh]
    ---------------------

    Doubly Occupied:

       1A    -11.219421     2A    -11.218425     3A    -11.216904
       4A    -11.215639     5A     -1.021224     6A     -1.014416
       7A     -0.839923     8A     -0.833071     9A     -0.603071
      10A     -0.601027    11A     -0.595059    12A     -0.592626
      13A     -0.501810    14A     -0.498233    15A     -0.490648
      16A     -0.487105    17A     -0.485187    18A     -0.477232

    Virtual:

      19A      0.168898    20A      0.198028    21A      0.225000
      22A      0.232776    23A      0.244807    24A      0.258727
      25A      0.262836    26A      0.275784    27A      0.280300
      28A      0.294619    29A      0.300058    30A      0.327945
      31A      0.391420    32A      0.409763    33A      0.570121
      34A      0.597760    35A      0.602688    36A      0.614847
      37A      0.617206    38A      0.625942    39A      0.649456
      40A      0.677039    41A      0.686220    42A      0.812047
      43A      0.840606    44A      0.856681    45A      0.880400
      46A      0.889476    47A      0.891814    48A      0.895365
      49A      0.896426    50A      0.905879    51A      0.907491
      52A      0.917779    53A      0.946777    54A      0.948778
      55A      0.970768    56A      0.990164    57A      1.122010
      58A      1.123075    59A      1.128931    60A      1.166402
      61A      1.235523    62A      1.245290    63A      1.464527
      64A      1.472912    65A      1.481747    66A      1.491415
      67A      1.542718    68A      1.596378    69A      1.674869
      70A      1.685406    71A      1.692022    72A      1.699608
      73A      1.847696    74A      1.859181    75A      1.876384
      76A      1.880066    77A      1.901873    78A      1.914526
      79A      1.932327    80A      1.934512    81A      1.945827
      82A      1.947790    83A      1.950576    84A      1.955442
      85A      1.959219    86A      1.979337    87A      1.984915
      88A      2.012015    89A      2.091435    90A      2.099947
      91A      2.122540    92A      2.137342    93A      2.290474
      94A      2.304182    95A      2.311043    96A      2.317953
      97A      2.441013    98A      2.447430    99A      2.463458
     100A      2.486895   101A      2.555158   102A      2.561986
     103A      2.575773   104A      2.584093   105A      2.756893
     106A      2.770283   107A      2.788635   108A      2.792903
     109A      2.835991   110A      2.846215   111A      2.860475
     112A      2.864059   113A      2.925913   114A      2.958125
     115A      2.966666   116A      2.973418

    Final Occupation by Irrep:
              A
    DOCC [    18 ]

  @RHF Final Energy:  -158.46549913081225

   => Energetics <=

    Nuclear Repulsion Energy =            122.0252317152760071
    One-Electron Energy =                -453.1594218697815677
    Two-Electron Energy =                 172.6686910236933272
    Total Energy =                       -158.4654991308122476

Computation Completed

Properties will be evaluated at   0.000000,   0.000000,   0.000000 [a0]

Properties computed using the SCF density matrix

  Nuclear Dipole Moment: [e a0]
     X:    -0.0770      Y:     0.0121      Z:     0.0086

  Electronic Dipole Moment: [e a0]
     X:     0.0581      Y:     0.0018      Z:    -0.0052

  Dipole Moment: [e a0]
     X:    -0.0189      Y:     0.0140      Z:     0.0035     Total:     0.0238

  Dipole Moment: [D]
     X:    -0.0481      Y:     0.0355      Z:     0.0088     Total:     0.0604

*** tstop() called on ds3 at Sun Apr 26 21:05:30 2020
Module time:
	user time   =       7.80 seconds =       0.13 minutes
	system time =       3.01 seconds =       0.05 minutes
	total time  =         13 seconds =       0.22 minutes
Total time:
	user time   =       7.80 seconds =       0.13 minutes
	system time =       3.01 seconds =       0.05 minutes
	total time  =         13 seconds =       0.22 minutes
                                     G D M A

                                 by Anthony Stone

                           version 2.2.06, 22 June 2011

               Distributed Multipoles from Gaussian wavefunctions

Starting at 21:5:30 on 26 Apr 2020

Using SCF density matrix from file ./SSI/SSI-122LEU-188VAL-1-dimer.test.10942.fchk

                         Distributed Multipole Analysis

Standard DMA

Positions and radii in angstrom
Multipole moments in atomic units, ea_0^k for rank k

C          x =  0.259725  y =  1.577228  z = -1.087693 angstrom
           Maximum rank =  0   Radius =  0.650 angstrom
                   Q00  =  -0.236038

C          x =  0.050725  y =  1.174228  z = -2.538693 angstrom
           Maximum rank =  0   Radius =  0.650 angstrom
                   Q00  =  -0.229364

H          x =  0.695725  y =  2.577228  z = -1.039693 angstrom
           Maximum rank =  0   Radius =  0.325 angstrom
                   Q00  =   0.077671

H          x = -0.699275  y =  1.580228  z = -0.571693 angstrom
           Maximum rank =  0   Radius =  0.325 angstrom
                   Q00  =   0.079030

H          x =  0.924725  y =  0.864228  z = -0.596693 angstrom
           Maximum rank =  0   Radius =  0.325 angstrom
                   Q00  =   0.075849

H          x = -0.543275  y =  1.963228  z = -2.996693 angstrom
           Maximum rank =  0   Radius =  0.325 angstrom
                   Q00  =   0.075279

H          x =  1.021045  y =  1.096946  z = -3.051043 angstrom
           Maximum rank =  0   Radius =  0.325 angstrom
                   Q00  =   0.079227

H          x = -0.523525  y =  0.237901  z = -2.598073 angstrom
           Maximum rank =  0   Radius =  0.325 angstrom
                   Q00  =   0.078344

C          x = -0.683275  y = -0.844772  z =  1.644307 angstrom
           Maximum rank =  0   Radius =  0.650 angstrom
                   Q00  =  -0.250469

C          x =  0.379725  y = -1.907772  z =  1.981307 angstrom
           Maximum rank =  0   Radius =  0.650 angstrom
                   Q00  =  -0.232395

H          x = -0.202275  y =  0.116228  z =  1.462307 angstrom
           Maximum rank =  0   Radius =  0.325 angstrom
                   Q00  =   0.084106

H          x = -1.227275  y = -1.143772  z =  0.746307 angstrom
           Maximum rank =  0   Radius =  0.325 angstrom
                   Q00  =   0.077798

H          x = -1.405275  y = -0.729772  z =  2.451307 angstrom
           Maximum rank =  0   Radius =  0.325 angstrom
                   Q00  =   0.081088

H          x = -0.126275  y = -2.825772  z =  2.254307 angstrom
           Maximum rank =  0   Radius =  0.325 angstrom
                   Q00  =   0.079094

H          x =  0.992805  y = -1.610174  z =  2.844767 angstrom
           Maximum rank =  0   Radius =  0.325 angstrom
                   Q00  =   0.080736

H          x =  1.010735  y = -2.113536  z =  1.104107 angstrom
           Maximum rank =  0   Radius =  0.325 angstrom
                   Q00  =   0.080044

Total multipoles referred to origin at
           x =   0.000000,  y =    0.000000,  z =    0.000000 angstrom
                   Q00  =  -0.000000

Finished at 21:5:30 on 26 Apr 2020

  DMA results are available in the Python driver through the
	  variable('DMA DISTRIBUTED MULTIPOLES')
  and
	  variable('DMA TOTAL MULTIPOLES')
  commands.

    Psi4 stopped on: Sunday, 26 April 2020 09:05PM
    Psi4 wall time for execution: 0:00:12.35

*** Psi4 exiting successfully. Buy a developer a beer!
