                               Psi4 1.3.2 release

  ==> Input File <==

--------------------------------------------------------------------------
import numpy as np
set {scf_type pk
basis cc-pvdz
d_convergence 10
gdma_switch   0
gdma_limit    0
gdma_origin   [ 0.0,  0.0,  0.0 ]
}
molecule test {
    units Angstrom
    0 1
    --
    0 1
    C               -0.128188987515187    -0.678708945331413     0.912539305268078
    C               -1.468188987515187    -0.665708945331413     0.185539305268078
    C               -1.245188987515187    -2.172708945331412     2.966539305268078
    S                0.079811012484813    -2.258708945331412     1.751539305268078
    H                0.700811012484813    -0.506708945331413     0.231539305268078
    H               -0.122188987515187     0.117291054668588     1.657539305268078
    H               -1.556188987515187     0.322291054668587    -0.258460694731922
    H               -2.297188987515188    -0.817708945331412     0.874539305268078
    H               -1.073188987515187    -2.907708945331412     3.750539305268078
    H               -2.205188987515188    -2.380708945331413     2.493539305268078
    H               -1.268188987515187    -1.181708945331413     3.420539305268078
    H               -1.501071987515187    -1.399857945331413    -0.632960694731922
    C                1.345811012484813     2.109291054668588    -0.562460694731922
    C               -0.647188987515187     2.473291054668588    -2.436460694731922
    S                0.974811012484813     1.678291054668588    -2.260460694731922
    H                2.230811012484812     1.564291054668587    -0.231460694731922
    H                0.501811012484813     1.861291054668587     0.080539305268078
    H                1.539811012484813     3.180291054668587    -0.492460694731922
    H               -0.543188987515187     3.543291054668587    -2.296460694731922
    H               -1.331188987515187     2.071291054668587    -1.690460694731922
    H               -1.016632987515187     2.261251054668588    -3.450640694731922

}
e, wfn = energy('scf', return_wfn=True)
gdma(wfn)
dmavals = variable('DMA DISTRIBUTED MULTIPOLES')
charges = np.array(dmavals)
print(charges)
np.save('SSI-056MET-059MET-1-dimer.npy', np.array(charges))--------------------------------------------------------------------------

*** tstart() called on ds3
*** at Tue Apr 28 03:15:10 2020

   => Loading Basis Set <=

    Name: CC-PVDZ
    Role: ORBITAL
    Keyword: BASIS
    atoms 1-3, 13-14  entry C          line   138 file /theoryfs2/ds/metcalf/miniconda2/envs/tf2gpu/share/psi4/basis/cc-pvdz.gbs
    atoms 4, 15       entry S          line   598 file /theoryfs2/ds/metcalf/miniconda2/envs/tf2gpu/share/psi4/basis/cc-pvdz.gbs
    atoms 5-12, 16-21 entry H          line    22 file /theoryfs2/ds/metcalf/miniconda2/envs/tf2gpu/share/psi4/basis/cc-pvdz.gbs

         ---------------------------------------------------------
                                   SCF
               by Justin Turney, Rob Parrish, Andy Simmonett
                          and Daniel G. A. Smith
                              RHF Reference
                        1 Threads,    500 MiB Core
         ---------------------------------------------------------

  ==> Geometry <==

    Molecular point group: c1
    Full point group: C1

    Geometry (in Angstrom), charge = 0, multiplicity = 1:

       Center              X                  Y                   Z               Mass
    ------------   -----------------  -----------------  -----------------  -----------------
         C           -0.128188987515    -0.678708945331     0.912539305268    12.000000000000
         C           -1.468188987515    -0.665708945331     0.185539305268    12.000000000000
         C           -1.245188987515    -2.172708945331     2.966539305268    12.000000000000
         S            0.079811012485    -2.258708945331     1.751539305268    31.972071174400
         H            0.700811012485    -0.506708945331     0.231539305268     1.007825032230
         H           -0.122188987515     0.117291054669     1.657539305268     1.007825032230
         H           -1.556188987515     0.322291054669    -0.258460694732     1.007825032230
         H           -2.297188987515    -0.817708945331     0.874539305268     1.007825032230
         H           -1.073188987515    -2.907708945331     3.750539305268     1.007825032230
         H           -2.205188987515    -2.380708945331     2.493539305268     1.007825032230
         H           -1.268188987515    -1.181708945331     3.420539305268     1.007825032230
         H           -1.501071987515    -1.399857945331    -0.632960694732     1.007825032230
         C            1.345811012485     2.109291054669    -0.562460694732    12.000000000000
         C           -0.647188987515     2.473291054669    -2.436460694732    12.000000000000
         S            0.974811012485     1.678291054669    -2.260460694732    31.972071174400
         H            2.230811012485     1.564291054669    -0.231460694732     1.007825032230
         H            0.501811012485     1.861291054669     0.080539305268     1.007825032230
         H            1.539811012485     3.180291054669    -0.492460694732     1.007825032230
         H           -0.543188987515     3.543291054669    -2.296460694732     1.007825032230
         H           -1.331188987515     2.071291054669    -1.690460694732     1.007825032230
         H           -1.016632987515     2.261251054669    -3.450640694732     1.007825032230

  Running in c1 symmetry.

  Rotational constants: A =      0.11788  B =      0.01613  C =      0.01531 [cm^-1]
  Rotational constants: A =   3533.86690  B =    483.59605  C =    458.85409 [MHz]
  Nuclear repulsion =  434.177582866016905

  Charge       = 0
  Multiplicity = 1
  Electrons    = 76
  Nalpha       = 38
  Nbeta        = 38

  ==> Algorithm <==

  SCF Algorithm Type is PK.
  DIIS enabled.
  MOM disabled.
  Fractional occupation disabled.
  Guess Type is SAD.
  Energy threshold   = 1.00e-06
  Density threshold  = 1.00e-10
  Integral threshold = 0.00e+00

  ==> Primary Basis <==

  Basis Set: CC-PVDZ
    Blend: CC-PVDZ
    Number of shells: 88
    Number of basis function: 176
    Number of Cartesian functions: 183
    Spherical Harmonics?: true
    Max angular momentum: 2

  ==> Pre-Iterations <==

   -------------------------------------------------------
    Irrep   Nso     Nmo     Nalpha   Nbeta   Ndocc  Nsocc
   -------------------------------------------------------
     A        176     176       0       0       0       0
   -------------------------------------------------------
    Total     176     176      38      38      38       0
   -------------------------------------------------------

  ==> Integral Setup <==

  Using integral reordering PK algorithm.
  Sizing the integral batches needed.
  Building batch lookup table.
   Calculation information:
      Number of atoms:                  21
      Number of AO shells:              88
      Number of primitives:            280
      Number of atomic orbitals:       183
      Number of basis functions:       176

      Integral cutoff                 1.00e-12
      Number of threads:                 1

	Batch   1 pq = [       0,    9405] index = [             0,44231715] size =     44231715
	Batch   2 pq = [    9405,   13301] index = [      44231715,88464951] size =     44233236
	Batch   3 pq = [   13301,   15576] index = [      88464951,121313676] size =     32848725
  Task number: 11
  Buffer size: 11059200
  Buffer per thread: 2
  We computed 6297928 shell quartets total.
  Whereas there are 7669486 unique shell quartets.

  ==> DiskJK: Disk-Based J/K Matrices <==

    J tasked:                  Yes
    K tasked:                  Yes
    wK tasked:                  No
    Memory [MiB]:              375
    Schwarz Cutoff:          1E-12

    OpenMP threads:              1

  Minimum eigenvalue in the overlap matrix is 6.3565283814E-03.
  Using Symmetric Orthogonalization.

  SCF Guess: Superposition of Atomic Densities via on-the-fly atomic UHF.

  ==> Iterations <==

                        Total Energy        Delta E     RMS |[F,P]|

   @RHF iter SAD:  -991.54166277302477   -9.91542e+02   0.00000e+00
   @RHF iter   1:  -992.38287275347238   -8.41210e-01   2.66421e-03 DIIS
   @RHF iter   2:  -992.52545075862622   -1.42578e-01   9.93673e-04 DIIS
   @RHF iter   3:  -992.54327908343885   -1.78283e-02   2.83358e-04 DIIS
   @RHF iter   4:  -992.54560386315893   -2.32478e-03   5.61485e-05 DIIS
   @RHF iter   5:  -992.54568113420146   -7.72710e-05   1.28978e-05 DIIS
   @RHF iter   6:  -992.54568545323980   -4.31904e-06   3.42556e-06 DIIS
   @RHF iter   7:  -992.54568576820543   -3.14966e-07   8.23422e-07 DIIS
   @RHF iter   8:  -992.54568579288787   -2.46824e-08   2.68032e-07 DIIS
   @RHF iter   9:  -992.54568579556030   -2.67244e-09   7.41688e-08 DIIS
   @RHF iter  10:  -992.54568579580052   -2.40220e-10   2.03694e-08 DIIS
   @RHF iter  11:  -992.54568579581928   -1.87583e-11   5.07006e-09 DIIS
   @RHF iter  12:  -992.54568579582201   -2.72848e-12   1.68264e-09 DIIS
   @RHF iter  13:  -992.54568579582042    1.59162e-12   5.58778e-10 DIIS
   @RHF iter  14:  -992.54568579582076   -3.41061e-13   1.86101e-10 DIIS
   @RHF iter  15:  -992.54568579581837    2.38742e-12   6.91373e-11 DIIS
  Energy and wave function converged.

  ==> Post-Iterations <==

    Orbital Energies [Eh]
    ---------------------

    Doubly Occupied:

       1A    -91.939836     2A    -91.929253     3A    -11.261514
       4A    -11.258902     5A    -11.256322     6A    -11.254284
       7A    -11.227010     8A     -8.943631     9A     -8.933605
      10A     -6.625679    11A     -6.624119    12A     -6.621864
      13A     -6.615643    14A     -6.614125    15A     -6.611908
      16A     -1.084405    17A     -1.067546    18A     -0.993971
      19A     -0.956134    20A     -0.886121    21A     -0.809457
      22A     -0.785646    23A     -0.636166    24A     -0.617608
      25A     -0.606546    26A     -0.599221    27A     -0.582755
      28A     -0.579889    29A     -0.568685    30A     -0.553074
      31A     -0.537126    32A     -0.511147    33A     -0.499627
      34A     -0.481739    35A     -0.431652    36A     -0.414857
      37A     -0.336038    38A     -0.326896

    Virtual:

      39A      0.163871    40A      0.178464    41A      0.184655
      42A      0.205825    43A      0.217968    44A      0.222026
      45A      0.234757    46A      0.239801    47A      0.247206
      48A      0.249871    49A      0.260308    50A      0.270065
      51A      0.277588    52A      0.292518    53A      0.299130
      54A      0.313455    55A      0.351610    56A      0.379386
      57A      0.400214    58A      0.504557    59A      0.534079
      60A      0.554407    61A      0.571633    62A      0.582817
      63A      0.586458    64A      0.604152    65A      0.615065
      66A      0.628777    67A      0.653074    68A      0.673600
      69A      0.693419    70A      0.695349    71A      0.727635
      72A      0.733879    73A      0.763245    74A      0.779003
      75A      0.791060    76A      0.808271    77A      0.817511
      78A      0.825301    79A      0.838035    80A      0.848225
      81A      0.858305    82A      0.862158    83A      0.873509
      84A      0.880546    85A      0.885102    86A      0.886722
      87A      0.893553    88A      0.898229    89A      0.905291
      90A      0.915679    91A      0.918162    92A      0.927261
      93A      0.930459    94A      0.951240    95A      0.962391
      96A      0.983517    97A      0.995193    98A      1.018189
      99A      1.025592   100A      1.078620   101A      1.164683
     102A      1.193686   103A      1.244610   104A      1.260031
     105A      1.274355   106A      1.296770   107A      1.305189
     108A      1.325736   109A      1.336588   110A      1.363126
     111A      1.375154   112A      1.386530   113A      1.419782
     114A      1.467247   115A      1.481512   116A      1.492855
     117A      1.515398   118A      1.614338   119A      1.647676
     120A      1.661379   121A      1.685588   122A      1.707499
     123A      1.740574   124A      1.850520   125A      1.868095
     126A      1.877806   127A      1.881751   128A      1.887425
     129A      1.895722   130A      1.901941   131A      1.911438
     132A      1.914378   133A      1.923356   134A      1.937394
     135A      1.946838   136A      1.964091   137A      1.977742
     138A      1.987132   139A      2.010937   140A      2.017445
     141A      2.023270   142A      2.034608   143A      2.043025
     144A      2.056219   145A      2.067865   146A      2.121120
     147A      2.139636   148A      2.206957   149A      2.219396
     150A      2.229221   151A      2.265611   152A      2.314510
     153A      2.338659   154A      2.399281   155A      2.419745
     156A      2.431326   157A      2.446506   158A      2.450347
     159A      2.474089   160A      2.496230   161A      2.552064
     162A      2.575851   163A      2.734482   164A      2.753377
     165A      2.764551   166A      2.768704   167A      2.772229
     168A      2.784788   169A      2.798108   170A      2.804608
     171A      2.809209   172A      2.829973   173A      2.850054
     174A      2.869740   175A      2.948821   176A      2.983659

    Final Occupation by Irrep:
              A
    DOCC [    38 ]

  @RHF Final Energy:  -992.54568579581837

   => Energetics <=

    Nuclear Repulsion Energy =            434.1775828660169054
    One-Electron Energy =               -2228.2785325077770722
    Two-Electron Energy =                 801.5552638459416812
    Total Energy =                       -992.5456857958183718

Computation Completed

Properties will be evaluated at   0.000000,   0.000000,   0.000000 [a0]

Properties computed using the SCF density matrix

  Nuclear Dipole Moment: [e a0]
     X:    -7.4166      Y:     5.3535      Z:     3.2263

  Electronic Dipole Moment: [e a0]
     X:     6.6215      Y:    -4.4807      Z:    -2.7713

  Dipole Moment: [e a0]
     X:    -0.7951      Y:     0.8728      Z:     0.4550     Total:     1.2653

  Dipole Moment: [D]
     X:    -2.0210      Y:     2.2183      Z:     1.1566     Total:     3.2161

*** tstop() called on ds3 at Tue Apr 28 03:16:25 2020
Module time:
	user time   =      59.47 seconds =       0.99 minutes
	system time =      17.86 seconds =       0.30 minutes
	total time  =         75 seconds =       1.25 minutes
Total time:
	user time   =      59.47 seconds =       0.99 minutes
	system time =      17.86 seconds =       0.30 minutes
	total time  =         75 seconds =       1.25 minutes
                                     G D M A

                                 by Anthony Stone

                           version 2.2.06, 22 June 2011

               Distributed Multipoles from Gaussian wavefunctions

Starting at 3:16:25 on 28 Apr 2020

Using SCF density matrix from file ./SSI/SSI-056MET-059MET-1-dimer.test.19199.fchk

                         Distributed Multipole Analysis

Standard DMA

Positions and radii in angstrom
Multipole moments in atomic units, ea_0^k for rank k

C          x = -0.128189  y = -0.678709  z =  0.912539 angstrom
           Maximum rank =  0   Radius =  0.650 angstrom
                   Q00  =  -0.196124

C          x = -1.468189  y = -0.665709  z =  0.185539 angstrom
           Maximum rank =  0   Radius =  0.650 angstrom
                   Q00  =  -0.250792

C          x = -1.245189  y = -2.172709  z =  2.966539 angstrom
           Maximum rank =  0   Radius =  0.650 angstrom
                   Q00  =  -0.356944

S          x =  0.079811  y = -2.258709  z =  1.751539 angstrom
           Maximum rank =  0   Radius =  0.650 angstrom
                   Q00  =   0.107123

H          x =  0.700811  y = -0.506709  z =  0.231539 angstrom
           Maximum rank =  0   Radius =  0.325 angstrom
                   Q00  =   0.100561

H          x = -0.122189  y =  0.117291  z =  1.657539 angstrom
           Maximum rank =  0   Radius =  0.325 angstrom
                   Q00  =   0.049039

H          x = -1.556189  y =  0.322291  z = -0.258461 angstrom
           Maximum rank =  0   Radius =  0.325 angstrom
                   Q00  =   0.074194

H          x = -2.297189  y = -0.817709  z =  0.874539 angstrom
           Maximum rank =  0   Radius =  0.325 angstrom
                   Q00  =   0.082305

H          x = -1.073189  y = -2.907709  z =  3.750539 angstrom
           Maximum rank =  0   Radius =  0.325 angstrom
                   Q00  =   0.122662

H          x = -2.205189  y = -2.380709  z =  2.493539 angstrom
           Maximum rank =  0   Radius =  0.325 angstrom
                   Q00  =   0.084633

H          x = -1.268189  y = -1.181709  z =  3.420539 angstrom
           Maximum rank =  0   Radius =  0.325 angstrom
                   Q00  =   0.086148

H          x = -1.501072  y = -1.399858  z = -0.632961 angstrom
           Maximum rank =  0   Radius =  0.325 angstrom
                   Q00  =   0.098027

C          x =  1.345811  y =  2.109291  z = -0.562461 angstrom
           Maximum rank =  0   Radius =  0.650 angstrom
                   Q00  =  -0.345863

C          x = -0.647189  y =  2.473291  z = -2.436461 angstrom
           Maximum rank =  0   Radius =  0.650 angstrom
                   Q00  =  -0.356175

S          x =  0.974811  y =  1.678291  z = -2.260461 angstrom
           Maximum rank =  0   Radius =  0.650 angstrom
                   Q00  =   0.111616

H          x =  2.230811  y =  1.564291  z = -0.231461 angstrom
           Maximum rank =  0   Radius =  0.325 angstrom
                   Q00  =   0.121103

H          x =  0.501811  y =  1.861291  z =  0.080539 angstrom
           Maximum rank =  0   Radius =  0.325 angstrom
                   Q00  =   0.078517

H          x =  1.539811  y =  3.180291  z = -0.492461 angstrom
           Maximum rank =  0   Radius =  0.325 angstrom
                   Q00  =   0.089165

H          x = -0.543189  y =  3.543291  z = -2.296461 angstrom
           Maximum rank =  0   Radius =  0.325 angstrom
                   Q00  =   0.089202

H          x = -1.331189  y =  2.071291  z = -1.690461 angstrom
           Maximum rank =  0   Radius =  0.325 angstrom
                   Q00  =   0.087731

H          x = -1.016633  y =  2.261251  z = -3.450641 angstrom
           Maximum rank =  0   Radius =  0.325 angstrom
                   Q00  =   0.123872

Total multipoles referred to origin at
           x =   0.000000,  y =    0.000000,  z =    0.000000 angstrom
                   Q00  =   0.000000

Finished at 3:16:26 on 28 Apr 2020

  DMA results are available in the Python driver through the
	  variable('DMA DISTRIBUTED MULTIPOLES')
  and
	  variable('DMA TOTAL MULTIPOLES')
  commands.

    Psi4 stopped on: Tuesday, 28 April 2020 03:16AM
    Psi4 wall time for execution: 0:01:15.58

*** Psi4 exiting successfully. Buy a developer a beer!
