                               Psi4 1.3.2 release

  ==> Input File <==

--------------------------------------------------------------------------
import numpy as np
set {scf_type pk
basis cc-pvdz
d_convergence 10
gdma_switch   0
gdma_limit    0
gdma_origin   [ 0.0,  0.0,  0.0 ]
}
molecule test {
    units Angstrom
    0 1
    --
    0 1
    C                1.124514708427831    -0.838297373344751    -2.129048415817397
    C                1.934514708427831    -1.444297373344751    -3.277048415817397
    C               -0.129485291572169    -1.621297373344751    -1.818048415817397
    C               -1.347485291572169    -1.265297373344751    -2.386048415817397
    C               -0.091485291572169    -2.723297373344752    -0.964048415817397
    C               -2.502485291572169    -1.982297373344751    -2.126048415817397
    C               -1.245485291572169    -3.447297373344751    -0.691048415817397
    C               -2.450485291572169    -3.072297373344752    -1.271048415817397
    O               -3.577485291572168    -3.781297373344751    -1.010048415817397
    H                1.748514708427831    -0.767297373344751    -1.237048415817397
    H                0.831514708427831     0.175702626655249    -2.406048415817397
    H                1.232514708427831    -1.786297373344751    -4.033048415817397
    H               -1.431485291572169    -0.371297373344751    -2.908048415817397
    H                0.840514708427831    -3.021297373344752    -0.505048415817397
    H               -3.448485291572168    -1.657297373344751    -2.521048415817397
    H               -1.227485291572169    -4.307297373344752    -0.057048415817397
    H               -4.268485291572168    -3.630297373344752    -1.691048415817397
    H                2.540276708427831    -2.293267373344752    -2.927338415817396
    H                2.585208708427831    -0.694947373344751    -3.751468415817397
    C                1.832514708427831    -0.341297373344751     2.989951584182603
    C                0.876514708427831     1.647702626655249     1.602951584182603
    C                1.591514708427831     1.102702626655249     2.718951584182603
    C                0.894514708427831     3.058702626655248     1.735951584182603
    C                2.009514708427831     2.162702626655248     3.458951584182603
    C               -0.395485291572169     1.923702626655249    -0.415048415817397
    C               -0.360485291572169     3.316702626655248    -0.259048415817397
    C                0.217514708427831     1.082702626655249     0.507951584182603
    C                0.283514708427831     3.899702626655249     0.816951584182603
    N                1.593514708427831     3.337702626655248     2.878951584182603
    H               -0.928485291572169     1.499702626655249    -1.256048415817397
    H               -0.862485291572169     3.939702626655249    -0.987048415817397
    H                0.150514708427831     0.008702626655249     0.408951584182603
    H                0.302514708427831     4.973702626655248     0.943951584182603
    H                0.908514708427831    -0.879297373344751     2.775951584182603
    H                2.055514708427831    -0.482297373344751     4.049951584182603
    H                2.572514708427831     2.080702626655249     4.380951584182603
    H                1.713514708427831     4.251702626655248     3.299951584182603
    H                2.629581708427831    -0.773707373344751     2.367291584182603

}
e, wfn = energy('scf', return_wfn=True)
gdma(wfn)
dmavals = variable('DMA DISTRIBUTED MULTIPOLES')
charges = np.array(dmavals)
print(charges)
np.save('SSI-009TYR-303TRP-1-dimer.npy', np.array(charges))--------------------------------------------------------------------------

*** tstart() called on ds3
*** at Mon Apr 27 04:13:21 2020

   => Loading Basis Set <=

    Name: CC-PVDZ
    Role: ORBITAL
    Keyword: BASIS
    atoms 1-8, 20-28   entry C          line   138 file /theoryfs2/ds/metcalf/miniconda2/envs/tf2gpu/share/psi4/basis/cc-pvdz.gbs
    atoms 9            entry O          line   198 file /theoryfs2/ds/metcalf/miniconda2/envs/tf2gpu/share/psi4/basis/cc-pvdz.gbs
    atoms 10-19, 30-38 entry H          line    22 file /theoryfs2/ds/metcalf/miniconda2/envs/tf2gpu/share/psi4/basis/cc-pvdz.gbs
    atoms 29           entry N          line   168 file /theoryfs2/ds/metcalf/miniconda2/envs/tf2gpu/share/psi4/basis/cc-pvdz.gbs

         ---------------------------------------------------------
                                   SCF
               by Justin Turney, Rob Parrish, Andy Simmonett
                          and Daniel G. A. Smith
                              RHF Reference
                        1 Threads,    500 MiB Core
         ---------------------------------------------------------

  ==> Geometry <==

    Molecular point group: c1
    Full point group: C1

    Geometry (in Angstrom), charge = 0, multiplicity = 1:

       Center              X                  Y                   Z               Mass
    ------------   -----------------  -----------------  -----------------  -----------------
         C            1.124514708428    -0.838297373345    -2.129048415817    12.000000000000
         C            1.934514708428    -1.444297373345    -3.277048415817    12.000000000000
         C           -0.129485291572    -1.621297373345    -1.818048415817    12.000000000000
         C           -1.347485291572    -1.265297373345    -2.386048415817    12.000000000000
         C           -0.091485291572    -2.723297373345    -0.964048415817    12.000000000000
         C           -2.502485291572    -1.982297373345    -2.126048415817    12.000000000000
         C           -1.245485291572    -3.447297373345    -0.691048415817    12.000000000000
         C           -2.450485291572    -3.072297373345    -1.271048415817    12.000000000000
         O           -3.577485291572    -3.781297373345    -1.010048415817    15.994914619570
         H            1.748514708428    -0.767297373345    -1.237048415817     1.007825032230
         H            0.831514708428     0.175702626655    -2.406048415817     1.007825032230
         H            1.232514708428    -1.786297373345    -4.033048415817     1.007825032230
         H           -1.431485291572    -0.371297373345    -2.908048415817     1.007825032230
         H            0.840514708428    -3.021297373345    -0.505048415817     1.007825032230
         H           -3.448485291572    -1.657297373345    -2.521048415817     1.007825032230
         H           -1.227485291572    -4.307297373345    -0.057048415817     1.007825032230
         H           -4.268485291572    -3.630297373345    -1.691048415817     1.007825032230
         H            2.540276708428    -2.293267373345    -2.927338415817     1.007825032230
         H            2.585208708428    -0.694947373345    -3.751468415817     1.007825032230
         C            1.832514708428    -0.341297373345     2.989951584183    12.000000000000
         C            0.876514708428     1.647702626655     1.602951584183    12.000000000000
         C            1.591514708428     1.102702626655     2.718951584183    12.000000000000
         C            0.894514708428     3.058702626655     1.735951584183    12.000000000000
         C            2.009514708428     2.162702626655     3.458951584183    12.000000000000
         C           -0.395485291572     1.923702626655    -0.415048415817    12.000000000000
         C           -0.360485291572     3.316702626655    -0.259048415817    12.000000000000
         C            0.217514708428     1.082702626655     0.507951584183    12.000000000000
         C            0.283514708428     3.899702626655     0.816951584183    12.000000000000
         N            1.593514708428     3.337702626655     2.878951584183    14.003074004430
         H           -0.928485291572     1.499702626655    -1.256048415817     1.007825032230
         H           -0.862485291572     3.939702626655    -0.987048415817     1.007825032230
         H            0.150514708428     0.008702626655     0.408951584183     1.007825032230
         H            0.302514708428     4.973702626655     0.943951584183     1.007825032230
         H            0.908514708428    -0.879297373345     2.775951584183     1.007825032230
         H            2.055514708428    -0.482297373345     4.049951584183     1.007825032230
         H            2.572514708428     2.080702626655     4.380951584183     1.007825032230
         H            1.713514708428     4.251702626655     3.299951584183     1.007825032230
         H            2.629581708428    -0.773707373345     2.367291584183     1.007825032230

  Running in c1 symmetry.

  Rotational constants: A =      0.01910  B =      0.00592  C =      0.00571 [cm^-1]
  Rotational constants: A =    572.59983  B =    177.42730  C =    171.06081 [MHz]
  Nuclear repulsion = 1310.120590291552389

  Charge       = 0
  Multiplicity = 1
  Electrons    = 136
  Nalpha       = 68
  Nbeta        = 68

  ==> Algorithm <==

  SCF Algorithm Type is PK.
  DIIS enabled.
  MOM disabled.
  Fractional occupation disabled.
  Guess Type is SAD.
  Energy threshold   = 1.00e-06
  Density threshold  = 1.00e-10
  Integral threshold = 0.00e+00

  ==> Primary Basis <==

  Basis Set: CC-PVDZ
    Blend: CC-PVDZ
    Number of shells: 171
    Number of basis function: 361
    Number of Cartesian functions: 380
    Spherical Harmonics?: true
    Max angular momentum: 2

  ==> Pre-Iterations <==

   -------------------------------------------------------
    Irrep   Nso     Nmo     Nalpha   Nbeta   Ndocc  Nsocc
   -------------------------------------------------------
     A        361     361       0       0       0       0
   -------------------------------------------------------
    Total     361     361      68      68      68       0
   -------------------------------------------------------

  ==> Integral Setup <==

  Using Yoshimine PK algorithm.
  Sizing the integral batches needed.
  Building batch lookup table.
   Calculation information:
      Number of atoms:                  38
      Number of AO shells:             171
      Number of primitives:            513
      Number of atomic orbitals:       380
      Number of basis functions:       361

      Integral cutoff                 1.00e-12
      Number of threads:                 1

	Batch   1 pq = [       0,    9405] index = [             0,44231715] size =     44231715
	Batch   2 pq = [    9405,   13301] index = [      44231715,88464951] size =     44233236
	Batch   3 pq = [   13301,   16290] index = [      88464951,132690195] size =     44225244
	Batch   4 pq = [   16290,   18810] index = [     132690195,176917455] size =     44227260
	Batch   5 pq = [   18810,   21030] index = [     176917455,221140965] size =     44223510
	Batch   6 pq = [   21030,   23037] index = [     221140965,265363203] size =     44222238
	Batch   7 pq = [   23037,   24883] index = [     265363203,309594286] size =     44231083
	Batch   8 pq = [   24883,   26601] index = [     309594286,353819901] size =     44225615
	Batch   9 pq = [   26601,   28214] index = [     353819901,398029005] size =     44209104
	Batch  10 pq = [   28214,   29740] index = [     398029005,442248670] size =     44219665
	Batch  11 pq = [   29740,   31191] index = [     442248670,486454836] size =     44206166
	Batch  12 pq = [   31191,   32578] index = [     486454836,530679331] size =     44224495
	Batch  13 pq = [   32578,   33908] index = [     530679331,574893186] size =     44213855
	Batch  14 pq = [   33908,   35188] index = [     574893186,619115266] size =     44222080
	Batch  15 pq = [   35188,   36423] index = [     619115266,663335676] size =     44220410
	Batch  16 pq = [   36423,   37617] index = [     663335676,707538153] size =     44202477
	Batch  17 pq = [   37617,   38775] index = [     707538153,751769700] size =     44231547
	Batch  18 pq = [   38775,   39899] index = [     751769700,795985050] size =     44215350
	Batch  19 pq = [   39899,   40992] index = [     795985050,840192528] size =     44207478
	Batch  20 pq = [   40992,   42057] index = [     840192528,884416653] size =     44224125
	Batch  21 pq = [   42057,   43095] index = [     884416653,928611060] size =     44194407
	Batch  22 pq = [   43095,   44109] index = [     928611060,972823995] size =     44212935
	Batch  23 pq = [   44109,   45100] index = [     972823995,1017027550] size =     44203555
	Batch  24 pq = [   45100,   46070] index = [    1017027550,1061245485] size =     44217935
	Batch  25 pq = [   46070,   47020] index = [    1061245485,1105463710] size =     44218225
	Batch  26 pq = [   47020,   47951] index = [    1105463710,1149673176] size =     44209466
	Batch  27 pq = [   47951,   48864] index = [    1149673176,1193869680] size =     44196504
	Batch  28 pq = [   48864,   49761] index = [    1193869680,1238103441] size =     44233761
	Batch  29 pq = [   49761,   50642] index = [    1238103441,1282331403] size =     44227962
	Batch  30 pq = [   50642,   51508] index = [    1282331403,1326562786] size =     44231383
	Batch  31 pq = [   51508,   52359] index = [    1326562786,1370758620] size =     44195834
	Batch  32 pq = [   52359,   53197] index = [    1370758620,1414987003] size =     44228383
	Batch  33 pq = [   53197,   54022] index = [    1414987003,1459215253] size =     44228250
	Batch  34 pq = [   54022,   54834] index = [    1459215253,1503411195] size =     44195942
	Batch  35 pq = [   54834,   55634] index = [    1503411195,1547598795] size =     44187600
	Batch  36 pq = [   55634,   56423] index = [    1547598795,1591805676] size =     44206881
	Batch  37 pq = [   56423,   57201] index = [    1591805676,1636005801] size =     44200125
	Batch  38 pq = [   57201,   57969] index = [    1636005801,1680231465] size =     44225664
	Batch  39 pq = [   57969,   58727] index = [    1680231465,1724459628] size =     44228163
	Batch  40 pq = [   58727,   59475] index = [    1724459628,1768667550] size =     44207922
	Batch  41 pq = [   59475,   60214] index = [    1768667550,1812893005] size =     44225455
	Batch  42 pq = [   60214,   60944] index = [    1812893005,1857116040] size =     44223035
	Batch  43 pq = [   60944,   61665] index = [    1857116040,1901316945] size =     44200905
	Batch  44 pq = [   61665,   62378] index = [    1901316945,1945538631] size =     44221686
	Batch  45 pq = [   62378,   63083] index = [    1945538631,1989763986] size =     44225355
	Batch  46 pq = [   63083,   63780] index = [    1989763986,2033976090] size =     44212104
	Batch  47 pq = [   63780,   64469] index = [    2033976090,2078158215] size =     44182125
	Batch  48 pq = [   64469,   65151] index = [    2078158215,2122358976] size =     44200761
	Batch  49 pq = [   65151,   65341] index = [    2122358976,2134755811] size =     12396835
  ==> DiskJK: Disk-Based J/K Matrices <==

    J tasked:                  Yes
    K tasked:                  Yes
    wK tasked:                  No
    Memory [MiB]:              375
    Schwarz Cutoff:          1E-12

    OpenMP threads:              1

  Minimum eigenvalue in the overlap matrix is 2.2048371096E-04.
  Using Symmetric Orthogonalization.

  SCF Guess: Superposition of Atomic Densities via on-the-fly atomic UHF.

  ==> Iterations <==

                        Total Energy        Delta E     RMS |[F,P]|

   @RHF iter SAD:  -783.53451801147764   -7.83535e+02   0.00000e+00
   @RHF iter   1:  -783.78208951456759   -2.47572e-01   2.14145e-03 DIIS
   @RHF iter   2:  -784.12314087982918   -3.41051e-01   9.40853e-04 DIIS
   @RHF iter   3:  -784.18172420304472   -5.85833e-02   2.55673e-04 DIIS
   @RHF iter   4:  -784.18736457682871   -5.64037e-03   1.18163e-04 DIIS
   @RHF iter   5:  -784.18840678487265   -1.04221e-03   1.67888e-05 DIIS
   @RHF iter   6:  -784.18844884934356   -4.20645e-05   7.63643e-06 DIIS
   @RHF iter   7:  -784.18845721114712   -8.36180e-06   2.96273e-06 DIIS
   @RHF iter   8:  -784.18845931915041   -2.10800e-06   1.17322e-06 DIIS
   @RHF iter   9:  -784.18845975982435   -4.40674e-07   5.31464e-07 DIIS
   @RHF iter  10:  -784.18845985289693   -9.30726e-08   2.51095e-07 DIIS
   @RHF iter  11:  -784.18845987751183   -2.46149e-08   9.36060e-08 DIIS
   @RHF iter  12:  -784.18845988048861   -2.97678e-09   3.54977e-08 DIIS
   @RHF iter  13:  -784.18845988077783   -2.89219e-10   1.33465e-08 DIIS
   @RHF iter  14:  -784.18845988081512   -3.72893e-11   4.83623e-09 DIIS
   @RHF iter  15:  -784.18845988082751   -1.23919e-11   1.90898e-09 DIIS
   @RHF iter  16:  -784.18845988082046    7.04858e-12   8.79498e-10 DIIS
   @RHF iter  17:  -784.18845988082467   -4.20641e-12   4.42660e-10 DIIS
   @RHF iter  18:  -784.18845988083251   -7.84439e-12   1.73086e-10 DIIS
   @RHF iter  19:  -784.18845988082296    9.54969e-12   7.26817e-11 DIIS
  Energy and wave function converged.

  ==> Post-Iterations <==

    Orbital Energies [Eh]
    ---------------------

    Doubly Occupied:

       1A    -20.581635     2A    -15.598443     3A    -11.294740
       4A    -11.260736     5A    -11.260559     6A    -11.236219
       7A    -11.231006     8A    -11.228602     9A    -11.228070
      10A    -11.227416    11A    -11.226869    12A    -11.226165
      13A    -11.224837    14A    -11.224236    15A    -11.221650
      16A    -11.217014    17A    -11.216368    18A    -11.215640
      19A    -11.213438    20A     -1.396334    21A     -1.293635
      22A     -1.152829    23A     -1.126212    24A     -1.072866
      25A     -1.054658    26A     -1.020093    27A     -0.994680
      28A     -0.985320    29A     -0.973204    30A     -0.929911
      31A     -0.857714    32A     -0.844155    33A     -0.836967
      34A     -0.801875    35A     -0.791001    36A     -0.749822
      37A     -0.730964    38A     -0.717210    39A     -0.669843
      40A     -0.660642    41A     -0.646989    42A     -0.639257
      43A     -0.615208    44A     -0.601159    45A     -0.593923
      46A     -0.592630    47A     -0.589740    48A     -0.585943
      49A     -0.584467    50A     -0.565585    51A     -0.563986
      52A     -0.551220    53A     -0.542760    54A     -0.536082
      55A     -0.524827    56A     -0.510934    57A     -0.493316
      58A     -0.491976    59A     -0.475227    60A     -0.470494
      61A     -0.467248    62A     -0.464462    63A     -0.456687
      64A     -0.370282    65A     -0.338476    66A     -0.300573
      67A     -0.292152    68A     -0.272733

    Virtual:

      69A      0.128412    70A      0.129357    71A      0.151911
      72A      0.168321    73A      0.176804    74A      0.181593
      75A      0.183246    76A      0.196885    77A      0.206806
      78A      0.216201    79A      0.217616    80A      0.228344
      81A      0.238582    82A      0.248727    83A      0.253342
      84A      0.260975    85A      0.267826    86A      0.272929
      87A      0.284200    88A      0.288673    89A      0.301952
      90A      0.313394    91A      0.324664    92A      0.345234
      93A      0.357448    94A      0.378848    95A      0.385547
      96A      0.398587    97A      0.408441    98A      0.416409
      99A      0.430516   100A      0.434947   101A      0.452992
     102A      0.474212   103A      0.478561   104A      0.484240
     105A      0.487960   106A      0.500114   107A      0.507293
     108A      0.510526   109A      0.522263   110A      0.589890
     111A      0.603386   112A      0.612106   113A      0.619365
     114A      0.634251   115A      0.643487   116A      0.646131
     117A      0.660626   118A      0.666100   119A      0.672375
     120A      0.681581   121A      0.698337   122A      0.701083
     123A      0.703292   124A      0.710272   125A      0.721147
     126A      0.723529   127A      0.730292   128A      0.735807
     129A      0.740134   130A      0.744719   131A      0.751100
     132A      0.752580   133A      0.763390   134A      0.766665
     135A      0.777841   136A      0.778939   137A      0.784880
     138A      0.794201   139A      0.796280   140A      0.809052
     141A      0.814068   142A      0.825982   143A      0.833197
     144A      0.840640   145A      0.851199   146A      0.861364
     147A      0.867230   148A      0.882854   149A      0.886519
     150A      0.889487   151A      0.890074   152A      0.894390
     153A      0.898698   154A      0.905806   155A      0.911250
     156A      0.913704   157A      0.919525   158A      0.923920
     159A      0.933074   160A      0.939775   161A      0.951304
     162A      0.957596   163A      0.961123   164A      0.964057
     165A      0.986129   166A      0.990338   167A      0.992856
     168A      1.009424   169A      1.019731   170A      1.027052
     171A      1.033498   172A      1.051453   173A      1.057289
     174A      1.070743   175A      1.072328   176A      1.101118
     177A      1.115640   178A      1.129613   179A      1.133889
     180A      1.137507   181A      1.145900   182A      1.154859
     183A      1.158418   184A      1.163261   185A      1.192345
     186A      1.200873   187A      1.214593   188A      1.219295
     189A      1.231751   190A      1.236086   191A      1.238053
     192A      1.251650   193A      1.255249   194A      1.270418
     195A      1.275251   196A      1.279154   197A      1.287053
     198A      1.294088   199A      1.301841   200A      1.314605
     201A      1.323004   202A      1.332923   203A      1.337115
     204A      1.353038   205A      1.356951   206A      1.361742
     207A      1.379647   208A      1.384817   209A      1.389979
     210A      1.431988   211A      1.448638   212A      1.457074
     213A      1.459849   214A      1.490520   215A      1.516545
     216A      1.538261   217A      1.561540   218A      1.573276
     219A      1.592808   220A      1.605809   221A      1.615938
     222A      1.628888   223A      1.630872   224A      1.635844
     225A      1.649179   226A      1.656193   227A      1.684695
     228A      1.692791   229A      1.704563   230A      1.714399
     231A      1.737498   232A      1.741373   233A      1.748076
     234A      1.768109   235A      1.777399   236A      1.779637
     237A      1.794179   238A      1.799653   239A      1.814727
     240A      1.826227   241A      1.835028   242A      1.847092
     243A      1.868097   244A      1.873626   245A      1.885455
     246A      1.893712   247A      1.895786   248A      1.903193
     249A      1.904252   250A      1.912109   251A      1.920019
     252A      1.924103   253A      1.931677   254A      1.938487
     255A      1.945029   256A      1.945973   257A      1.951316
     258A      1.958610   259A      1.971052   260A      1.975307
     261A      1.981580   262A      1.984745   263A      1.999428
     264A      2.007371   265A      2.012354   266A      2.016445
     267A      2.028445   268A      2.034381   269A      2.048980
     270A      2.057425   271A      2.063091   272A      2.068552
     273A      2.083118   274A      2.087894   275A      2.095296
     276A      2.096330   277A      2.098270   278A      2.108694
     279A      2.118541   280A      2.127016   281A      2.142259
     282A      2.154347   283A      2.162592   284A      2.167938
     285A      2.171531   286A      2.174685   287A      2.184085
     288A      2.206659   289A      2.210351   290A      2.251461
     291A      2.258484   292A      2.265540   293A      2.278908
     294A      2.286231   295A      2.293400   296A      2.319031
     297A      2.321057   298A      2.328346   299A      2.340222
     300A      2.350101   301A      2.360362   302A      2.366190
     303A      2.374495   304A      2.405403   305A      2.424446
     306A      2.437834   307A      2.450789   308A      2.462524
     309A      2.478387   310A      2.489758   311A      2.503990
     312A      2.517909   313A      2.541061   314A      2.548110
     315A      2.556999   316A      2.591931   317A      2.597822
     318A      2.615097   319A      2.636913   320A      2.644234
     321A      2.653623   322A      2.672836   323A      2.694865
     324A      2.714306   325A      2.773378   326A      2.778302
     327A      2.782132   328A      2.791649   329A      2.793713
     330A      2.811941   331A      2.822750   332A      2.836380
     333A      2.846360   334A      2.872784   335A      2.879780
     336A      2.884041   337A      2.889016   338A      2.910028
     339A      2.918481   340A      2.977335   341A      2.982876
     342A      3.008013   343A      3.031693   344A      3.048473
     345A      3.059317   346A      3.084668   347A      3.118562
     348A      3.133005   349A      3.184388   350A      3.216535
     351A      3.262812   352A      3.319164   353A      3.329858
     354A      3.355005   355A      3.390474   356A      3.582043
     357A      3.680999   358A      3.746021   359A      3.961927
     360A      3.995256   361A      4.158887

    Final Occupation by Irrep:
              A
    DOCC [    68 ]

  @RHF Final Energy:  -784.18845988082296

   => Energetics <=

    Nuclear Repulsion Energy =           1310.1205902915523893
    One-Electron Energy =               -3666.7542719001003206
    Two-Electron Energy =                1572.4452217277246291
    Total Energy =                       -784.1884598808230749

Computation Completed

Properties will be evaluated at   0.000000,   0.000000,   0.000000 [a0]

Properties computed using the SCF density matrix

  Nuclear Dipole Moment: [e a0]
     X:     7.4257      Y:    -3.5290      Z:    -5.6880

  Electronic Dipole Moment: [e a0]
     X:    -7.2949      Y:     4.2146      Z:     5.8314

  Dipole Moment: [e a0]
     X:     0.1308      Y:     0.6856      Z:     0.1434     Total:     0.7126

  Dipole Moment: [D]
     X:     0.3325      Y:     1.7427      Z:     0.3644     Total:     1.8112

*** tstop() called on ds3 at Mon Apr 27 12:33:13 2020
Module time:
	user time   =     591.75 seconds =       9.86 minutes
	system time =     634.56 seconds =      10.58 minutes
	total time  =      29992 seconds =     499.87 minutes
Total time:
	user time   =     591.75 seconds =       9.86 minutes
	system time =     634.56 seconds =      10.58 minutes
	total time  =      29992 seconds =     499.87 minutes
                                     G D M A

                                 by Anthony Stone

                           version 2.2.06, 22 June 2011

               Distributed Multipoles from Gaussian wavefunctions

Starting at 12:33:13 on 27 Apr 2020

Using SCF density matrix from file ./SSI/SSI-009TYR-303TRP-1-dimer.test.22991.fchk

                         Distributed Multipole Analysis

Standard DMA

Positions and radii in angstrom
Multipole moments in atomic units, ea_0^k for rank k

C          x =  1.124515  y = -0.838297  z = -2.129048 angstrom
           Maximum rank =  0   Radius =  0.650 angstrom
                   Q00  =  -0.031528

C          x =  1.934515  y = -1.444297  z = -3.277048 angstrom
           Maximum rank =  0   Radius =  0.650 angstrom
                   Q00  =  -0.223483

C          x = -0.129485  y = -1.621297  z = -1.818048 angstrom
           Maximum rank =  0   Radius =  0.650 angstrom
                   Q00  =  -0.157926

C          x = -1.347485  y = -1.265297  z = -2.386048 angstrom
           Maximum rank =  0   Radius =  0.650 angstrom
                   Q00  =   0.062422

C          x = -0.091485  y = -2.723297  z = -0.964048 angstrom
           Maximum rank =  0   Radius =  0.650 angstrom
                   Q00  =  -0.061702

C          x = -2.502485  y = -1.982297  z = -2.126048 angstrom
           Maximum rank =  0   Radius =  0.650 angstrom
                   Q00  =  -0.178264

C          x = -1.245485  y = -3.447297  z = -0.691048 angstrom
           Maximum rank =  0   Radius =  0.650 angstrom
                   Q00  =  -0.091354

C          x = -2.450485  y = -3.072297  z = -1.271048 angstrom
           Maximum rank =  0   Radius =  0.650 angstrom
                   Q00  =   0.291639

O          x = -3.577485  y = -3.781297  z = -1.010048 angstrom
           Maximum rank =  0   Radius =  0.650 angstrom
                   Q00  =  -0.669620

H          x =  1.748515  y = -0.767297  z = -1.237048 angstrom
           Maximum rank =  0   Radius =  0.325 angstrom
                   Q00  =   0.066418

H          x =  0.831515  y =  0.175703  z = -2.406048 angstrom
           Maximum rank =  0   Radius =  0.325 angstrom
                   Q00  =   0.066070

H          x =  1.232515  y = -1.786297  z = -4.033048 angstrom
           Maximum rank =  0   Radius =  0.325 angstrom
                   Q00  =   0.081768

H          x = -1.431485  y = -0.371297  z = -2.908048 angstrom
           Maximum rank =  0   Radius =  0.325 angstrom
                   Q00  =   0.067384

H          x =  0.840515  y = -3.021297  z = -0.505048 angstrom
           Maximum rank =  0   Radius =  0.325 angstrom
                   Q00  =   0.061240

H          x = -3.448485  y = -1.657297  z = -2.521048 angstrom
           Maximum rank =  0   Radius =  0.325 angstrom
                   Q00  =   0.071529

H          x = -1.227485  y = -4.307297  z = -0.057048 angstrom
           Maximum rank =  0   Radius =  0.325 angstrom
                   Q00  =   0.079571

H          x = -4.268485  y = -3.630297  z = -1.691048 angstrom
           Maximum rank =  0   Radius =  0.325 angstrom
                   Q00  =   0.412889

H          x =  2.540277  y = -2.293267  z = -2.927338 angstrom
           Maximum rank =  0   Radius =  0.325 angstrom
                   Q00  =   0.079246

H          x =  2.585209  y = -0.694947  z = -3.751468 angstrom
           Maximum rank =  0   Radius =  0.325 angstrom
                   Q00  =   0.081570

C          x =  1.832515  y = -0.341297  z =  2.989952 angstrom
           Maximum rank =  0   Radius =  0.650 angstrom
                   Q00  =  -0.209488

C          x =  0.876515  y =  1.647703  z =  1.602952 angstrom
           Maximum rank =  0   Radius =  0.650 angstrom
                   Q00  =  -0.050822

C          x =  1.591515  y =  1.102703  z =  2.718952 angstrom
           Maximum rank =  0   Radius =  0.650 angstrom
                   Q00  =  -0.121850

C          x =  0.894515  y =  3.058703  z =  1.735952 angstrom
           Maximum rank =  0   Radius =  0.650 angstrom
                   Q00  =   0.299493

C          x =  2.009515  y =  2.162703  z =  3.458952 angstrom
           Maximum rank =  0   Radius =  0.650 angstrom
                   Q00  =   0.071205

C          x = -0.395485  y =  1.923703  z = -0.415048 angstrom
           Maximum rank =  0   Radius =  0.650 angstrom
                   Q00  =  -0.080353

C          x = -0.360485  y =  3.316703  z = -0.259048 angstrom
           Maximum rank =  0   Radius =  0.650 angstrom
                   Q00  =  -0.076030

C          x =  0.217515  y =  1.082703  z =  0.507952 angstrom
           Maximum rank =  0   Radius =  0.650 angstrom
                   Q00  =  -0.104845

C          x =  0.283515  y =  3.899703  z =  0.816952 angstrom
           Maximum rank =  0   Radius =  0.650 angstrom
                   Q00  =  -0.122492

N          x =  1.593515  y =  3.337703  z =  2.878952 angstrom
           Maximum rank =  0   Radius =  0.650 angstrom
                   Q00  =  -0.494501

H          x = -0.928485  y =  1.499703  z = -1.256048 angstrom
           Maximum rank =  0   Radius =  0.325 angstrom
                   Q00  =   0.053114

H          x = -0.862485  y =  3.939703  z = -0.987048 angstrom
           Maximum rank =  0   Radius =  0.325 angstrom
                   Q00  =   0.060503

H          x =  0.150515  y =  0.008703  z =  0.408952 angstrom
           Maximum rank =  0   Radius =  0.325 angstrom
                   Q00  =   0.079507

H          x =  0.302515  y =  4.973703  z =  0.943952 angstrom
           Maximum rank =  0   Radius =  0.325 angstrom
                   Q00  =   0.071238

H          x =  0.908515  y = -0.879297  z =  2.775952 angstrom
           Maximum rank =  0   Radius =  0.325 angstrom
                   Q00  =   0.102814

H          x =  2.055515  y = -0.482297  z =  4.049952 angstrom
           Maximum rank =  0   Radius =  0.325 angstrom
                   Q00  =   0.104212

H          x =  2.572515  y =  2.080703  z =  4.380952 angstrom
           Maximum rank =  0   Radius =  0.325 angstrom
                   Q00  =   0.099696

H          x =  1.713515  y =  4.251703  z =  3.299952 angstrom
           Maximum rank =  0   Radius =  0.325 angstrom
                   Q00  =   0.215269

H          x =  2.629582  y = -0.773707  z =  2.367292 angstrom
           Maximum rank =  0   Radius =  0.325 angstrom
                   Q00  =   0.095463

Total multipoles referred to origin at
           x =   0.000000,  y =    0.000000,  z =    0.000000 angstrom
                   Q00  =  -0.000000

Finished at 12:33:13 on 27 Apr 2020

  DMA results are available in the Python driver through the
	  variable('DMA DISTRIBUTED MULTIPOLES')
  and
	  variable('DMA TOTAL MULTIPOLES')
  commands.

    Psi4 stopped on: Monday, 27 April 2020 12:33PM
    Psi4 wall time for execution: 8:19:52.43

*** Psi4 exiting successfully. Buy a developer a beer!
