                               Psi4 1.3.2 release

  ==> Input File <==

--------------------------------------------------------------------------
import numpy as np
set {scf_type pk
basis cc-pvdz
d_convergence 10
gdma_switch   0
gdma_limit    0
gdma_origin   [ 0.0,  0.0,  0.0 ]
}
molecule test {
    units Angstrom
    0 1
    --
    0 1
    C                1.885573924352405    -1.368560132889528     0.681374148116119
    C                1.211573924352406    -1.868560132889528     1.956374148116119
    H                1.568573924352406    -1.966560132889528    -0.173625851883881
    H                1.622573924352406    -0.329560132889528     0.504374148116119
    H                2.969573924352405    -1.410560132889528     0.781374148116119
    H                0.133573924352405    -1.830560132889528     1.799374148116119
    H                1.502211924352405    -2.901146132889528     2.199884148116119
    H                1.433243924352406    -1.214451132889528     2.812534148116118
    C               -0.955426075647595     0.811439867110472    -0.435625851883881
    C               -1.713426075647595     2.149439867110472    -0.439625851883881
    C               -0.489426075647595     0.332439867110472    -1.797625851883881
    H               -0.092426075647595     0.911439867110472     0.219374148116119
    H               -1.601426075647594     0.033439867110472    -0.029625851883881
    H               -2.621426075647595     2.051439867110472    -1.021625851883881
    H                0.326573924352405     0.954439867110472    -2.163625851883881
    H               -0.123426075647595    -0.691560132889528    -1.711625851883881
    H               -1.313426075647594     0.350439867110472    -2.508625851883881
    H               -1.977536075647595     2.426503467110471     0.591624148116119
    H               -1.098790075647595     2.947539267110472    -0.881505851883881

}
e, wfn = energy('scf', return_wfn=True)
gdma(wfn)
dmavals = variable('DMA DISTRIBUTED MULTIPOLES')
charges = np.array(dmavals)
print(charges)
np.save('SSI-048VAL-099ILE-1-dimer.npy', np.array(charges))--------------------------------------------------------------------------

*** tstart() called on ds3
*** at Sun Apr 26 20:52:48 2020

   => Loading Basis Set <=

    Name: CC-PVDZ
    Role: ORBITAL
    Keyword: BASIS
    atoms 1-2, 9-11  entry C          line   138 file /theoryfs2/ds/metcalf/miniconda2/envs/tf2gpu/share/psi4/basis/cc-pvdz.gbs
    atoms 3-8, 12-19 entry H          line    22 file /theoryfs2/ds/metcalf/miniconda2/envs/tf2gpu/share/psi4/basis/cc-pvdz.gbs

         ---------------------------------------------------------
                                   SCF
               by Justin Turney, Rob Parrish, Andy Simmonett
                          and Daniel G. A. Smith
                              RHF Reference
                        1 Threads,    500 MiB Core
         ---------------------------------------------------------

  ==> Geometry <==

    Molecular point group: c1
    Full point group: C1

    Geometry (in Angstrom), charge = 0, multiplicity = 1:

       Center              X                  Y                   Z               Mass
    ------------   -----------------  -----------------  -----------------  -----------------
         C            1.885573924352    -1.368560132890     0.681374148116    12.000000000000
         C            1.211573924352    -1.868560132890     1.956374148116    12.000000000000
         H            1.568573924352    -1.966560132890    -0.173625851884     1.007825032230
         H            1.622573924352    -0.329560132890     0.504374148116     1.007825032230
         H            2.969573924352    -1.410560132890     0.781374148116     1.007825032230
         H            0.133573924352    -1.830560132890     1.799374148116     1.007825032230
         H            1.502211924352    -2.901146132890     2.199884148116     1.007825032230
         H            1.433243924352    -1.214451132890     2.812534148116     1.007825032230
         C           -0.955426075648     0.811439867110    -0.435625851884    12.000000000000
         C           -1.713426075648     2.149439867110    -0.439625851884    12.000000000000
         C           -0.489426075648     0.332439867110    -1.797625851884    12.000000000000
         H           -0.092426075648     0.911439867110     0.219374148116     1.007825032230
         H           -1.601426075648     0.033439867110    -0.029625851884     1.007825032230
         H           -2.621426075648     2.051439867110    -1.021625851884     1.007825032230
         H            0.326573924352     0.954439867110    -2.163625851884     1.007825032230
         H           -0.123426075648    -0.691560132890    -1.711625851884     1.007825032230
         H           -1.313426075648     0.350439867110    -2.508625851884     1.007825032230
         H           -1.977536075648     2.426503467110     0.591624148116     1.007825032230
         H           -1.098790075648     2.947539267110    -0.881505851884     1.007825032230

  Running in c1 symmetry.

  Rotational constants: A =      0.22702  B =      0.04407  C =      0.03944 [cm^-1]
  Rotational constants: A =   6805.77506  B =   1321.24164  C =   1182.38220 [MHz]
  Nuclear repulsion =  180.485993589902222

  Charge       = 0
  Multiplicity = 1
  Electrons    = 44
  Nalpha       = 22
  Nbeta        = 22

  ==> Algorithm <==

  SCF Algorithm Type is PK.
  DIIS enabled.
  MOM disabled.
  Fractional occupation disabled.
  Guess Type is SAD.
  Energy threshold   = 1.00e-06
  Density threshold  = 1.00e-10
  Integral threshold = 0.00e+00

  ==> Primary Basis <==

  Basis Set: CC-PVDZ
    Blend: CC-PVDZ
    Number of shells: 72
    Number of basis function: 140
    Number of Cartesian functions: 145
    Spherical Harmonics?: true
    Max angular momentum: 2

  ==> Pre-Iterations <==

   -------------------------------------------------------
    Irrep   Nso     Nmo     Nalpha   Nbeta   Ndocc  Nsocc
   -------------------------------------------------------
     A        140     140       0       0       0       0
   -------------------------------------------------------
    Total     140     140      22      22      22       0
   -------------------------------------------------------

  ==> Integral Setup <==

  Using integral reordering PK algorithm.
  Sizing the integral batches needed.
  Building batch lookup table.
   Calculation information:
      Number of atoms:                  19
      Number of AO shells:              72
      Number of primitives:            180
      Number of atomic orbitals:       145
      Number of basis functions:       140

      Integral cutoff                 1.00e-12
      Number of threads:                 1

	Batch   1 pq = [       0,    9405] index = [             0,44231715] size =     44231715
	Batch   2 pq = [    9405,    9870] index = [      44231715,48713385] size =      4481670
  Task number: 5
  Buffer size: 11059200
  Buffer per thread: 2
  We computed 2985263 shell quartets total.
  Whereas there are 3454506 unique shell quartets.

  ==> DiskJK: Disk-Based J/K Matrices <==

    J tasked:                  Yes
    K tasked:                  Yes
    wK tasked:                  No
    Memory [MiB]:              375
    Schwarz Cutoff:          1E-12

    OpenMP threads:              1

  Minimum eigenvalue in the overlap matrix is 5.3488168071E-03.
  Using Symmetric Orthogonalization.

  SCF Guess: Superposition of Atomic Densities via on-the-fly atomic UHF.

  ==> Iterations <==

                        Total Energy        Delta E     RMS |[F,P]|

   @RHF iter SAD:  -196.38455502666886   -1.96385e+02   0.00000e+00
   @RHF iter   1:  -197.31149305935091   -9.26938e-01   3.80621e-03 DIIS
   @RHF iter   2:  -197.47201088849840   -1.60518e-01   1.63570e-03 DIIS
   @RHF iter   3:  -197.50028057131058   -2.82697e-02   3.25773e-04 DIIS
   @RHF iter   4:  -197.50249592866845   -2.21536e-03   4.95437e-05 DIIS
   @RHF iter   5:  -197.50253499139663   -3.90627e-05   1.50809e-05 DIIS
   @RHF iter   6:  -197.50253840685198   -3.41546e-06   2.24428e-06 DIIS
   @RHF iter   7:  -197.50253850036896   -9.35170e-08   4.30639e-07 DIIS
   @RHF iter   8:  -197.50253850390462   -3.53566e-09   1.15615e-07 DIIS
   @RHF iter   9:  -197.50253850414430   -2.39680e-10   3.28131e-08 DIIS
   @RHF iter  10:  -197.50253850416888   -2.45848e-11   7.36383e-09 DIIS
   @RHF iter  11:  -197.50253850416922   -3.41061e-13   1.48657e-09 DIIS
   @RHF iter  12:  -197.50253850417045   -1.22213e-12   3.02863e-10 DIIS
   @RHF iter  13:  -197.50253850417056   -1.13687e-13   5.32127e-11 DIIS
  Energy and wave function converged.

  ==> Post-Iterations <==

    Orbital Energies [Eh]
    ---------------------

    Doubly Occupied:

       1A    -11.219109     2A    -11.218874     3A    -11.217445
       4A    -11.216210     5A    -11.213794     6A     -1.053625
       7A     -1.018429     8A     -0.926852     9A     -0.838086
      10A     -0.796454    11A     -0.628347    12A     -0.601487
      13A     -0.597545    14A     -0.588979    15A     -0.550862
      16A     -0.534712    17A     -0.503263    18A     -0.489220
      19A     -0.484030    20A     -0.472680    21A     -0.466110
      22A     -0.465643

    Virtual:

      23A      0.169243    24A      0.196749    25A      0.217406
      26A      0.219734    27A      0.240576    28A      0.243900
      29A      0.256150    30A      0.269831    31A      0.274964
      32A      0.279721    33A      0.299752    34A      0.314813
      35A      0.336019    36A      0.361040    37A      0.381005
      38A      0.406325    39A      0.428430    40A      0.566401
      41A      0.581585    42A      0.594984    43A      0.596531
      44A      0.608202    45A      0.613200    46A      0.634807
      47A      0.672875    48A      0.705379    49A      0.764815
      50A      0.790387    51A      0.809777    52A      0.849892
      53A      0.855274    54A      0.878005    55A      0.882748
      56A      0.889178    57A      0.895356    58A      0.899192
      59A      0.900230    60A      0.907675    61A      0.921068
      62A      0.923628    63A      0.947047    64A      0.956102
      65A      0.960515    66A      0.985410    67A      1.001565
      68A      1.009821    69A      1.121504    70A      1.130266
      71A      1.139423    72A      1.146885    73A      1.199641
      74A      1.267517    75A      1.380547    76A      1.460937
      77A      1.472511    78A      1.478180    79A      1.489258
      80A      1.522880    81A      1.583401    82A      1.638266
      83A      1.667310    84A      1.686688    85A      1.689721
      86A      1.700154    87A      1.714073    88A      1.849920
      89A      1.869461    90A      1.874758    91A      1.877174
      92A      1.890300    93A      1.912788    94A      1.924106
      95A      1.936779    96A      1.941267    97A      1.944062
      98A      1.946641    99A      1.955402   100A      1.964186
     101A      1.970743   102A      1.973510   103A      1.987536
     104A      1.998571   105A      2.008150   106A      2.040115
     107A      2.047101   108A      2.095786   109A      2.117136
     110A      2.145179   111A      2.161008   112A      2.290874
     113A      2.307457   114A      2.309735   115A      2.316992
     116A      2.346266   117A      2.347867   118A      2.455139
     119A      2.464143   120A      2.492245   121A      2.534257
     122A      2.558238   123A      2.570274   124A      2.597781
     125A      2.620149   126A      2.633034   127A      2.756599
     128A      2.762162   129A      2.771895   130A      2.794527
     131A      2.803013   132A      2.830154   133A      2.859564
     134A      2.875106   135A      2.917945   136A      2.951169
     137A      2.969071   138A      2.979848   139A      2.992007
     140A      3.063214

    Final Occupation by Irrep:
              A
    DOCC [    22 ]

  @RHF Final Energy:  -197.50253850417056

   => Energetics <=

    Nuclear Repulsion Energy =            180.4859935899022219
    One-Electron Energy =                -621.7735527069694399
    Two-Electron Energy =                 243.7850206128966306
    Total Energy =                       -197.5025385041705590

Computation Completed

Properties will be evaluated at   0.000000,   0.000000,   0.000000 [a0]

Properties computed using the SCF density matrix

  Nuclear Dipole Moment: [e a0]
     X:     0.6824      Y:    -0.6273      Z:     0.3921

  Electronic Dipole Moment: [e a0]
     X:    -0.6837      Y:     0.6157      Z:    -0.3781

  Dipole Moment: [e a0]
     X:    -0.0013      Y:    -0.0116      Z:     0.0140     Total:     0.0183

  Dipole Moment: [D]
     X:    -0.0033      Y:    -0.0295      Z:     0.0356     Total:     0.0464

*** tstop() called on ds3 at Sun Apr 26 20:53:13 2020
Module time:
	user time   =      17.45 seconds =       0.29 minutes
	system time =       8.40 seconds =       0.14 minutes
	total time  =         25 seconds =       0.42 minutes
Total time:
	user time   =      17.45 seconds =       0.29 minutes
	system time =       8.40 seconds =       0.14 minutes
	total time  =         25 seconds =       0.42 minutes
                                     G D M A

                                 by Anthony Stone

                           version 2.2.06, 22 June 2011

               Distributed Multipoles from Gaussian wavefunctions

Starting at 20:53:13 on 26 Apr 2020

Using SCF density matrix from file ./SSI/SSI-048VAL-099ILE-1-dimer.test.10540.fchk

                         Distributed Multipole Analysis

Standard DMA

Positions and radii in angstrom
Multipole moments in atomic units, ea_0^k for rank k

C          x =  1.885574  y = -1.368560  z =  0.681374 angstrom
           Maximum rank =  0   Radius =  0.650 angstrom
                   Q00  =  -0.239274

C          x =  1.211574  y = -1.868560  z =  1.956374 angstrom
           Maximum rank =  0   Radius =  0.650 angstrom
                   Q00  =  -0.239171

H          x =  1.568574  y = -1.966560  z = -0.173626 angstrom
           Maximum rank =  0   Radius =  0.325 angstrom
                   Q00  =   0.080028

H          x =  1.622574  y = -0.329560  z =  0.504374 angstrom
           Maximum rank =  0   Radius =  0.325 angstrom
                   Q00  =   0.082443

H          x =  2.969574  y = -1.410560  z =  0.781374 angstrom
           Maximum rank =  0   Radius =  0.325 angstrom
                   Q00  =   0.077973

H          x =  0.133574  y = -1.830560  z =  1.799374 angstrom
           Maximum rank =  0   Radius =  0.325 angstrom
                   Q00  =   0.076883

H          x =  1.502212  y = -2.901146  z =  2.199884 angstrom
           Maximum rank =  0   Radius =  0.325 angstrom
                   Q00  =   0.081087

H          x =  1.433244  y = -1.214451  z =  2.812534 angstrom
           Maximum rank =  0   Radius =  0.325 angstrom
                   Q00  =   0.078555

C          x = -0.955426  y =  0.811440  z = -0.435626 angstrom
           Maximum rank =  0   Radius =  0.650 angstrom
                   Q00  =  -0.074899

C          x = -1.713426  y =  2.149440  z = -0.439626 angstrom
           Maximum rank =  0   Radius =  0.650 angstrom
                   Q00  =  -0.245814

C          x = -0.489426  y =  0.332440  z = -1.797626 angstrom
           Maximum rank =  0   Radius =  0.650 angstrom
                   Q00  =  -0.243707

H          x = -0.092426  y =  0.911440  z =  0.219374 angstrom
           Maximum rank =  0   Radius =  0.325 angstrom
                   Q00  =   0.043527

H          x = -1.601426  y =  0.033440  z = -0.029626 angstrom
           Maximum rank =  0   Radius =  0.325 angstrom
                   Q00  =   0.043898

H          x = -2.621426  y =  2.051440  z = -1.021626 angstrom
           Maximum rank =  0   Radius =  0.325 angstrom
                   Q00  =   0.079065

H          x =  0.326574  y =  0.954440  z = -2.163626 angstrom
           Maximum rank =  0   Radius =  0.325 angstrom
                   Q00  =   0.077032

H          x = -0.123426  y = -0.691560  z = -1.711626 angstrom
           Maximum rank =  0   Radius =  0.325 angstrom
                   Q00  =   0.084389

H          x = -1.313426  y =  0.350440  z = -2.508626 angstrom
           Maximum rank =  0   Radius =  0.325 angstrom
                   Q00  =   0.076563

H          x = -1.977536  y =  2.426503  z =  0.591624 angstrom
           Maximum rank =  0   Radius =  0.325 angstrom
                   Q00  =   0.084799

H          x = -1.098790  y =  2.947539  z = -0.881506 angstrom
           Maximum rank =  0   Radius =  0.325 angstrom
                   Q00  =   0.076624

Total multipoles referred to origin at
           x =   0.000000,  y =    0.000000,  z =    0.000000 angstrom
                   Q00  =  -0.000000

Finished at 20:53:13 on 26 Apr 2020

  DMA results are available in the Python driver through the
	  variable('DMA DISTRIBUTED MULTIPOLES')
  and
	  variable('DMA TOTAL MULTIPOLES')
  commands.

    Psi4 stopped on: Sunday, 26 April 2020 08:53PM
    Psi4 wall time for execution: 0:00:25.32

*** Psi4 exiting successfully. Buy a developer a beer!
