                               Psi4 1.3.2 release

  ==> Input File <==

--------------------------------------------------------------------------
import numpy as np
set {scf_type pk
basis cc-pvdz
d_convergence 10
gdma_switch   0
gdma_limit    0
gdma_origin   [ 0.0,  0.0,  0.0 ]
}
molecule test {
    units Angstrom
    1 1
    --
    1 1
    C                0.232337612089629    -2.430595427211971    -2.910088073565529
    C                0.756337612089629    -2.011595427211970    -1.558088073565530
    O                1.934337612089629    -2.230595427211971    -1.261088073565530
    N               -0.097662387910371    -1.440595427211971    -0.710088073565529
    H                0.196337612089629    -1.628595427211971     0.248911926434471
    H               -1.058662387910371    -1.529595427211971    -0.996088073565530
    H                0.438337612089629    -3.490595427211971    -3.065088073565529
    H                0.770337612089629    -1.845595427211970    -3.655088073565529
    H               -0.849042387910371    -2.249637427211971    -2.998750073565530
    C               -1.338662387910371     1.758404572788029    -0.617088073565530
    C               -0.363662387910371     1.586404572788029     1.726911926434471
    N                0.135337612089629     0.373404572788029     1.540911926434471
    N               -1.016662387910371     2.243404572788029     0.760911926434470
    N               -0.233662387910371     2.147404572788029     2.924911926434471
    H                0.437337612089629     0.173404572788029     0.597911926434471
    H                0.601337612089629    -0.082595427211971     2.317911926434470
    H               -1.328662387910371     3.191404572788029     0.998911926434470
    H               -0.482662387910371     3.123404572788029     3.030911926434471
    H                0.258337612089629     1.678404572788029     3.671911926434471
    H               -2.335662387910371     2.120404572788029    -0.883088073565530
    H               -1.371662387910371     0.679404572788029    -0.661088073565529
    H               -0.628732387910371     2.148174572788029    -1.361458073565530

}
e, wfn = energy('scf', return_wfn=True)
gdma(wfn)
dmavals = variable('DMA DISTRIBUTED MULTIPOLES')
charges = np.array(dmavals)
print(charges)
np.save('SSI-130GLN-137ARG-1-dimer.npy', np.array(charges))--------------------------------------------------------------------------

*** tstart() called on ds3
*** at Mon Apr 27 19:41:00 2020

   => Loading Basis Set <=

    Name: CC-PVDZ
    Role: ORBITAL
    Keyword: BASIS
    atoms 1-2, 10-11 entry C          line   138 file /theoryfs2/ds/metcalf/miniconda2/envs/tf2gpu/share/psi4/basis/cc-pvdz.gbs
    atoms 3          entry O          line   198 file /theoryfs2/ds/metcalf/miniconda2/envs/tf2gpu/share/psi4/basis/cc-pvdz.gbs
    atoms 4, 12-14   entry N          line   168 file /theoryfs2/ds/metcalf/miniconda2/envs/tf2gpu/share/psi4/basis/cc-pvdz.gbs
    atoms 5-9, 15-22 entry H          line    22 file /theoryfs2/ds/metcalf/miniconda2/envs/tf2gpu/share/psi4/basis/cc-pvdz.gbs

         ---------------------------------------------------------
                                   SCF
               by Justin Turney, Rob Parrish, Andy Simmonett
                          and Daniel G. A. Smith
                              RHF Reference
                        1 Threads,    500 MiB Core
         ---------------------------------------------------------

  ==> Geometry <==

    Molecular point group: c1
    Full point group: C1

    Geometry (in Angstrom), charge = 1, multiplicity = 1:

       Center              X                  Y                   Z               Mass
    ------------   -----------------  -----------------  -----------------  -----------------
         C            0.232337612090    -2.430595427212    -2.910088073566    12.000000000000
         C            0.756337612090    -2.011595427212    -1.558088073566    12.000000000000
         O            1.934337612090    -2.230595427212    -1.261088073566    15.994914619570
         N           -0.097662387910    -1.440595427212    -0.710088073566    14.003074004430
         H            0.196337612090    -1.628595427212     0.248911926434     1.007825032230
         H           -1.058662387910    -1.529595427212    -0.996088073566     1.007825032230
         H            0.438337612090    -3.490595427212    -3.065088073566     1.007825032230
         H            0.770337612090    -1.845595427212    -3.655088073566     1.007825032230
         H           -0.849042387910    -2.249637427212    -2.998750073566     1.007825032230
         C           -1.338662387910     1.758404572788    -0.617088073566    12.000000000000
         C           -0.363662387910     1.586404572788     1.726911926434    12.000000000000
         N            0.135337612090     0.373404572788     1.540911926434    14.003074004430
         N           -1.016662387910     2.243404572788     0.760911926434    14.003074004430
         N           -0.233662387910     2.147404572788     2.924911926434    14.003074004430
         H            0.437337612090     0.173404572788     0.597911926434     1.007825032230
         H            0.601337612090    -0.082595427212     2.317911926434     1.007825032230
         H           -1.328662387910     3.191404572788     0.998911926434     1.007825032230
         H           -0.482662387910     3.123404572788     3.030911926434     1.007825032230
         H            0.258337612090     1.678404572788     3.671911926434     1.007825032230
         H           -2.335662387910     2.120404572788    -0.883088073566     1.007825032230
         H           -1.371662387910     0.679404572788    -0.661088073566     1.007825032230
         H           -0.628732387910     2.148174572788    -1.361458073566     1.007825032230

  Running in c1 symmetry.

  Rotational constants: A =      0.09669  B =      0.01900  C =      0.01653 [cm^-1]
  Rotational constants: A =   2898.75555  B =    569.69024  C =    495.58801 [MHz]
  Nuclear repulsion =  459.969244164940505

  Charge       = 1
  Multiplicity = 1
  Electrons    = 72
  Nalpha       = 36
  Nbeta        = 36

  ==> Algorithm <==

  SCF Algorithm Type is PK.
  DIIS enabled.
  MOM disabled.
  Fractional occupation disabled.
  Guess Type is SAD.
  Energy threshold   = 1.00e-06
  Density threshold  = 1.00e-10
  Integral threshold = 0.00e+00

  ==> Primary Basis <==

  Basis Set: CC-PVDZ
    Blend: CC-PVDZ
    Number of shells: 93
    Number of basis function: 191
    Number of Cartesian functions: 200
    Spherical Harmonics?: true
    Max angular momentum: 2

  ==> Pre-Iterations <==

   -------------------------------------------------------
    Irrep   Nso     Nmo     Nalpha   Nbeta   Ndocc  Nsocc
   -------------------------------------------------------
     A        191     191       0       0       0       0
   -------------------------------------------------------
    Total     191     191      36      36      36       0
   -------------------------------------------------------

  ==> Integral Setup <==

  Using integral reordering PK algorithm.
  Sizing the integral batches needed.
  Building batch lookup table.
   Calculation information:
      Number of atoms:                  22
      Number of AO shells:              93
      Number of primitives:            263
      Number of atomic orbitals:       200
      Number of basis functions:       191

      Integral cutoff                 1.00e-12
      Number of threads:                 1

	Batch   1 pq = [       0,    9405] index = [             0,44231715] size =     44231715
	Batch   2 pq = [    9405,   13301] index = [      44231715,88464951] size =     44233236
	Batch   3 pq = [   13301,   16290] index = [      88464951,132690195] size =     44225244
	Batch   4 pq = [   16290,   18336] index = [     132690195,168113616] size =     35423421
  Task number: 16
  Buffer size: 11059200
  Buffer per thread: 2
  We computed 7731667 shell quartets total.
  Whereas there are 9555006 unique shell quartets.

  ==> DiskJK: Disk-Based J/K Matrices <==

    J tasked:                  Yes
    K tasked:                  Yes
    wK tasked:                  No
    Memory [MiB]:              375
    Schwarz Cutoff:          1E-12

    OpenMP threads:              1

  Minimum eigenvalue in the overlap matrix is 3.9730902025E-03.
  Using Symmetric Orthogonalization.

  SCF Guess: Superposition of Atomic Densities via on-the-fly atomic UHF.

  ==> Iterations <==

                        Total Energy        Delta E     RMS |[F,P]|

   @RHF iter SAD:  -450.68289383707844   -4.50683e+02   0.00000e+00
   @RHF iter   1:  -451.28506365611628   -6.02170e-01   3.73196e-03 DIIS
   @RHF iter   2:  -451.49961060826047   -2.14547e-01   2.01858e-03 DIIS
   @RHF iter   3:  -451.55485519241040   -5.52446e-02   4.89193e-04 DIIS
   @RHF iter   4:  -451.55988367118539   -5.02848e-03   1.83786e-04 DIIS
   @RHF iter   5:  -451.56063744003740   -7.53769e-04   3.41677e-05 DIIS
   @RHF iter   6:  -451.56069520296808   -5.77629e-05   1.54529e-05 DIIS
   @RHF iter   7:  -451.56070416010988   -8.95714e-06   5.68867e-06 DIIS
   @RHF iter   8:  -451.56070583762539   -1.67752e-06   1.79970e-06 DIIS
   @RHF iter   9:  -451.56070602482720   -1.87202e-07   5.37766e-07 DIIS
   @RHF iter  10:  -451.56070603868716   -1.38600e-08   1.78669e-07 DIIS
   @RHF iter  11:  -451.56070603985330   -1.16614e-09   3.62235e-08 DIIS
   @RHF iter  12:  -451.56070603991316   -5.98561e-11   1.11109e-08 DIIS
   @RHF iter  13:  -451.56070603992123   -8.07177e-12   5.07818e-09 DIIS
   @RHF iter  14:  -451.56070603991895    2.27374e-12   2.27455e-09 DIIS
   @RHF iter  15:  -451.56070603992100   -2.04636e-12   1.00470e-09 DIIS
   @RHF iter  16:  -451.56070603992191   -9.09495e-13   3.83533e-10 DIIS
   @RHF iter  17:  -451.56070603992100    9.09495e-13   1.07641e-10 DIIS
   @RHF iter  18:  -451.56070603992424   -3.24007e-12   3.03166e-11 DIIS
  Energy and wave function converged.

  ==> Post-Iterations <==

    Orbital Energies [Eh]
    ---------------------

    Doubly Occupied:

       1A    -20.622194     2A    -15.791784     3A    -15.788962
       4A    -15.781671     5A    -15.718775     6A    -11.592367
       7A    -11.459836     8A    -11.441477     9A    -11.341028
      10A     -1.538765    11A     -1.484466    12A     -1.395355
      13A     -1.387839    14A     -1.348364    15A     -1.138086
      16A     -1.105314    17A     -1.032820    18A     -0.970613
      19A     -0.938127    20A     -0.906448    21A     -0.867972
      22A     -0.858892    23A     -0.843029    24A     -0.811248
      25A     -0.788607    26A     -0.763268    27A     -0.740843
      28A     -0.730483    29A     -0.716457    30A     -0.679852
      31A     -0.660301    32A     -0.633417    33A     -0.616986
      34A     -0.586664    35A     -0.533592    36A     -0.521831

    Virtual:

      37A     -0.011434    38A      0.012627    39A      0.027562
      40A      0.033797    41A      0.056812    42A      0.063983
      43A      0.086275    44A      0.094532    45A      0.116852
      46A      0.121906    47A      0.132572    48A      0.140139
      49A      0.163731    50A      0.185375    51A      0.189562
      52A      0.210864    53A      0.273338    54A      0.295730
      55A      0.324485    56A      0.332578    57A      0.358155
      58A      0.431588    59A      0.458649    60A      0.478221
      61A      0.508899    62A      0.512410    63A      0.530632
      64A      0.534877    65A      0.544564    66A      0.555438
      67A      0.560256    68A      0.572892    69A      0.599289
      70A      0.613937    71A      0.638396    72A      0.655248
      73A      0.670107    74A      0.693051    75A      0.702529
      76A      0.715331    77A      0.729121    78A      0.748583
      79A      0.759673    80A      0.764871    81A      0.793921
      82A      0.795518    83A      0.804433    84A      0.811813
      85A      0.827950    86A      0.838105    87A      0.845972
      88A      0.877858    89A      0.891543    90A      0.904154
      91A      0.940287    92A      0.956458    93A      0.993587
      94A      0.995904    95A      1.005414    96A      1.036436
      97A      1.063045    98A      1.087902    99A      1.115583
     100A      1.158581   101A      1.176459   102A      1.208611
     103A      1.218071   104A      1.238446   105A      1.251895
     106A      1.285264   107A      1.293453   108A      1.322074
     109A      1.346275   110A      1.372772   111A      1.402561
     112A      1.433055   113A      1.461285   114A      1.506495
     115A      1.520101   116A      1.529809   117A      1.541538
     118A      1.554291   119A      1.563096   120A      1.568094
     121A      1.610534   122A      1.634884   123A      1.671217
     124A      1.678936   125A      1.700611   126A      1.716858
     127A      1.726642   128A      1.758342   129A      1.759686
     130A      1.776234   131A      1.781508   132A      1.790838
     133A      1.801504   134A      1.814454   135A      1.828417
     136A      1.860044   137A      1.874540   138A      1.900274
     139A      1.934126   140A      1.948373   141A      1.963883
     142A      1.990329   143A      2.012940   144A      2.023435
     145A      2.067236   146A      2.101317   147A      2.115268
     148A      2.125675   149A      2.171204   150A      2.196110
     151A      2.222087   152A      2.243800   153A      2.288657
     154A      2.293527   155A      2.297481   156A      2.305763
     157A      2.332731   158A      2.378965   159A      2.395485
     160A      2.403653   161A      2.442694   162A      2.453124
     163A      2.458575   164A      2.549113   165A      2.582963
     166A      2.591057   167A      2.613048   168A      2.648344
     169A      2.658676   170A      2.696750   171A      2.710371
     172A      2.728563   173A      2.747742   174A      2.768159
     175A      2.785613   176A      2.794524   177A      2.823406
     178A      2.882805   179A      2.906003   180A      2.972235
     181A      3.015055   182A      3.059955   183A      3.071718
     184A      3.132333   185A      3.177179   186A      3.291429
     187A      3.420449   188A      3.509765   189A      3.575615
     190A      3.720827   191A      3.773592

    Final Occupation by Irrep:
              A
    DOCC [    36 ]

  @RHF Final Energy:  -451.56070603992424

   => Energetics <=

    Nuclear Repulsion Energy =            459.9692441649405055
    One-Electron Energy =               -1514.7844327913744564
    Two-Electron Energy =                 603.2544825865097664
    Total Energy =                       -451.5607060399242982

Computation Completed

Properties will be evaluated at   0.000000,   0.000000,   0.000000 [a0]

Properties computed using the SCF density matrix

  Nuclear Dipole Moment: [e a0]
     X:    -5.0055      Y:     2.1245      Z:    -2.6011

  Electronic Dipole Moment: [e a0]
     X:     2.9903      Y:     0.7475      Z:     5.0120

  Dipole Moment: [e a0]
     X:    -2.0152      Y:     2.8721      Z:     2.4109     Total:     4.2570

  Dipole Moment: [D]
     X:    -5.1222      Y:     7.3000      Z:     6.1279     Total:    10.8203

*** tstop() called on ds3 at Mon Apr 27 19:42:15 2020
Module time:
	user time   =      51.62 seconds =       0.86 minutes
	system time =      26.22 seconds =       0.44 minutes
	total time  =         75 seconds =       1.25 minutes
Total time:
	user time   =      51.62 seconds =       0.86 minutes
	system time =      26.22 seconds =       0.44 minutes
	total time  =         75 seconds =       1.25 minutes
                                     G D M A

                                 by Anthony Stone

                           version 2.2.06, 22 June 2011

               Distributed Multipoles from Gaussian wavefunctions

Starting at 19:42:15 on 27 Apr 2020

Using SCF density matrix from file ./SSI/SSI-130GLN-137ARG-1-dimer.test.9045.fchk

                         Distributed Multipole Analysis

Standard DMA

Positions and radii in angstrom
Multipole moments in atomic units, ea_0^k for rank k

C          x =  0.232338  y = -2.430595  z = -2.910088 angstrom
           Maximum rank =  0   Radius =  0.650 angstrom
                   Q00  =  -0.264045

C          x =  0.756338  y = -2.011595  z = -1.558088 angstrom
           Maximum rank =  0   Radius =  0.650 angstrom
                   Q00  =   0.774196

O          x =  1.934338  y = -2.230595  z = -1.261088 angstrom
           Maximum rank =  0   Radius =  0.650 angstrom
                   Q00  =  -0.758427

N          x = -0.097662  y = -1.440595  z = -0.710088 angstrom
           Maximum rank =  0   Radius =  0.650 angstrom
                   Q00  =  -0.520336

H          x =  0.196338  y = -1.628595  z =  0.248912 angstrom
           Maximum rank =  0   Radius =  0.325 angstrom
                   Q00  =   0.201731

H          x = -1.058662  y = -1.529595  z = -0.996088 angstrom
           Maximum rank =  0   Radius =  0.325 angstrom
                   Q00  =   0.203005

H          x =  0.438338  y = -3.490595  z = -3.065088 angstrom
           Maximum rank =  0   Radius =  0.325 angstrom
                   Q00  =   0.157180

H          x =  0.770338  y = -1.845595  z = -3.655088 angstrom
           Maximum rank =  0   Radius =  0.325 angstrom
                   Q00  =   0.149190

H          x = -0.849042  y = -2.249637  z = -2.998750 angstrom
           Maximum rank =  0   Radius =  0.325 angstrom
                   Q00  =   0.070989

C          x = -1.338662  y =  1.758405  z = -0.617088 angstrom
           Maximum rank =  0   Radius =  0.650 angstrom
                   Q00  =  -0.118106

C          x = -0.363662  y =  1.586405  z =  1.726912 angstrom
           Maximum rank =  0   Radius =  0.650 angstrom
                   Q00  =   1.089066

N          x =  0.135338  y =  0.373405  z =  1.540912 angstrom
           Maximum rank =  0   Radius =  0.650 angstrom
                   Q00  =  -0.585094

N          x = -1.016662  y =  2.243405  z =  0.760912 angstrom
           Maximum rank =  0   Radius =  0.650 angstrom
                   Q00  =  -0.517898

N          x = -0.233662  y =  2.147405  z =  2.924912 angstrom
           Maximum rank =  0   Radius =  0.650 angstrom
                   Q00  =  -0.599877

H          x =  0.437338  y =  0.173405  z =  0.597912 angstrom
           Maximum rank =  0   Radius =  0.325 angstrom
                   Q00  =   0.278240

H          x =  0.601338  y = -0.082595  z =  2.317912 angstrom
           Maximum rank =  0   Radius =  0.325 angstrom
                   Q00  =   0.259268

H          x = -1.328662  y =  3.191405  z =  0.998912 angstrom
           Maximum rank =  0   Radius =  0.325 angstrom
                   Q00  =   0.233616

H          x = -0.482662  y =  3.123405  z =  3.030912 angstrom
           Maximum rank =  0   Radius =  0.325 angstrom
                   Q00  =   0.261546

H          x =  0.258338  y =  1.678405  z =  3.671912 angstrom
           Maximum rank =  0   Radius =  0.325 angstrom
                   Q00  =   0.269446

H          x = -2.335662  y =  2.120405  z = -0.883088 angstrom
           Maximum rank =  0   Radius =  0.325 angstrom
                   Q00  =   0.150831

H          x = -1.371662  y =  0.679405  z = -0.661088 angstrom
           Maximum rank =  0   Radius =  0.325 angstrom
                   Q00  =   0.128643

H          x = -0.628732  y =  2.148175  z = -1.361458 angstrom
           Maximum rank =  0   Radius =  0.325 angstrom
                   Q00  =   0.136838

Total multipoles referred to origin at
           x =   0.000000,  y =    0.000000,  z =    0.000000 angstrom
                   Q00  =   1.000000

Finished at 19:42:15 on 27 Apr 2020

  DMA results are available in the Python driver through the
	  variable('DMA DISTRIBUTED MULTIPOLES')
  and
	  variable('DMA TOTAL MULTIPOLES')
  commands.

    Psi4 stopped on: Monday, 27 April 2020 07:42PM
    Psi4 wall time for execution: 0:01:15.68

*** Psi4 exiting successfully. Buy a developer a beer!
