                               Psi4 1.3.2 release

  ==> Input File <==

--------------------------------------------------------------------------
import numpy as np
set {scf_type pk
basis cc-pvdz
d_convergence 10
gdma_switch   0
gdma_limit    0
gdma_origin   [ 0.0,  0.0,  0.0 ]
}
molecule test {
    units Angstrom
    0 1
    --
    0 1
    C                3.386713661466446    -0.419139272852627     0.666330480156697
    C                1.994713661466446    -0.162139272852627     1.146330480156697
    O                1.260713661466446    -1.088139272852627     1.489330480156696
    N                1.604713661466446     1.093860727147373     1.156330480156696
    H                3.828713661466447     0.487860727147373     0.251330480156697
    H                3.304713661466447    -1.156139272852627    -0.131669519843303
    H                0.687713661466446     1.328860727147373     1.491330480156696
    H                2.252713661466446     1.824860727147373     0.882330480156697
    H                4.019313661466446    -0.827369272852627     1.468300480156697
    C               -0.713286338533554     0.417860727147373    -1.253669519843303
    C               -1.040286338533554     0.649860727147373    -2.734669519843303
    C               -1.888286338533554    -0.036139272852627    -0.446669519843303
    O               -3.026286338533553     0.333860727147373    -0.719669519843303
    N               -1.614286338533554    -0.811139272852627     0.592330480156697
    H                0.095713661466446    -0.303139272852627    -1.163669519843303
    H               -0.375286338533554     1.354860727147373    -0.818669519843303
    H               -1.907286338533553     1.308860727147373    -2.821669519843303
    H               -2.379286338533554    -1.136139272852627     1.162330480156696
    H               -0.655286338533554    -1.047139272852627     0.821330480156697
    H               -1.246816338533554    -0.311949272852627    -3.226879519843303
    H               -0.183736338533554     1.157600727147373    -3.202137519843303

}
e, wfn = energy('scf', return_wfn=True)
gdma(wfn)
dmavals = variable('DMA DISTRIBUTED MULTIPOLES')
charges = np.array(dmavals)
print(charges)
np.save('SSI-026ASN-054ASN-1-dimer.npy', np.array(charges))--------------------------------------------------------------------------

*** tstart() called on ds3
*** at Sun Apr 26 18:13:59 2020

   => Loading Basis Set <=

    Name: CC-PVDZ
    Role: ORBITAL
    Keyword: BASIS
    atoms 1-2, 10-12 entry C          line   138 file /theoryfs2/ds/metcalf/miniconda2/envs/tf2gpu/share/psi4/basis/cc-pvdz.gbs
    atoms 3, 13      entry O          line   198 file /theoryfs2/ds/metcalf/miniconda2/envs/tf2gpu/share/psi4/basis/cc-pvdz.gbs
    atoms 4, 14      entry N          line   168 file /theoryfs2/ds/metcalf/miniconda2/envs/tf2gpu/share/psi4/basis/cc-pvdz.gbs
    atoms 5-9, 15-21 entry H          line    22 file /theoryfs2/ds/metcalf/miniconda2/envs/tf2gpu/share/psi4/basis/cc-pvdz.gbs

         ---------------------------------------------------------
                                   SCF
               by Justin Turney, Rob Parrish, Andy Simmonett
                          and Daniel G. A. Smith
                              RHF Reference
                        1 Threads,    500 MiB Core
         ---------------------------------------------------------

  ==> Geometry <==

    Molecular point group: c1
    Full point group: C1

    Geometry (in Angstrom), charge = 0, multiplicity = 1:

       Center              X                  Y                   Z               Mass
    ------------   -----------------  -----------------  -----------------  -----------------
         C            3.386713661466    -0.419139272853     0.666330480157    12.000000000000
         C            1.994713661466    -0.162139272853     1.146330480157    12.000000000000
         O            1.260713661466    -1.088139272853     1.489330480157    15.994914619570
         N            1.604713661466     1.093860727147     1.156330480157    14.003074004430
         H            3.828713661466     0.487860727147     0.251330480157     1.007825032230
         H            3.304713661466    -1.156139272853    -0.131669519843     1.007825032230
         H            0.687713661466     1.328860727147     1.491330480157     1.007825032230
         H            2.252713661466     1.824860727147     0.882330480157     1.007825032230
         H            4.019313661466    -0.827369272853     1.468300480157     1.007825032230
         C           -0.713286338534     0.417860727147    -1.253669519843    12.000000000000
         C           -1.040286338534     0.649860727147    -2.734669519843    12.000000000000
         C           -1.888286338534    -0.036139272853    -0.446669519843    12.000000000000
         O           -3.026286338534     0.333860727147    -0.719669519843    15.994914619570
         N           -1.614286338534    -0.811139272853     0.592330480157    14.003074004430
         H            0.095713661466    -0.303139272853    -1.163669519843     1.007825032230
         H           -0.375286338534     1.354860727147    -0.818669519843     1.007825032230
         H           -1.907286338534     1.308860727147    -2.821669519843     1.007825032230
         H           -2.379286338534    -1.136139272853     1.162330480157     1.007825032230
         H           -0.655286338534    -1.047139272853     0.821330480157     1.007825032230
         H           -1.246816338534    -0.311949272853    -3.226879519843     1.007825032230
         H           -0.183736338534     1.157600727147    -3.202137519843     1.007825032230

  Running in c1 symmetry.

  Rotational constants: A =      0.08241  B =      0.02395  C =      0.02078 [cm^-1]
  Rotational constants: A =   2470.67631  B =    718.04589  C =    622.88023 [MHz]
  Nuclear repulsion =  457.255162409538400

  Charge       = 0
  Multiplicity = 1
  Electrons    = 72
  Nalpha       = 36
  Nbeta        = 36

  ==> Algorithm <==

  SCF Algorithm Type is PK.
  DIIS enabled.
  MOM disabled.
  Fractional occupation disabled.
  Guess Type is SAD.
  Energy threshold   = 1.00e-06
  Density threshold  = 1.00e-10
  Integral threshold = 0.00e+00

  ==> Primary Basis <==

  Basis Set: CC-PVDZ
    Blend: CC-PVDZ
    Number of shells: 90
    Number of basis function: 186
    Number of Cartesian functions: 195
    Spherical Harmonics?: true
    Max angular momentum: 2

  ==> Pre-Iterations <==

   -------------------------------------------------------
    Irrep   Nso     Nmo     Nalpha   Nbeta   Ndocc  Nsocc
   -------------------------------------------------------
     A        186     186       0       0       0       0
   -------------------------------------------------------
    Total     186     186      36      36      36       0
   -------------------------------------------------------

  ==> Integral Setup <==

  Using integral reordering PK algorithm.
  Sizing the integral batches needed.
  Building batch lookup table.
   Calculation information:
      Number of atoms:                  21
      Number of AO shells:              90
      Number of primitives:            258
      Number of atomic orbitals:       195
      Number of basis functions:       186

      Integral cutoff                 1.00e-12
      Number of threads:                 1

	Batch   1 pq = [       0,    9405] index = [             0,44231715] size =     44231715
	Batch   2 pq = [    9405,   13301] index = [      44231715,88464951] size =     44233236
	Batch   3 pq = [   13301,   16290] index = [      88464951,132690195] size =     44225244
	Batch   4 pq = [   16290,   17391] index = [     132690195,151232136] size =     18541941
  Task number: 14
  Buffer size: 11059200
  Buffer per thread: 2
  We computed 7271543 shell quartets total.
  Whereas there are 8386560 unique shell quartets.

  ==> DiskJK: Disk-Based J/K Matrices <==

    J tasked:                  Yes
    K tasked:                  Yes
    wK tasked:                  No
    Memory [MiB]:              375
    Schwarz Cutoff:          1E-12

    OpenMP threads:              1

  Minimum eigenvalue in the overlap matrix is 3.2522084360E-03.
  Using Symmetric Orthogonalization.

  SCF Guess: Superposition of Atomic Densities via on-the-fly atomic UHF.

  ==> Iterations <==

                        Total Energy        Delta E     RMS |[F,P]|

   @RHF iter SAD:  -453.67801007107664   -4.53678e+02   0.00000e+00
   @RHF iter   1:  -454.72257681092356   -1.04457e+00   4.16012e-03 DIIS
   @RHF iter   2:  -454.95613713439843   -2.33560e-01   2.37660e-03 DIIS
   @RHF iter   3:  -455.02754031579894   -7.14032e-02   4.71834e-04 DIIS
   @RHF iter   4:  -455.03211681850433   -4.57650e-03   1.82128e-04 DIIS
   @RHF iter   5:  -455.03288544661928   -7.68628e-04   3.11282e-05 DIIS
   @RHF iter   6:  -455.03293352212671   -4.80755e-05   1.45872e-05 DIIS
   @RHF iter   7:  -455.03294124731565   -7.72519e-06   5.81203e-06 DIIS
   @RHF iter   8:  -455.03294295814578   -1.71083e-06   2.08479e-06 DIIS
   @RHF iter   9:  -455.03294316402253   -2.05877e-07   7.69238e-07 DIIS
   @RHF iter  10:  -455.03294318095067   -1.69281e-08   2.45974e-07 DIIS
   @RHF iter  11:  -455.03294318292319   -1.97252e-09   6.20448e-08 DIIS
   @RHF iter  12:  -455.03294318304432   -1.21133e-10   1.96038e-08 DIIS
   @RHF iter  13:  -455.03294318306104   -1.67120e-11   4.83224e-09 DIIS
   @RHF iter  14:  -455.03294318306098    5.68434e-14   1.58089e-09 DIIS
   @RHF iter  15:  -455.03294318306087    1.13687e-13   6.19768e-10 DIIS
   @RHF iter  16:  -455.03294318305944    1.42109e-12   2.74758e-10 DIIS
   @RHF iter  17:  -455.03294318305950   -5.68434e-14   1.07692e-10 DIIS
   @RHF iter  18:  -455.03294318305825    1.25056e-12   3.88525e-11 DIIS
  Energy and wave function converged.

  ==> Post-Iterations <==

    Orbital Energies [Eh]
    ---------------------

    Doubly Occupied:

       1A    -20.528675     2A    -20.487285     3A    -15.613059
       4A    -15.560020     5A    -11.371251     6A    -11.325390
       7A    -11.258902     8A    -11.228272     9A    -11.218862
      10A     -1.396146    11A     -1.352478    12A     -1.245440
      13A     -1.194227    14A     -1.039263    15A     -1.024496
      16A     -0.880680    17A     -0.825401    18A     -0.764172
      19A     -0.751670    20A     -0.706520    21A     -0.676753
      22A     -0.655083    23A     -0.635183    24A     -0.623509
      25A     -0.595747    26A     -0.577432    27A     -0.571904
      28A     -0.544457    29A     -0.541545    30A     -0.508964
      31A     -0.494852    32A     -0.482558    33A     -0.438216
      34A     -0.430700    35A     -0.393866    36A     -0.383294

    Virtual:

      37A      0.144282    38A      0.172702    39A      0.190302
      40A      0.193154    41A      0.204409    42A      0.227035
      43A      0.232466    44A      0.254921    45A      0.263876
      46A      0.267801    47A      0.278363    48A      0.284413
      49A      0.316623    50A      0.358880    51A      0.366200
      52A      0.391602    53A      0.430987    54A      0.476638
      55A      0.487329    56A      0.531514    57A      0.582060
      58A      0.606636    59A      0.617726    60A      0.627174
      61A      0.656830    62A      0.660710    63A      0.680303
      64A      0.692701    65A      0.712245    66A      0.730978
      67A      0.743443    68A      0.769077    69A      0.795389
      70A      0.811659    71A      0.818915    72A      0.834958
      73A      0.856044    74A      0.867716    75A      0.879611
      76A      0.890685    77A      0.897854    78A      0.902044
      79A      0.907354    80A      0.925566    81A      0.932502
      82A      0.947668    83A      0.962843    84A      0.978871
      85A      0.989788    86A      1.038705    87A      1.046359
      88A      1.057085    89A      1.087771    90A      1.091387
      91A      1.125885    92A      1.129718    93A      1.140265
      94A      1.217038    95A      1.293934    96A      1.308601
      97A      1.340490    98A      1.351438    99A      1.377130
     100A      1.384352   101A      1.391108   102A      1.403682
     103A      1.419326   104A      1.428415   105A      1.443643
     106A      1.473917   107A      1.491309   108A      1.518589
     109A      1.526541   110A      1.620851   111A      1.626849
     112A      1.641374   113A      1.679185   114A      1.692301
     115A      1.725420   116A      1.728398   117A      1.784251
     118A      1.806610   119A      1.834076   120A      1.843466
     121A      1.867012   122A      1.878312   123A      1.885232
     124A      1.885872   125A      1.901338   126A      1.904806
     127A      1.937891   128A      1.943063   129A      1.958531
     130A      1.964673   131A      1.982665   132A      1.994926
     133A      2.018398   134A      2.030277   135A      2.043762
     136A      2.057621   137A      2.082133   138A      2.093180
     139A      2.118160   140A      2.180382   141A      2.215442
     142A      2.241109   143A      2.266181   144A      2.288418
     145A      2.306640   146A      2.349206   147A      2.391173
     148A      2.410497   149A      2.426113   150A      2.449296
     151A      2.459154   152A      2.486062   153A      2.520842
     154A      2.555217   155A      2.562972   156A      2.570909
     157A      2.612213   158A      2.621318   159A      2.634718
     160A      2.673232   161A      2.731279   162A      2.762088
     163A      2.768245   164A      2.773640   165A      2.779160
     166A      2.837875   167A      2.849454   168A      2.899133
     169A      2.912373   170A      2.964041   171A      2.979257
     172A      3.020363   173A      3.073172   174A      3.111711
     175A      3.127564   176A      3.164700   177A      3.256824
     178A      3.348206   179A      3.495637   180A      3.506177
     181A      3.531087   182A      3.580118   183A      3.859731
     184A      3.892419   185A      3.920900   186A      3.929525

    Final Occupation by Irrep:
              A
    DOCC [    36 ]

  @RHF Final Energy:  -455.03294318305825

   => Energetics <=

    Nuclear Repulsion Energy =            457.2551624095384000
    One-Electron Energy =               -1527.9236703901208330
    Two-Electron Energy =                 615.6355647975242391
    Total Energy =                       -455.0329431830582507

Computation Completed

Properties will be evaluated at   0.000000,   0.000000,   0.000000 [a0]

Properties computed using the SCF density matrix

  Nuclear Dipole Moment: [e a0]
     X:     6.9674      Y:     2.5089      Z:    -4.9585

  Electronic Dipole Moment: [e a0]
     X:    -4.4597      Y:    -1.6566      Z:     5.3587

  Dipole Moment: [e a0]
     X:     2.5077      Y:     0.8523      Z:     0.4002     Total:     2.6787

  Dipole Moment: [D]
     X:     6.3740      Y:     2.1663      Z:     1.0172     Total:     6.8085

*** tstop() called on ds3 at Sun Apr 26 18:15:13 2020
Module time:
	user time   =      51.09 seconds =       0.85 minutes
	system time =      23.40 seconds =       0.39 minutes
	total time  =         74 seconds =       1.23 minutes
Total time:
	user time   =      51.09 seconds =       0.85 minutes
	system time =      23.40 seconds =       0.39 minutes
	total time  =         74 seconds =       1.23 minutes
                                     G D M A

                                 by Anthony Stone

                           version 2.2.06, 22 June 2011

               Distributed Multipoles from Gaussian wavefunctions

Starting at 18:15:13 on 26 Apr 2020

Using SCF density matrix from file ./SSI/SSI-026ASN-054ASN-1-dimer.test.30303.fchk

                         Distributed Multipole Analysis

Standard DMA

Positions and radii in angstrom
Multipole moments in atomic units, ea_0^k for rank k

C          x =  3.386714  y = -0.419139  z =  0.666330 angstrom
           Maximum rank =  0   Radius =  0.650 angstrom
                   Q00  =  -0.253205

C          x =  1.994714  y = -0.162139  z =  1.146330 angstrom
           Maximum rank =  0   Radius =  0.650 angstrom
                   Q00  =   0.809601

O          x =  1.260714  y = -1.088139  z =  1.489330 angstrom
           Maximum rank =  0   Radius =  0.650 angstrom
                   Q00  =  -0.812171

N          x =  1.604714  y =  1.093861  z =  1.156330 angstrom
           Maximum rank =  0   Radius =  0.650 angstrom
                   Q00  =  -0.510765

H          x =  3.828714  y =  0.487861  z =  0.251330 angstrom
           Maximum rank =  0   Radius =  0.325 angstrom
                   Q00  =   0.075336

H          x =  3.304714  y = -1.156139  z = -0.131670 angstrom
           Maximum rank =  0   Radius =  0.325 angstrom
                   Q00  =   0.134268

H          x =  0.687714  y =  1.328861  z =  1.491330 angstrom
           Maximum rank =  0   Radius =  0.325 angstrom
                   Q00  =   0.227862

H          x =  2.252714  y =  1.824861  z =  0.882330 angstrom
           Maximum rank =  0   Radius =  0.325 angstrom
                   Q00  =   0.214903

H          x =  4.019314  y = -0.827369  z =  1.468300 angstrom
           Maximum rank =  0   Radius =  0.325 angstrom
                   Q00  =   0.141746

C          x = -0.713286  y =  0.417861  z = -1.253670 angstrom
           Maximum rank =  0   Radius =  0.650 angstrom
                   Q00  =  -0.158076

C          x = -1.040286  y =  0.649861  z = -2.734670 angstrom
           Maximum rank =  0   Radius =  0.650 angstrom
                   Q00  =  -0.215277

C          x = -1.888286  y = -0.036139  z = -0.446670 angstrom
           Maximum rank =  0   Radius =  0.650 angstrom
                   Q00  =   0.885355

O          x = -3.026286  y =  0.333861  z = -0.719670 angstrom
           Maximum rank =  0   Radius =  0.650 angstrom
                   Q00  =  -0.836376

N          x = -1.614286  y = -0.811139  z =  0.592330 angstrom
           Maximum rank =  0   Radius =  0.650 angstrom
                   Q00  =  -0.580169

H          x =  0.095714  y = -0.303139  z = -1.163670 angstrom
           Maximum rank =  0   Radius =  0.325 angstrom
                   Q00  =   0.058970

H          x = -0.375286  y =  1.354861  z = -0.818670 angstrom
           Maximum rank =  0   Radius =  0.325 angstrom
                   Q00  =   0.088230

H          x = -1.907286  y =  1.308861  z = -2.821670 angstrom
           Maximum rank =  0   Radius =  0.325 angstrom
                   Q00  =   0.115733

H          x = -2.379286  y = -1.136139  z =  1.162330 angstrom
           Maximum rank =  0   Radius =  0.325 angstrom
                   Q00  =   0.207984

H          x = -0.655286  y = -1.047139  z =  0.821330 angstrom
           Maximum rank =  0   Radius =  0.325 angstrom
                   Q00  =   0.249248

H          x = -1.246816  y = -0.311949  z = -3.226880 angstrom
           Maximum rank =  0   Radius =  0.325 angstrom
                   Q00  =   0.087355

H          x = -0.183736  y =  1.157601  z = -3.202138 angstrom
           Maximum rank =  0   Radius =  0.325 angstrom
                   Q00  =   0.069449

Total multipoles referred to origin at
           x =   0.000000,  y =    0.000000,  z =    0.000000 angstrom
                   Q00  =  -0.000000

Finished at 18:15:13 on 26 Apr 2020

  DMA results are available in the Python driver through the
	  variable('DMA DISTRIBUTED MULTIPOLES')
  and
	  variable('DMA TOTAL MULTIPOLES')
  commands.

    Psi4 stopped on: Sunday, 26 April 2020 06:15PM
    Psi4 wall time for execution: 0:01:13.58

*** Psi4 exiting successfully. Buy a developer a beer!
