                               Psi4 1.3.2 release

  ==> Input File <==

--------------------------------------------------------------------------
import numpy as np
set {scf_type pk
basis cc-pvdz
d_convergence 10
gdma_switch   0
gdma_limit    0
gdma_origin   [ 0.0,  0.0,  0.0 ]
}
molecule test {
    units Angstrom
    0 1
    --
    0 1
    C               -0.774637780679401    -3.407209141663810    -1.108079980878093
    C               -1.406637780679401    -4.719209141663811    -0.652079980878093
    H                0.050362219320599    -3.157209141663810    -0.445079980878093
    H               -0.378637780679401    -3.513209141663811    -2.117079980878093
    H               -1.480637780679401    -2.581209141663810    -1.138079980878093
    H               -2.134637780679401    -5.027209141663810    -1.404079980878093
    H               -1.933827780679401    -4.599199141663810     0.305868019121907
    H               -0.631517780679401    -5.495759141663810    -0.573640980878093
    C                0.143362219320599     2.638790858336189    -1.783079980878093
    C                0.454362219320599    -0.294209141663810     0.636920019121907
    C                0.350362219320599     0.437790858336190    -0.550079980878093
    C                0.482362219320599     0.345790858336190     1.869920019121907
    C                0.288362219320599     1.821790858336190    -0.521079980878093
    C                0.444362219320599     1.713790858336190     1.902920019121907
    C                0.348362219320599     2.447790858336189     0.719920019121907
    H                0.508362219320599    -1.366209141663810     0.602920019121907
    H                0.291362219320599    -0.092209141663810    -1.482079980878093
    H                0.577362219320599    -0.224209141663810     2.781920019121907
    H                0.491362219320599     2.223790858336190     2.851920019121907
    H                0.948362219320598     2.386790858336190    -2.475079980878093
    H                0.257362219320599     3.693790858336190    -1.525079980878093
    H                0.322362219320599     3.525790858336189     0.776920019121907
    H               -0.819987780679401     2.496630858336190    -2.294699980878093

}
e, wfn = energy('scf', return_wfn=True)
gdma(wfn)
dmavals = variable('DMA DISTRIBUTED MULTIPOLES')
charges = np.array(dmavals)
print(charges)
np.save('SSI-082ILE-136PHE-1-dimer.npy', np.array(charges))--------------------------------------------------------------------------

*** tstart() called on ds3
*** at Mon Apr 27 20:21:08 2020

   => Loading Basis Set <=

    Name: CC-PVDZ
    Role: ORBITAL
    Keyword: BASIS
    atoms 1-2, 9-15  entry C          line   138 file /theoryfs2/ds/metcalf/miniconda2/envs/tf2gpu/share/psi4/basis/cc-pvdz.gbs
    atoms 3-8, 16-23 entry H          line    22 file /theoryfs2/ds/metcalf/miniconda2/envs/tf2gpu/share/psi4/basis/cc-pvdz.gbs

         ---------------------------------------------------------
                                   SCF
               by Justin Turney, Rob Parrish, Andy Simmonett
                          and Daniel G. A. Smith
                              RHF Reference
                        1 Threads,    500 MiB Core
         ---------------------------------------------------------

  ==> Geometry <==

    Molecular point group: c1
    Full point group: C1

    Geometry (in Angstrom), charge = 0, multiplicity = 1:

       Center              X                  Y                   Z               Mass
    ------------   -----------------  -----------------  -----------------  -----------------
         C           -0.774637780679    -3.407209141664    -1.108079980878    12.000000000000
         C           -1.406637780679    -4.719209141664    -0.652079980878    12.000000000000
         H            0.050362219321    -3.157209141664    -0.445079980878     1.007825032230
         H           -0.378637780679    -3.513209141664    -2.117079980878     1.007825032230
         H           -1.480637780679    -2.581209141664    -1.138079980878     1.007825032230
         H           -2.134637780679    -5.027209141664    -1.404079980878     1.007825032230
         H           -1.933827780679    -4.599199141664     0.305868019122     1.007825032230
         H           -0.631517780679    -5.495759141664    -0.573640980878     1.007825032230
         C            0.143362219321     2.638790858336    -1.783079980878    12.000000000000
         C            0.454362219321    -0.294209141664     0.636920019122    12.000000000000
         C            0.350362219321     0.437790858336    -0.550079980878    12.000000000000
         C            0.482362219321     0.345790858336     1.869920019122    12.000000000000
         C            0.288362219321     1.821790858336    -0.521079980878    12.000000000000
         C            0.444362219321     1.713790858336     1.902920019122    12.000000000000
         C            0.348362219321     2.447790858336     0.719920019122    12.000000000000
         H            0.508362219321    -1.366209141664     0.602920019122     1.007825032230
         H            0.291362219321    -0.092209141664    -1.482079980878     1.007825032230
         H            0.577362219321    -0.224209141664     2.781920019122     1.007825032230
         H            0.491362219321     2.223790858336     2.851920019122     1.007825032230
         H            0.948362219321     2.386790858336    -2.475079980878     1.007825032230
         H            0.257362219321     3.693790858336    -1.525079980878     1.007825032230
         H            0.322362219321     3.525790858336     0.776920019122     1.007825032230
         H           -0.819987780679     2.496630858336    -2.294699980878     1.007825032230

  Running in c1 symmetry.

  Rotational constants: A =      0.08206  B =      0.01960  C =      0.01621 [cm^-1]
  Rotational constants: A =   2459.98684  B =    587.53749  C =    485.84945 [MHz]
  Nuclear repulsion =  397.200891059111029

  Charge       = 0
  Multiplicity = 1
  Electrons    = 68
  Nalpha       = 34
  Nbeta        = 34

  ==> Algorithm <==

  SCF Algorithm Type is PK.
  DIIS enabled.
  MOM disabled.
  Fractional occupation disabled.
  Guess Type is SAD.
  Energy threshold   = 1.00e-06
  Density threshold  = 1.00e-10
  Integral threshold = 0.00e+00

  ==> Primary Basis <==

  Basis Set: CC-PVDZ
    Blend: CC-PVDZ
    Number of shells: 96
    Number of basis function: 196
    Number of Cartesian functions: 205
    Spherical Harmonics?: true
    Max angular momentum: 2

  ==> Pre-Iterations <==

   -------------------------------------------------------
    Irrep   Nso     Nmo     Nalpha   Nbeta   Ndocc  Nsocc
   -------------------------------------------------------
     A        196     196       0       0       0       0
   -------------------------------------------------------
    Total     196     196      34      34      34       0
   -------------------------------------------------------

  ==> Integral Setup <==

  Using integral reordering PK algorithm.
  Sizing the integral batches needed.
  Building batch lookup table.
   Calculation information:
      Number of atoms:                  23
      Number of AO shells:              96
      Number of primitives:            268
      Number of atomic orbitals:       205
      Number of basis functions:       196

      Integral cutoff                 1.00e-12
      Number of threads:                 1

	Batch   1 pq = [       0,    9405] index = [             0,44231715] size =     44231715
	Batch   2 pq = [    9405,   13301] index = [      44231715,88464951] size =     44233236
	Batch   3 pq = [   13301,   16290] index = [      88464951,132690195] size =     44225244
	Batch   4 pq = [   16290,   18810] index = [     132690195,176917455] size =     44227260
	Batch   5 pq = [   18810,   19306] index = [     176917455,186370471] size =      9453016
  Task number: 17
  Buffer size: 11059200
  Buffer per thread: 2
  We computed 8268158 shell quartets total.
  Whereas there are 10841496 unique shell quartets.

  ==> DiskJK: Disk-Based J/K Matrices <==

    J tasked:                  Yes
    K tasked:                  Yes
    wK tasked:                  No
    Memory [MiB]:              375
    Schwarz Cutoff:          1E-12

    OpenMP threads:              1

  Minimum eigenvalue in the overlap matrix is 2.9217125467E-04.
  Using Symmetric Orthogonalization.

  SCF Guess: Superposition of Atomic Densities via on-the-fly atomic UHF.

  ==> Iterations <==

                        Total Energy        Delta E     RMS |[F,P]|

   @RHF iter SAD:  -347.92532092246506   -3.47925e+02   0.00000e+00
   @RHF iter   1:  -348.76553560678701   -8.40215e-01   2.90392e-03 DIIS
   @RHF iter   2:  -348.95903928493044   -1.93504e-01   1.20608e-03 DIIS
   @RHF iter   3:  -348.98942499085740   -3.03857e-02   2.58614e-04 DIIS
   @RHF iter   4:  -348.99191144326898   -2.48645e-03   5.01464e-05 DIIS
   @RHF iter   5:  -348.99197988400437   -6.84407e-05   1.68040e-05 DIIS
   @RHF iter   6:  -348.99198693805681   -7.05405e-06   4.59620e-06 DIIS
   @RHF iter   7:  -348.99198756816287   -6.30106e-07   1.35573e-06 DIIS
   @RHF iter   8:  -348.99198763717584   -6.90130e-08   3.78147e-07 DIIS
   @RHF iter   9:  -348.99198765037397   -1.31981e-08   1.75646e-07 DIIS
   @RHF iter  10:  -348.99198765383301   -3.45904e-09   8.56720e-08 DIIS
   @RHF iter  11:  -348.99198765478536   -9.52355e-10   3.01285e-08 DIIS
   @RHF iter  12:  -348.99198765488171   -9.63496e-11   1.33445e-08 DIIS
   @RHF iter  13:  -348.99198765489177   -1.00613e-11   3.82485e-09 DIIS
   @RHF iter  14:  -348.99198765489376   -1.98952e-12   9.42484e-10 DIIS
   @RHF iter  15:  -348.99198765489103    2.72848e-12   3.00855e-10 DIIS
   @RHF iter  16:  -348.99198765489172   -6.82121e-13   1.01899e-10 DIIS
   @RHF iter  17:  -348.99198765489274   -1.02318e-12   4.32800e-11 DIIS
  Energy and wave function converged.

  ==> Post-Iterations <==

    Orbital Energies [Eh]
    ---------------------

    Doubly Occupied:

       1A    -11.239006     2A    -11.232039     3A    -11.230820
       4A    -11.229980     5A    -11.228111     6A    -11.227829
       7A    -11.226672     8A    -11.221016     9A    -11.217730
      10A     -1.153664    11A     -1.045977    12A     -1.020605
      13A     -1.008088    14A     -0.932427    15A     -0.840238
      16A     -0.825645    17A     -0.794190    18A     -0.692093
      19A     -0.631551    20A     -0.629014    21A     -0.601310
      22A     -0.597652    23A     -0.577801    24A     -0.575162
      25A     -0.565355    26A     -0.534435    27A     -0.505335
      28A     -0.491011    29A     -0.488132    30A     -0.486593
      31A     -0.480505    32A     -0.477625    33A     -0.329032
      34A     -0.324112

    Virtual:

      35A      0.137921    36A      0.144063    37A      0.176816
      38A      0.191037    39A      0.205192    40A      0.215004
      41A      0.233206    42A      0.248429    43A      0.252649
      44A      0.258824    45A      0.268182    46A      0.274097
      47A      0.284935    48A      0.286046    49A      0.298446
      50A      0.363338    51A      0.369240    52A      0.373789
      53A      0.403183    54A      0.464362    55A      0.469823
      56A      0.477039    57A      0.507944    58A      0.562829
      59A      0.593476    60A      0.595275    61A      0.598269
      62A      0.628242    63A      0.642761    64A      0.673150
      65A      0.683714    66A      0.691241    67A      0.698348
      68A      0.719340    69A      0.721008    70A      0.743662
      71A      0.747676    72A      0.751883    73A      0.759983
      74A      0.775141    75A      0.783019    76A      0.791115
      77A      0.829167    78A      0.851035    79A      0.861595
      80A      0.875532    81A      0.881081    82A      0.887223
      83A      0.890681    84A      0.892025    85A      0.899402
      86A      0.907078    87A      0.916085    88A      0.924175
      89A      0.925411    90A      0.934301    91A      0.942607
      92A      0.959268    93A      0.979566    94A      1.004010
      95A      1.043292    96A      1.054996    97A      1.107802
      98A      1.127954    99A      1.133745   100A      1.155618
     101A      1.159083   102A      1.178299   103A      1.202995
     104A      1.232980   105A      1.250793   106A      1.256274
     107A      1.259939   108A      1.277330   109A      1.297485
     110A      1.312201   111A      1.333500   112A      1.338179
     113A      1.416120   114A      1.465680   115A      1.486722
     116A      1.526801   117A      1.530220   118A      1.549748
     119A      1.573405   120A      1.621186   121A      1.674981
     122A      1.681211   123A      1.686679   124A      1.703441
     125A      1.737755   126A      1.742993   127A      1.767315
     128A      1.794328   129A      1.818235   130A      1.861844
     131A      1.865439   132A      1.877143   133A      1.888864
     134A      1.901269   135A      1.903860   136A      1.907124
     137A      1.923441   138A      1.927133   139A      1.939189
     140A      1.943552   141A      1.945176   142A      1.949805
     143A      1.958707   144A      1.964465   145A      1.986012
     146A      1.989226   147A      1.991395   148A      2.028266
     149A      2.037981   150A      2.056355   151A      2.078944
     152A      2.086696   153A      2.111273   154A      2.121320
     155A      2.131215   156A      2.164661   157A      2.187194
     158A      2.200257   159A      2.207130   160A      2.246055
     161A      2.275419   162A      2.295951   163A      2.303494
     164A      2.314083   165A      2.328347   166A      2.336368
     167A      2.367622   168A      2.447824   169A      2.448111
     170A      2.471766   171A      2.484390   172A      2.525485
     173A      2.539011   174A      2.554811   175A      2.580068
     176A      2.635103   177A      2.736805   178A      2.759098
     179A      2.763918   180A      2.770841   181A      2.785293
     182A      2.803566   183A      2.839842   184A      2.851603
     185A      2.853177   186A      2.865215   187A      2.873370
     188A      2.948509   189A      2.970794   190A      2.998099
     191A      3.019528   192A      3.041687   193A      3.171511
     194A      3.214692   195A      3.318726   196A      3.983389

    Final Occupation by Irrep:
              A
    DOCC [    34 ]

  @RHF Final Energy:  -348.99198765489274

   => Energetics <=

    Nuclear Repulsion Energy =            397.2008910591110293
    One-Electron Energy =               -1257.0642469340432399
    Two-Electron Energy =                 510.8713682200395283
    Total Energy =                       -348.9919876548927391

Computation Completed

Properties will be evaluated at   0.000000,   0.000000,   0.000000 [a0]

Properties computed using the SCF density matrix

  Nuclear Dipole Moment: [e a0]
     X:    -3.6865      Y:   -10.9962      Z:    -5.7517

  Electronic Dipole Moment: [e a0]
     X:     3.6647      Y:    11.0311      Z:     5.6271

  Dipole Moment: [e a0]
     X:    -0.0218      Y:     0.0350      Z:    -0.1246     Total:     0.1312

  Dipole Moment: [D]
     X:    -0.0553      Y:     0.0889      Z:    -0.3166     Total:     0.3335

*** tstop() called on ds3 at Mon Apr 27 20:22:27 2020
Module time:
	user time   =      54.40 seconds =       0.91 minutes
	system time =      27.40 seconds =       0.46 minutes
	total time  =         79 seconds =       1.32 minutes
Total time:
	user time   =      54.40 seconds =       0.91 minutes
	system time =      27.40 seconds =       0.46 minutes
	total time  =         79 seconds =       1.32 minutes
                                     G D M A

                                 by Anthony Stone

                           version 2.2.06, 22 June 2011

               Distributed Multipoles from Gaussian wavefunctions

Starting at 20:22:27 on 27 Apr 2020

Using SCF density matrix from file ./SSI/SSI-082ILE-136PHE-1-dimer.test.14514.fchk

                         Distributed Multipole Analysis

Standard DMA

Positions and radii in angstrom
Multipole moments in atomic units, ea_0^k for rank k

C          x = -0.774638  y = -3.407209  z = -1.108080 angstrom
           Maximum rank =  0   Radius =  0.650 angstrom
                   Q00  =  -0.241377

C          x = -1.406638  y = -4.719209  z = -0.652080 angstrom
           Maximum rank =  0   Radius =  0.650 angstrom
                   Q00  =  -0.233344

H          x =  0.050362  y = -3.157209  z = -0.445080 angstrom
           Maximum rank =  0   Radius =  0.325 angstrom
                   Q00  =   0.073694

H          x = -0.378638  y = -3.513209  z = -2.117080 angstrom
           Maximum rank =  0   Radius =  0.325 angstrom
                   Q00  =   0.077587

H          x = -1.480638  y = -2.581209  z = -1.138080 angstrom
           Maximum rank =  0   Radius =  0.325 angstrom
                   Q00  =   0.084334

H          x = -2.134638  y = -5.027209  z = -1.404080 angstrom
           Maximum rank =  0   Radius =  0.325 angstrom
                   Q00  =   0.078217

H          x = -1.933828  y = -4.599199  z =  0.305868 angstrom
           Maximum rank =  0   Radius =  0.325 angstrom
                   Q00  =   0.081552

H          x = -0.631518  y = -5.495759  z = -0.573641 angstrom
           Maximum rank =  0   Radius =  0.325 angstrom
                   Q00  =   0.079948

C          x =  0.143362  y =  2.638791  z = -1.783080 angstrom
           Maximum rank =  0   Radius =  0.650 angstrom
                   Q00  =  -0.209336

C          x =  0.454362  y = -0.294209  z =  0.636920 angstrom
           Maximum rank =  0   Radius =  0.650 angstrom
                   Q00  =  -0.007835

C          x =  0.350362  y =  0.437791  z = -0.550080 angstrom
           Maximum rank =  0   Radius =  0.650 angstrom
                   Q00  =  -0.090243

C          x =  0.482362  y =  0.345791  z =  1.869920 angstrom
           Maximum rank =  0   Radius =  0.650 angstrom
                   Q00  =  -0.086492

C          x =  0.288362  y =  1.821791  z = -0.521080 angstrom
           Maximum rank =  0   Radius =  0.650 angstrom
                   Q00  =  -0.100621

C          x =  0.444362  y =  1.713791  z =  1.902920 angstrom
           Maximum rank =  0   Radius =  0.650 angstrom
                   Q00  =  -0.075069

C          x =  0.348362  y =  2.447791  z =  0.719920 angstrom
           Maximum rank =  0   Radius =  0.650 angstrom
                   Q00  =  -0.026759

H          x =  0.508362  y = -1.366209  z =  0.602920 angstrom
           Maximum rank =  0   Radius =  0.325 angstrom
                   Q00  =   0.062718

H          x =  0.291362  y = -0.092209  z = -1.482080 angstrom
           Maximum rank =  0   Radius =  0.325 angstrom
                   Q00  =   0.053260

H          x =  0.577362  y = -0.224209  z =  2.781920 angstrom
           Maximum rank =  0   Radius =  0.325 angstrom
                   Q00  =   0.058389

H          x =  0.491362  y =  2.223791  z =  2.851920 angstrom
           Maximum rank =  0   Radius =  0.325 angstrom
                   Q00  =   0.061232

H          x =  0.948362  y =  2.386791  z = -2.475080 angstrom
           Maximum rank =  0   Radius =  0.325 angstrom
                   Q00  =   0.102397

H          x =  0.257362  y =  3.693791  z = -1.525080 angstrom
           Maximum rank =  0   Radius =  0.325 angstrom
                   Q00  =   0.096973

H          x =  0.322362  y =  3.525791  z =  0.776920 angstrom
           Maximum rank =  0   Radius =  0.325 angstrom
                   Q00  =   0.055715

H          x = -0.819988  y =  2.496631  z = -2.294700 angstrom
           Maximum rank =  0   Radius =  0.325 angstrom
                   Q00  =   0.105058

Total multipoles referred to origin at
           x =   0.000000,  y =    0.000000,  z =    0.000000 angstrom
                   Q00  =  -0.000000

Finished at 20:22:27 on 27 Apr 2020

  DMA results are available in the Python driver through the
	  variable('DMA DISTRIBUTED MULTIPOLES')
  and
	  variable('DMA TOTAL MULTIPOLES')
  commands.

    Psi4 stopped on: Monday, 27 April 2020 08:22PM
    Psi4 wall time for execution: 0:01:19.14

*** Psi4 exiting successfully. Buy a developer a beer!
