                               Psi4 1.3.2 release

  ==> Input File <==

--------------------------------------------------------------------------
import numpy as np
set {scf_type pk
basis cc-pvdz
d_convergence 10
gdma_switch   0
gdma_limit    0
gdma_origin   [ 0.0,  0.0,  0.0 ]
}
molecule test {
    units Angstrom
    1 1
    --
    1 1
    C                4.567508815682054     2.929708747614456    -1.276238744999050
    C                0.796508815682054     1.325708747614456     0.077761255000950
    C                1.578508815682054     0.588708747614456    -0.799238744999050
    C                1.204508815682054     2.585708747614456     0.481761255000950
    C                2.800508815682054     1.125708747614456    -1.254238744999050
    C                2.424508815682053     3.103708747614456     0.035761255000950
    C                3.229508815682054     2.387708747614456    -0.845238744999050
    O               -0.405491184317946     0.837708747614456     0.529761255000950
    H               -0.680491184317946     0.123708747614456    -0.048238744999050
    H                1.256508815682054    -0.389291252385544    -1.126238744999050
    H                0.579508815682054     3.158708747614456     1.149761255000950
    H                3.422508815682054     0.550708747614456    -1.927238744999050
    H                2.712508815682054     4.091708747614456     0.346761255000950
    H                4.551508815682054     4.020708747614457    -1.243238744999050
    H                4.768508815682054     2.624708747614456    -2.300238744999050
    H                5.379378815682054     2.547528747614456    -0.639988744999050
    C               -3.162491184317946    -0.838291252385544     0.035761255000950
    C               -3.412491184317946    -1.239291252385544    -1.417238744999050
    C               -2.022491184317946    -2.831291252385544     1.024761255000950
    N               -2.033491184317946    -1.547291252385544     0.667761255000950
    N               -3.063491184317947    -3.619291252385544     0.805761255000950
    N               -0.950491184317946    -3.336291252385544     1.604761255000950
    H               -2.990491184317946     0.239708747614456     0.073761255000950
    H               -4.070491184317946    -1.024291252385544     0.612761255000950
    H               -4.301491184317945    -0.714291252385544    -1.759238744999050
    H               -3.606491184317946    -2.304291252385544    -1.489238744999050
    H               -1.329491184317946    -0.979291252385544     1.118761255000950
    H               -3.899491184317946    -3.241291252385543     0.370761255000950
    H               -3.040491184317946    -4.574291252385544     1.119761255000950
    H               -0.172491184317946    -2.753291252385544     1.864761255000950
    H               -0.846491184317946    -4.349291252385544     1.651761255000950
    H               -2.574671184317946    -0.986650252385544    -2.083748744999050

}
e, wfn = energy('scf', return_wfn=True)
gdma(wfn)
dmavals = variable('DMA DISTRIBUTED MULTIPOLES')
charges = np.array(dmavals)
print(charges)
np.save('SSI-025TYR-080ARG-1-dimer.npy', np.array(charges))--------------------------------------------------------------------------

*** tstart() called on ds3
*** at Sun Apr 26 17:26:20 2020

   => Loading Basis Set <=

    Name: CC-PVDZ
    Role: ORBITAL
    Keyword: BASIS
    atoms 1-7, 17-19  entry C          line   138 file /theoryfs2/ds/metcalf/miniconda2/envs/tf2gpu/share/psi4/basis/cc-pvdz.gbs
    atoms 8           entry O          line   198 file /theoryfs2/ds/metcalf/miniconda2/envs/tf2gpu/share/psi4/basis/cc-pvdz.gbs
    atoms 9-16, 23-32 entry H          line    22 file /theoryfs2/ds/metcalf/miniconda2/envs/tf2gpu/share/psi4/basis/cc-pvdz.gbs
    atoms 20-22       entry N          line   168 file /theoryfs2/ds/metcalf/miniconda2/envs/tf2gpu/share/psi4/basis/cc-pvdz.gbs

         ---------------------------------------------------------
                                   SCF
               by Justin Turney, Rob Parrish, Andy Simmonett
                          and Daniel G. A. Smith
                              RHF Reference
                        1 Threads,    500 MiB Core
         ---------------------------------------------------------

  ==> Geometry <==

    Molecular point group: c1
    Full point group: C1

    Geometry (in Angstrom), charge = 1, multiplicity = 1:

       Center              X                  Y                   Z               Mass
    ------------   -----------------  -----------------  -----------------  -----------------
         C            4.567508815682     2.929708747614    -1.276238744999    12.000000000000
         C            0.796508815682     1.325708747614     0.077761255001    12.000000000000
         C            1.578508815682     0.588708747614    -0.799238744999    12.000000000000
         C            1.204508815682     2.585708747614     0.481761255001    12.000000000000
         C            2.800508815682     1.125708747614    -1.254238744999    12.000000000000
         C            2.424508815682     3.103708747614     0.035761255001    12.000000000000
         C            3.229508815682     2.387708747614    -0.845238744999    12.000000000000
         O           -0.405491184318     0.837708747614     0.529761255001    15.994914619570
         H           -0.680491184318     0.123708747614    -0.048238744999     1.007825032230
         H            1.256508815682    -0.389291252386    -1.126238744999     1.007825032230
         H            0.579508815682     3.158708747614     1.149761255001     1.007825032230
         H            3.422508815682     0.550708747614    -1.927238744999     1.007825032230
         H            2.712508815682     4.091708747614     0.346761255001     1.007825032230
         H            4.551508815682     4.020708747614    -1.243238744999     1.007825032230
         H            4.768508815682     2.624708747614    -2.300238744999     1.007825032230
         H            5.379378815682     2.547528747614    -0.639988744999     1.007825032230
         C           -3.162491184318    -0.838291252386     0.035761255001    12.000000000000
         C           -3.412491184318    -1.239291252386    -1.417238744999    12.000000000000
         C           -2.022491184318    -2.831291252386     1.024761255001    12.000000000000
         N           -2.033491184318    -1.547291252386     0.667761255001    14.003074004430
         N           -3.063491184318    -3.619291252386     0.805761255001    14.003074004430
         N           -0.950491184318    -3.336291252386     1.604761255001    14.003074004430
         H           -2.990491184318     0.239708747614     0.073761255001     1.007825032230
         H           -4.070491184318    -1.024291252386     0.612761255001     1.007825032230
         H           -4.301491184318    -0.714291252386    -1.759238744999     1.007825032230
         H           -3.606491184318    -2.304291252386    -1.489238744999     1.007825032230
         H           -1.329491184318    -0.979291252386     1.118761255001     1.007825032230
         H           -3.899491184318    -3.241291252386     0.370761255001     1.007825032230
         H           -3.040491184318    -4.574291252386     1.119761255001     1.007825032230
         H           -0.172491184318    -2.753291252386     1.864761255001     1.007825032230
         H           -0.846491184318    -4.349291252386     1.651761255001     1.007825032230
         H           -2.574671184318    -0.986650252386    -2.083748744999     1.007825032230

  Running in c1 symmetry.

  Rotational constants: A =      0.04822  B =      0.00737  C =      0.00704 [cm^-1]
  Rotational constants: A =   1445.72703  B =    220.85536  C =    210.97213 [MHz]
  Nuclear repulsion =  857.367931374719319

  Charge       = 1
  Multiplicity = 1
  Electrons    = 106
  Nalpha       = 53
  Nbeta        = 53

  ==> Algorithm <==

  SCF Algorithm Type is PK.
  DIIS enabled.
  MOM disabled.
  Fractional occupation disabled.
  Guess Type is SAD.
  Energy threshold   = 1.00e-06
  Density threshold  = 1.00e-10
  Integral threshold = 0.00e+00

  ==> Primary Basis <==

  Basis Set: CC-PVDZ
    Blend: CC-PVDZ
    Number of shells: 138
    Number of basis function: 286
    Number of Cartesian functions: 300
    Spherical Harmonics?: true
    Max angular momentum: 2

  ==> Pre-Iterations <==

   -------------------------------------------------------
    Irrep   Nso     Nmo     Nalpha   Nbeta   Ndocc  Nsocc
   -------------------------------------------------------
     A        286     286       0       0       0       0
   -------------------------------------------------------
    Total     286     286      53      53      53       0
   -------------------------------------------------------

  ==> Integral Setup <==

  Using integral reordering PK algorithm.
  Sizing the integral batches needed.
  Building batch lookup table.
   Calculation information:
      Number of atoms:                  32
      Number of AO shells:             138
      Number of primitives:            398
      Number of atomic orbitals:       300
      Number of basis functions:       286

      Integral cutoff                 1.00e-12
      Number of threads:                 1

	Batch   1 pq = [       0,    9405] index = [             0,44231715] size =     44231715
	Batch   2 pq = [    9405,   13301] index = [      44231715,88464951] size =     44233236
	Batch   3 pq = [   13301,   16290] index = [      88464951,132690195] size =     44225244
	Batch   4 pq = [   16290,   18810] index = [     132690195,176917455] size =     44227260
	Batch   5 pq = [   18810,   21030] index = [     176917455,221140965] size =     44223510
	Batch   6 pq = [   21030,   23037] index = [     221140965,265363203] size =     44222238
	Batch   7 pq = [   23037,   24883] index = [     265363203,309594286] size =     44231083
	Batch   8 pq = [   24883,   26601] index = [     309594286,353819901] size =     44225615
	Batch   9 pq = [   26601,   28214] index = [     353819901,398029005] size =     44209104
	Batch  10 pq = [   28214,   29740] index = [     398029005,442248670] size =     44219665
	Batch  11 pq = [   29740,   31191] index = [     442248670,486454836] size =     44206166
	Batch  12 pq = [   31191,   32578] index = [     486454836,530679331] size =     44224495
	Batch  13 pq = [   32578,   33908] index = [     530679331,574893186] size =     44213855
	Batch  14 pq = [   33908,   35188] index = [     574893186,619115266] size =     44222080
	Batch  15 pq = [   35188,   36423] index = [     619115266,663335676] size =     44220410
	Batch  16 pq = [   36423,   37617] index = [     663335676,707538153] size =     44202477
	Batch  17 pq = [   37617,   38775] index = [     707538153,751769700] size =     44231547
	Batch  18 pq = [   38775,   39899] index = [     751769700,795985050] size =     44215350
	Batch  19 pq = [   39899,   41041] index = [     795985050,842202361] size =     46217311
  Task number: 77
  Buffer size: 11059200
  Buffer per thread: 2
  We computed 35357294 shell quartets total.
  Whereas there are 45998436 unique shell quartets.

  ==> DiskJK: Disk-Based J/K Matrices <==

    J tasked:                  Yes
    K tasked:                  Yes
    wK tasked:                  No
    Memory [MiB]:              375
    Schwarz Cutoff:          1E-12

    OpenMP threads:              1

  Minimum eigenvalue in the overlap matrix is 3.2336540271E-04.
  Using Symmetric Orthogonalization.

  SCF Guess: Superposition of Atomic Densities via on-the-fly atomic UHF.

  ==> Iterations <==

                        Total Energy        Delta E     RMS |[F,P]|

   @RHF iter SAD:  -626.49379647629701   -6.26494e+02   0.00000e+00
   @RHF iter   1:  -626.91270036191474   -4.18904e-01   2.54476e-03 DIIS
   @RHF iter   2:  -627.19736575694742   -2.84665e-01   1.02733e-03 DIIS
   @RHF iter   3:  -627.23930208782258   -4.19363e-02   2.64385e-04 DIIS
   @RHF iter   4:  -627.24344691673468   -4.14483e-03   1.00511e-04 DIIS
   @RHF iter   5:  -627.24393274606473   -4.85829e-04   1.96752e-05 DIIS
   @RHF iter   6:  -627.24396376047105   -3.10144e-05   7.05463e-06 DIIS
   @RHF iter   7:  -627.24396703009165   -3.26962e-06   1.92266e-06 DIIS
   @RHF iter   8:  -627.24396743703699   -4.06945e-07   7.07653e-07 DIIS
   @RHF iter   9:  -627.24396747766707   -4.06301e-08   2.35724e-07 DIIS
   @RHF iter  10:  -627.24396748445906   -6.79199e-09   1.03073e-07 DIIS
   @RHF iter  11:  -627.24396748651122   -2.05216e-09   4.88770e-08 DIIS
   @RHF iter  12:  -627.24396748703941   -5.28189e-10   1.98329e-08 DIIS
   @RHF iter  13:  -627.24396748713002   -9.06084e-11   8.29774e-09 DIIS
   @RHF iter  14:  -627.24396748714548   -1.54614e-11   2.69497e-09 DIIS
   @RHF iter  15:  -627.24396748714287    2.61480e-12   8.84772e-10 DIIS
   @RHF iter  16:  -627.24396748714980   -6.93490e-12   3.70960e-10 DIIS
   @RHF iter  17:  -627.24396748714787    1.93268e-12   1.68450e-10 DIIS
   @RHF iter  18:  -627.24396748714548    2.38742e-12   6.45254e-11 DIIS
  Energy and wave function converged.

  ==> Post-Iterations <==

    Orbital Energies [Eh]
    ---------------------

    Doubly Occupied:

       1A    -20.703608     2A    -15.789800     3A    -15.786040
       4A    -15.777868     5A    -11.589087     6A    -11.434772
       7A    -11.390980     8A    -11.371060     9A    -11.329160
      10A    -11.325637    11A    -11.320349    12A    -11.318509
      13A    -11.317775    14A    -11.298753    15A     -1.541772
      16A     -1.517869    17A     -1.399232    18A     -1.388779
      19A     -1.237508    20A     -1.185940    21A     -1.125365
      22A     -1.102363    23A     -1.062644    24A     -1.010139
      25A     -1.008044    26A     -0.973955    27A     -0.936922
      28A     -0.925810    29A     -0.893718    30A     -0.860020
      31A     -0.856959    32A     -0.826846    33A     -0.818595
      34A     -0.795549    35A     -0.763544    36A     -0.759557
      37A     -0.729671    38A     -0.707957    39A     -0.697936
      40A     -0.684746    41A     -0.676038    42A     -0.671659
      43A     -0.665831    44A     -0.650905    45A     -0.644787
      46A     -0.615315    47A     -0.607752    48A     -0.580886
      49A     -0.578479    50A     -0.572025    51A     -0.557456
      52A     -0.421933    53A     -0.396555

    Virtual:

      54A     -0.006063    55A      0.011923    56A      0.032754
      57A      0.039333    58A      0.042372    59A      0.066685
      60A      0.073185    61A      0.088889    62A      0.092926
      63A      0.108854    64A      0.116397    65A      0.131052
      66A      0.141155    67A      0.144331    68A      0.148775
      69A      0.172062    70A      0.181954    71A      0.183958
      72A      0.190859    73A      0.208650    74A      0.222296
      75A      0.226014    76A      0.232183    77A      0.284843
      78A      0.288413    79A      0.295486    80A      0.324527
      81A      0.340461    82A      0.352720    83A      0.378467
      84A      0.400203    85A      0.407127    86A      0.420204
      87A      0.443306    88A      0.470420    89A      0.484818
      90A      0.494725    91A      0.527066    92A      0.530522
      93A      0.535320    94A      0.547553    95A      0.552801
      96A      0.559362    97A      0.562630    98A      0.572621
      99A      0.579267   100A      0.593954   101A      0.597388
     102A      0.614360   103A      0.621983   104A      0.641577
     105A      0.649659   106A      0.658555   107A      0.670415
     108A      0.676040   109A      0.691633   110A      0.695429
     111A      0.711493   112A      0.719341   113A      0.725205
     114A      0.735024   115A      0.745356   116A      0.751789
     117A      0.757334   118A      0.767935   119A      0.777062
     120A      0.778118   121A      0.787387   122A      0.794990
     123A      0.802968   124A      0.808333   125A      0.810312
     126A      0.818712   127A      0.837831   128A      0.847340
     129A      0.852315   130A      0.859074   131A      0.870523
     132A      0.872161   133A      0.880267   134A      0.884049
     135A      0.919515   136A      0.936679   137A      0.938221
     138A      0.949518   139A      0.957883   140A      0.966898
     141A      1.010888   142A      1.040471   143A      1.050554
     144A      1.055364   145A      1.062782   146A      1.076756
     147A      1.092386   148A      1.116203   149A      1.127729
     150A      1.139254   151A      1.155896   152A      1.158546
     153A      1.164552   154A      1.189728   155A      1.197923
     156A      1.205197   157A      1.210590   158A      1.220570
     159A      1.227750   160A      1.249259   161A      1.263691
     162A      1.274372   163A      1.286610   164A      1.331906
     165A      1.341045   166A      1.358409   167A      1.383811
     168A      1.407858   169A      1.416542   170A      1.440515
     171A      1.470211   172A      1.483607   173A      1.487590
     174A      1.498456   175A      1.535068   176A      1.544864
     177A      1.550022   178A      1.591023   179A      1.605369
     180A      1.627927   181A      1.638928   182A      1.643167
     183A      1.661279   184A      1.663046   185A      1.676509
     186A      1.679752   187A      1.697543   188A      1.705626
     189A      1.711023   190A      1.721869   191A      1.727277
     192A      1.728839   193A      1.760099   194A      1.778846
     195A      1.785276   196A      1.794520   197A      1.798997
     198A      1.804657   199A      1.811519   200A      1.820595
     201A      1.831173   202A      1.835386   203A      1.838782
     204A      1.851918   205A      1.859621   206A      1.862203
     207A      1.878749   208A      1.884416   209A      1.897233
     210A      1.903472   211A      1.922439   212A      1.944155
     213A      1.955084   214A      1.962995   215A      1.974675
     216A      1.980871   217A      1.984333   218A      1.996447
     219A      2.017708   220A      2.057236   221A      2.069902
     222A      2.076734   223A      2.090129   224A      2.104881
     225A      2.122128   226A      2.139719   227A      2.145550
     228A      2.177405   229A      2.185340   230A      2.192250
     231A      2.204267   232A      2.214024   233A      2.242149
     234A      2.244239   235A      2.256582   236A      2.265597
     237A      2.302596   238A      2.325357   239A      2.330062
     240A      2.338747   241A      2.354032   242A      2.364876
     243A      2.392782   244A      2.396940   245A      2.418564
     246A      2.425269   247A      2.432482   248A      2.456603
     249A      2.473991   250A      2.506111   251A      2.524720
     252A      2.542392   253A      2.558318   254A      2.619032
     255A      2.638118   256A      2.646503   257A      2.667452
     258A      2.693093   259A      2.696972   260A      2.705876
     261A      2.726218   262A      2.731316   263A      2.765183
     264A      2.777351   265A      2.799063   266A      2.820917
     267A      2.826895   268A      2.862213   269A      2.872309
     270A      2.884139   271A      2.924478   272A      2.944553
     273A      2.994918   274A      3.029336   275A      3.061405
     276A      3.100457   277A      3.152146   278A      3.180458
     279A      3.194285   280A      3.235669   281A      3.460405
     282A      3.541002   283A      3.599854   284A      3.639530
     285A      3.847388   286A      4.105822

    Final Occupation by Irrep:
              A
    DOCC [    53 ]

  @RHF Final Energy:  -627.24396748714548

   => Energetics <=

    Nuclear Repulsion Energy =            857.3679313747193191
    One-Electron Energy =               -2538.8148777940109539
    Two-Electron Energy =                1054.2029789321461521
    Total Energy =                       -627.2439674871454827

Computation Completed

Properties will be evaluated at   0.000000,   0.000000,   0.000000 [a0]

Properties computed using the SCF density matrix

  Nuclear Dipole Moment: [e a0]
     X:    -4.5238      Y:    -3.6825      Z:    -4.0455

  Electronic Dipole Moment: [e a0]
     X:     1.2405      Y:    -1.0879      Z:     5.1529

  Dipole Moment: [e a0]
     X:    -3.2832      Y:    -4.7704      Z:     1.1074     Total:     5.8960

  Dipole Moment: [D]
     X:    -8.3452      Y:   -12.1251      Z:     2.8147     Total:    14.9861

*** tstop() called on ds3 at Sun Apr 26 17:36:47 2020
Module time:
	user time   =     298.67 seconds =       4.98 minutes
	system time =     138.12 seconds =       2.30 minutes
	total time  =        627 seconds =      10.45 minutes
Total time:
	user time   =     298.67 seconds =       4.98 minutes
	system time =     138.12 seconds =       2.30 minutes
	total time  =        627 seconds =      10.45 minutes
                                     G D M A

                                 by Anthony Stone

                           version 2.2.06, 22 June 2011

               Distributed Multipoles from Gaussian wavefunctions

Starting at 17:36:47 on 26 Apr 2020

Using SCF density matrix from file ./SSI/SSI-025TYR-080ARG-1-dimer.test.18543.fchk

                         Distributed Multipole Analysis

Standard DMA

Positions and radii in angstrom
Multipole moments in atomic units, ea_0^k for rank k

C          x =  4.567509  y =  2.929709  z = -1.276239 angstrom
           Maximum rank =  0   Radius =  0.650 angstrom
                   Q00  =  -0.198744

C          x =  0.796509  y =  1.325709  z =  0.077761 angstrom
           Maximum rank =  0   Radius =  0.650 angstrom
                   Q00  =   0.251089

C          x =  1.578509  y =  0.588709  z = -0.799239 angstrom
           Maximum rank =  0   Radius =  0.650 angstrom
                   Q00  =  -0.195872

C          x =  1.204509  y =  2.585709  z =  0.481761 angstrom
           Maximum rank =  0   Radius =  0.650 angstrom
                   Q00  =  -0.095424

C          x =  2.800509  y =  1.125709  z = -1.254239 angstrom
           Maximum rank =  0   Radius =  0.650 angstrom
                   Q00  =  -0.025324

C          x =  2.424509  y =  3.103709  z =  0.035761 angstrom
           Maximum rank =  0   Radius =  0.650 angstrom
                   Q00  =   0.044418

C          x =  3.229509  y =  2.387709  z = -0.845239 angstrom
           Maximum rank =  0   Radius =  0.650 angstrom
                   Q00  =  -0.116811

O          x = -0.405491  y =  0.837709  z =  0.529761 angstrom
           Maximum rank =  0   Radius =  0.650 angstrom
                   Q00  =  -0.639055

H          x = -0.680491  y =  0.123709  z = -0.048239 angstrom
           Maximum rank =  0   Radius =  0.325 angstrom
                   Q00  =   0.373259

H          x =  1.256509  y = -0.389291  z = -1.126239 angstrom
           Maximum rank =  0   Radius =  0.325 angstrom
                   Q00  =   0.061466

H          x =  0.579509  y =  3.158709  z =  1.149761 angstrom
           Maximum rank =  0   Radius =  0.325 angstrom
                   Q00  =   0.085100

H          x =  3.422509  y =  0.550709  z = -1.927239 angstrom
           Maximum rank =  0   Radius =  0.325 angstrom
                   Q00  =   0.081812

H          x =  2.712509  y =  4.091709  z =  0.346761 angstrom
           Maximum rank =  0   Radius =  0.325 angstrom
                   Q00  =   0.080762

H          x =  4.551509  y =  4.020709  z = -1.243239 angstrom
           Maximum rank =  0   Radius =  0.325 angstrom
                   Q00  =   0.108179

H          x =  4.768509  y =  2.624709  z = -2.300239 angstrom
           Maximum rank =  0   Radius =  0.325 angstrom
                   Q00  =   0.105551

H          x =  5.379379  y =  2.547529  z = -0.639989 angstrom
           Maximum rank =  0   Radius =  0.325 angstrom
                   Q00  =   0.110293

C          x = -3.162491  y = -0.838291  z =  0.035761 angstrom
           Maximum rank =  0   Radius =  0.650 angstrom
                   Q00  =  -0.025298

C          x = -3.412491  y = -1.239291  z = -1.417239 angstrom
           Maximum rank =  0   Radius =  0.650 angstrom
                   Q00  =  -0.240400

C          x = -2.022491  y = -2.831291  z =  1.024761 angstrom
           Maximum rank =  0   Radius =  0.650 angstrom
                   Q00  =   1.084107

N          x = -2.033491  y = -1.547291  z =  0.667761 angstrom
           Maximum rank =  0   Radius =  0.650 angstrom
                   Q00  =  -0.508794

N          x = -3.063491  y = -3.619291  z =  0.805761 angstrom
           Maximum rank =  0   Radius =  0.650 angstrom
                   Q00  =  -0.589517

N          x = -0.950491  y = -3.336291  z =  1.604761 angstrom
           Maximum rank =  0   Radius =  0.650 angstrom
                   Q00  =  -0.595461

H          x = -2.990491  y =  0.239709  z =  0.073761 angstrom
           Maximum rank =  0   Radius =  0.325 angstrom
                   Q00  =   0.145462

H          x = -4.070491  y = -1.024291  z =  0.612761 angstrom
           Maximum rank =  0   Radius =  0.325 angstrom
                   Q00  =   0.078175

H          x = -4.301491  y = -0.714291  z = -1.759239 angstrom
           Maximum rank =  0   Radius =  0.325 angstrom
                   Q00  =   0.128881

H          x = -3.606491  y = -2.304291  z = -1.489239 angstrom
           Maximum rank =  0   Radius =  0.325 angstrom
                   Q00  =   0.076922

H          x = -1.329491  y = -0.979291  z =  1.118761 angstrom
           Maximum rank =  0   Radius =  0.325 angstrom
                   Q00  =   0.216163

H          x = -3.899491  y = -3.241291  z =  0.370761 angstrom
           Maximum rank =  0   Radius =  0.325 angstrom
                   Q00  =   0.279028

H          x = -3.040491  y = -4.574291  z =  1.119761 angstrom
           Maximum rank =  0   Radius =  0.325 angstrom
                   Q00  =   0.267057

H          x = -0.172491  y = -2.753291  z =  1.864761 angstrom
           Maximum rank =  0   Radius =  0.325 angstrom
                   Q00  =   0.271072

H          x = -0.846491  y = -4.349291  z =  1.651761 angstrom
           Maximum rank =  0   Radius =  0.325 angstrom
                   Q00  =   0.266044

H          x = -2.574671  y = -0.986650  z = -2.083749 angstrom
           Maximum rank =  0   Radius =  0.325 angstrom
                   Q00  =   0.115859

Total multipoles referred to origin at
           x =   0.000000,  y =    0.000000,  z =    0.000000 angstrom
                   Q00  =   1.000000

Finished at 17:36:47 on 26 Apr 2020

  DMA results are available in the Python driver through the
	  variable('DMA DISTRIBUTED MULTIPOLES')
  and
	  variable('DMA TOTAL MULTIPOLES')
  commands.

    Psi4 stopped on: Sunday, 26 April 2020 05:36PM
    Psi4 wall time for execution: 0:10:27.80

*** Psi4 exiting successfully. Buy a developer a beer!
