                               Psi4 1.3.2 release

  ==> Input File <==

--------------------------------------------------------------------------
import numpy as np
set {scf_type pk
basis cc-pvdz
d_convergence 10
gdma_switch   0
gdma_limit    0
gdma_origin   [ 0.0,  0.0,  0.0 ]
}
molecule test {
    units Angstrom
    -1 1
    --
    -1 1
    C                1.079758702627671     1.783529728033247    -1.861891766089139
    C                0.726758702627671     3.220529728033247    -1.458891766089140
    O                2.359758702627671     1.748529728033247    -2.449891766089140
    H                1.066758702627671     1.132529728033247    -0.987891766089140
    H                0.344758702627671     1.415529728033247    -2.578891766089140
    H               -0.314241297372329     3.226529728033248    -1.125891766089139
    H                2.549758702627671     0.852529728033247    -2.750891766089140
    H                0.813648702627671     3.912709728033247    -2.309381766089140
    H                1.343828702627671     3.535199728033247    -0.604371766089140
    C               -0.275241297372329    -0.676470271966753     0.765108233910860
    C                1.075758702627671    -1.184470271966753     1.256108233910860
    C               -1.442241297372329    -1.505470271966753     1.231108233910860
    O               -1.330241297372329    -2.174470271966753     2.280108233910860
    O               -2.496241297372329    -1.430470271966753     0.561108233910860
    H               -0.403241297372329     0.339529728033247     1.143108233910860
    H               -0.271241297372329    -0.609470271966753    -0.323891766089140
    H                1.085758702627671    -1.232470271966753     2.345108233910860
    H                1.822758702627671    -0.449470271966753     0.956108233910860
    H                1.370428702627671    -2.159762271966752     0.841408233910860

}
e, wfn = energy('scf', return_wfn=True)
gdma(wfn)
dmavals = variable('DMA DISTRIBUTED MULTIPOLES')
charges = np.array(dmavals)
print(charges)
np.save('SSI-001SER-030GLU-1-dimer.npy', np.array(charges))--------------------------------------------------------------------------

*** tstart() called on ds3
*** at Tue Apr 28 01:41:38 2020

   => Loading Basis Set <=

    Name: CC-PVDZ
    Role: ORBITAL
    Keyword: BASIS
    atoms 1-2, 10-12 entry C          line   138 file /theoryfs2/ds/metcalf/miniconda2/envs/tf2gpu/share/psi4/basis/cc-pvdz.gbs
    atoms 3, 13-14   entry O          line   198 file /theoryfs2/ds/metcalf/miniconda2/envs/tf2gpu/share/psi4/basis/cc-pvdz.gbs
    atoms 4-9, 15-19 entry H          line    22 file /theoryfs2/ds/metcalf/miniconda2/envs/tf2gpu/share/psi4/basis/cc-pvdz.gbs

         ---------------------------------------------------------
                                   SCF
               by Justin Turney, Rob Parrish, Andy Simmonett
                          and Daniel G. A. Smith
                              RHF Reference
                        1 Threads,    500 MiB Core
         ---------------------------------------------------------

  ==> Geometry <==

    Molecular point group: c1
    Full point group: C1

    Geometry (in Angstrom), charge = -1, multiplicity = 1:

       Center              X                  Y                   Z               Mass
    ------------   -----------------  -----------------  -----------------  -----------------
         C            1.079758702628     1.783529728033    -1.861891766089    12.000000000000
         C            0.726758702628     3.220529728033    -1.458891766089    12.000000000000
         O            2.359758702628     1.748529728033    -2.449891766089    15.994914619570
         H            1.066758702628     1.132529728033    -0.987891766089     1.007825032230
         H            0.344758702628     1.415529728033    -2.578891766089     1.007825032230
         H           -0.314241297372     3.226529728033    -1.125891766089     1.007825032230
         H            2.549758702628     0.852529728033    -2.750891766089     1.007825032230
         H            0.813648702628     3.912709728033    -2.309381766089     1.007825032230
         H            1.343828702628     3.535199728033    -0.604371766089     1.007825032230
         C           -0.275241297372    -0.676470271967     0.765108233911    12.000000000000
         C            1.075758702628    -1.184470271967     1.256108233911    12.000000000000
         C           -1.442241297372    -1.505470271967     1.231108233911    12.000000000000
         O           -1.330241297372    -2.174470271967     2.280108233911    15.994914619570
         O           -2.496241297372    -1.430470271967     0.561108233911    15.994914619570
         H           -0.403241297372     0.339529728033     1.143108233911     1.007825032230
         H           -0.271241297372    -0.609470271967    -0.323891766089     1.007825032230
         H            1.085758702628    -1.232470271967     2.345108233911     1.007825032230
         H            1.822758702628    -0.449470271967     0.956108233911     1.007825032230
         H            1.370428702628    -2.159762271967     0.841408233911     1.007825032230

  Running in c1 symmetry.

  Rotational constants: A =      0.10659  B =      0.01831  C =      0.01685 [cm^-1]
  Rotational constants: A =   3195.48057  B =    548.89866  C =    505.29764 [MHz]
  Nuclear repulsion =  352.637803485593452

  Charge       = -1
  Multiplicity = 1
  Electrons    = 66
  Nalpha       = 33
  Nbeta        = 33

  ==> Algorithm <==

  SCF Algorithm Type is PK.
  DIIS enabled.
  MOM disabled.
  Fractional occupation disabled.
  Guess Type is SAD.
  Energy threshold   = 1.00e-06
  Density threshold  = 1.00e-10
  Integral threshold = 0.00e+00

  ==> Primary Basis <==

  Basis Set: CC-PVDZ
    Blend: CC-PVDZ
    Number of shells: 81
    Number of basis function: 167
    Number of Cartesian functions: 175
    Spherical Harmonics?: true
    Max angular momentum: 2

  ==> Pre-Iterations <==

   -------------------------------------------------------
    Irrep   Nso     Nmo     Nalpha   Nbeta   Ndocc  Nsocc
   -------------------------------------------------------
     A        167     167       0       0       0       0
   -------------------------------------------------------
    Total     167     167      33      33      33       0
   -------------------------------------------------------

  ==> Integral Setup <==

  Using integral reordering PK algorithm.
  Sizing the integral batches needed.
  Building batch lookup table.
   Calculation information:
      Number of atoms:                  19
      Number of AO shells:              81
      Number of primitives:            231
      Number of atomic orbitals:       175
      Number of basis functions:       167

      Integral cutoff                 1.00e-12
      Number of threads:                 1

	Batch   1 pq = [       0,    9405] index = [             0,44231715] size =     44231715
	Batch   2 pq = [    9405,   13301] index = [      44231715,88464951] size =     44233236
	Batch   3 pq = [   13301,   14028] index = [      88464951,98399406] size =      9934455
  Task number: 9
  Buffer size: 11059200
  Buffer per thread: 2
  We computed 4175303 shell quartets total.
  Whereas there are 5516181 unique shell quartets.

  ==> DiskJK: Disk-Based J/K Matrices <==

    J tasked:                  Yes
    K tasked:                  Yes
    wK tasked:                  No
    Memory [MiB]:              375
    Schwarz Cutoff:          1E-12

    OpenMP threads:              1

  Minimum eigenvalue in the overlap matrix is 3.1812087058E-03.
  Using Symmetric Orthogonalization.

  SCF Guess: Superposition of Atomic Densities via on-the-fly atomic UHF.

  ==> Iterations <==

                        Total Energy        Delta E     RMS |[F,P]|

   @RHF iter SAD:  -418.62655264088193   -4.18627e+02   0.00000e+00
   @RHF iter   1:  -420.05812012129331   -1.43157e+00   4.74373e-03 DIIS
   @RHF iter   2:  -420.29665716778885   -2.38537e-01   2.63176e-03 DIIS
   @RHF iter   3:  -420.36707918165087   -7.04220e-02   3.98669e-04 DIIS
   @RHF iter   4:  -420.37020774103672   -3.12856e-03   1.53365e-04 DIIS
   @RHF iter   5:  -420.37063431741581   -4.26576e-04   2.61644e-05 DIIS
   @RHF iter   6:  -420.37065019491672   -1.58775e-05   8.35823e-06 DIIS
   @RHF iter   7:  -420.37065143820763   -1.24329e-06   2.75114e-06 DIIS
   @RHF iter   8:  -420.37065157914350   -1.40936e-07   7.47275e-07 DIIS
   @RHF iter   9:  -420.37065159136029   -1.22168e-08   3.12404e-07 DIIS
   @RHF iter  10:  -420.37065159336282   -2.00254e-09   7.93867e-08 DIIS
   @RHF iter  11:  -420.37065159356058   -1.97758e-10   2.98129e-08 DIIS
   @RHF iter  12:  -420.37065159358229   -2.17142e-11   8.76995e-09 DIIS
   @RHF iter  13:  -420.37065159358610   -3.80851e-12   2.84397e-09 DIIS
   @RHF iter  14:  -420.37065159358997   -3.86535e-12   9.48660e-10 DIIS
   @RHF iter  15:  -420.37065159358815    1.81899e-12   3.20556e-10 DIIS
   @RHF iter  16:  -420.37065159358576    2.38742e-12   1.01236e-10 DIIS
   @RHF iter  17:  -420.37065159359128   -5.51381e-12   3.04882e-11 DIIS
  Energy and wave function converged.

  ==> Post-Iterations <==

    Orbital Energies [Eh]
    ---------------------

    Doubly Occupied:

       1A    -20.460677     2A    -20.259535     3A    -20.253435
       4A    -11.182329     5A    -11.138306     6A    -11.110376
       7A    -11.073483     8A    -11.054401     9A     -1.267699
      10A     -1.147790    11A     -1.034876    12A     -0.918825
      13A     -0.875192    14A     -0.745027    15A     -0.706598
      16A     -0.605500    17A     -0.555313    18A     -0.510558
      19A     -0.480525    20A     -0.460011    21A     -0.444905
      22A     -0.441978    23A     -0.430534    24A     -0.391199
      25A     -0.388112    26A     -0.362814    27A     -0.360441
      28A     -0.345888    29A     -0.327073    30A     -0.297688
      31A     -0.180534    32A     -0.169856    33A     -0.158888

    Virtual:

      34A      0.263607    35A      0.290034    36A      0.320827
      37A      0.332201    38A      0.348067    39A      0.357552
      40A      0.378056    41A      0.396475    42A      0.403379
      43A      0.418420    44A      0.455272    45A      0.475940
      46A      0.484749    47A      0.503171    48A      0.553626
      49A      0.667450    50A      0.692985    51A      0.703411
      52A      0.716134    53A      0.737931    54A      0.746305
      55A      0.760499    56A      0.780547    57A      0.850080
      58A      0.862652    59A      0.876872    60A      0.886793
      61A      0.943368    62A      0.955313    63A      0.970126
      64A      0.973736    65A      0.979521    66A      0.989328
      67A      1.000951    68A      1.016969    69A      1.023038
      70A      1.042209    71A      1.049444    72A      1.055949
      73A      1.069295    74A      1.092879    75A      1.113482
      76A      1.144638    77A      1.154727    78A      1.224364
      79A      1.231500    80A      1.257402    81A      1.298700
      82A      1.316049    83A      1.336847    84A      1.346743
      85A      1.391356    86A      1.411794    87A      1.478425
      88A      1.509049    89A      1.535195    90A      1.545248
      91A      1.561267    92A      1.603704    93A      1.607137
      94A      1.627139    95A      1.635727    96A      1.643766
      97A      1.668474    98A      1.700740    99A      1.716406
     100A      1.763916   101A      1.808177   102A      1.839696
     103A      1.874844   104A      1.899675   105A      1.914217
     106A      1.962861   107A      1.977221   108A      1.982886
     109A      2.001575   110A      2.021911   111A      2.032160
     112A      2.050528   113A      2.059073   114A      2.071560
     115A      2.079436   116A      2.091568   117A      2.103809
     118A      2.144559   119A      2.157743   120A      2.176756
     121A      2.184337   122A      2.202564   123A      2.232646
     124A      2.272807   125A      2.325586   126A      2.347628
     127A      2.368329   128A      2.381712   129A      2.392688
     130A      2.421189   131A      2.460337   132A      2.498402
     133A      2.549146   134A      2.566723   135A      2.597144
     136A      2.613426   137A      2.618479   138A      2.663944
     139A      2.668555   140A      2.703922   141A      2.763119
     142A      2.808847   143A      2.838789   144A      2.871744
     145A      2.887057   146A      2.919951   147A      2.981385
     148A      2.997994   149A      3.026169   150A      3.044918
     151A      3.074235   152A      3.124724   153A      3.249492
     154A      3.290096   155A      3.307792   156A      3.366195
     157A      3.418682   158A      3.509160   159A      3.543178
     160A      3.637422   161A      3.720501   162A      3.798158
     163A      3.849491   164A      4.054678   165A      4.091313
     166A      4.201029   167A      4.208804

    Final Occupation by Irrep:
              A
    DOCC [    33 ]

  @RHF Final Energy:  -420.37065159359128

   => Energetics <=

    Nuclear Repulsion Energy =            352.6378034855934516
    One-Electron Energy =               -1285.7361760138228419
    Two-Electron Energy =                 512.7277209346382278
    Total Energy =                       -420.3706515935912194

Computation Completed

Properties will be evaluated at   0.000000,   0.000000,   0.000000 [a0]

Properties computed using the SCF density matrix

  Nuclear Dipole Moment: [e a0]
     X:     8.8136      Y:     9.3314      Z:    -5.0562

  Electronic Dipole Moment: [e a0]
     X:    -5.7542      Y:    -6.5092      Z:     2.5372

  Dipole Moment: [e a0]
     X:     3.0594      Y:     2.8223      Z:    -2.5190     Total:     4.8652

  Dipole Moment: [D]
     X:     7.7762      Y:     7.1735      Z:    -6.4026     Total:    12.3662

*** tstop() called on ds3 at Tue Apr 28 01:42:19 2020
Module time:
	user time   =      27.22 seconds =       0.45 minutes
	system time =      13.87 seconds =       0.23 minutes
	total time  =         41 seconds =       0.68 minutes
Total time:
	user time   =      27.22 seconds =       0.45 minutes
	system time =      13.87 seconds =       0.23 minutes
	total time  =         41 seconds =       0.68 minutes
                                     G D M A

                                 by Anthony Stone

                           version 2.2.06, 22 June 2011

               Distributed Multipoles from Gaussian wavefunctions

Starting at 1:42:19 on 28 Apr 2020

Using SCF density matrix from file ./SSI/SSI-001SER-030GLU-1-dimer.test.8985.fchk

                         Distributed Multipole Analysis

Standard DMA

Positions and radii in angstrom
Multipole moments in atomic units, ea_0^k for rank k

C          x =  1.079759  y =  1.783530  z = -1.861892 angstrom
           Maximum rank =  0   Radius =  0.650 angstrom
                   Q00  =   0.091430

C          x =  0.726759  y =  3.220530  z = -1.458892 angstrom
           Maximum rank =  0   Radius =  0.650 angstrom
                   Q00  =  -0.250530

O          x =  2.359759  y =  1.748530  z = -2.449892 angstrom
           Maximum rank =  0   Radius =  0.650 angstrom
                   Q00  =  -0.591643

H          x =  1.066759  y =  1.132530  z = -0.987892 angstrom
           Maximum rank =  0   Radius =  0.325 angstrom
                   Q00  =   0.075204

H          x =  0.344759  y =  1.415530  z = -2.578892 angstrom
           Maximum rank =  0   Radius =  0.325 angstrom
                   Q00  =   0.036726

H          x = -0.314241  y =  3.226530  z = -1.125892 angstrom
           Maximum rank =  0   Radius =  0.325 angstrom
                   Q00  =   0.092744

H          x =  2.549759  y =  0.852530  z = -2.750892 angstrom
           Maximum rank =  0   Radius =  0.325 angstrom
                   Q00  =   0.384594

H          x =  0.813649  y =  3.912710  z = -2.309382 angstrom
           Maximum rank =  0   Radius =  0.325 angstrom
                   Q00  =   0.075547

H          x =  1.343829  y =  3.535200  z = -0.604372 angstrom
           Maximum rank =  0   Radius =  0.325 angstrom
                   Q00  =   0.083409

C          x = -0.275241  y = -0.676470  z =  0.765108 angstrom
           Maximum rank =  0   Radius =  0.650 angstrom
                   Q00  =  -0.143936

C          x =  1.075759  y = -1.184470  z =  1.256108 angstrom
           Maximum rank =  0   Radius =  0.650 angstrom
                   Q00  =  -0.228716

C          x = -1.442241  y = -1.505470  z =  1.231108 angstrom
           Maximum rank =  0   Radius =  0.650 angstrom
                   Q00  =   1.064831

O          x = -1.330241  y = -2.174470  z =  2.280108 angstrom
           Maximum rank =  0   Radius =  0.650 angstrom
                   Q00  =  -0.968726

O          x = -2.496241  y = -1.430470  z =  0.561108 angstrom
           Maximum rank =  0   Radius =  0.650 angstrom
                   Q00  =  -0.956198

H          x = -0.403241  y =  0.339530  z =  1.143108 angstrom
           Maximum rank =  0   Radius =  0.325 angstrom
                   Q00  =   0.051873

H          x = -0.271241  y = -0.609470  z = -0.323892 angstrom
           Maximum rank =  0   Radius =  0.325 angstrom
                   Q00  =   0.016835

H          x =  1.085759  y = -1.232470  z =  2.345108 angstrom
           Maximum rank =  0   Radius =  0.325 angstrom
                   Q00  =   0.093656

H          x =  1.822759  y = -0.449470  z =  0.956108 angstrom
           Maximum rank =  0   Radius =  0.325 angstrom
                   Q00  =   0.007106

H          x =  1.370429  y = -2.159762  z =  0.841408 angstrom
           Maximum rank =  0   Radius =  0.325 angstrom
                   Q00  =   0.065796

Total multipoles referred to origin at
           x =   0.000000,  y =    0.000000,  z =    0.000000 angstrom
                   Q00  =  -1.000000

Finished at 1:42:19 on 28 Apr 2020

  DMA results are available in the Python driver through the
	  variable('DMA DISTRIBUTED MULTIPOLES')
  and
	  variable('DMA TOTAL MULTIPOLES')
  commands.

    Psi4 stopped on: Tuesday, 28 April 2020 01:42AM
    Psi4 wall time for execution: 0:00:40.47

*** Psi4 exiting successfully. Buy a developer a beer!
