                               Psi4 1.3.2 release

  ==> Input File <==

--------------------------------------------------------------------------
import numpy as np
set {scf_type pk
basis cc-pvdz
d_convergence 10
gdma_switch   0
gdma_limit    0
gdma_origin   [ 0.0,  0.0,  0.0 ]
}
molecule test {
    units Angstrom
    0 1
    --
    0 1
    C                2.505505242400061    -1.958774857906064     1.295836734865227
    C                3.308505242400061    -2.386774857906064     0.089836734865227
    H                1.692505242400060    -2.662774857906064     1.443836734865227
    H                3.141505242400060    -1.956774857906064     2.180836734865227
    H                2.084505242400060    -0.970774857906064     1.135836734865227
    H                3.567505242400060    -3.441774857906064     0.199836734865227
    H                4.232505242400061    -1.827774857906064     0.094836734865227
    H                2.773150242400061    -2.229614857906064    -0.858158265134773
    C               -1.077494757599940    -1.017774857906064     1.005836734865227
    C               -2.508494757599940    -0.943774857906064     1.532836734865227
    C               -0.721494757599940     0.126225142093936     0.101836734865227
    C               -0.582494757599940     1.407225142093936     0.619836734865227
    C               -0.659494757599940    -0.059774857906064    -1.274163265134773
    C               -0.278494757599940     2.474225142093936    -0.213163265134773
    C               -0.324494757599940     1.000225142093936    -2.108163265134773
    C               -0.145494757599940     2.269225142093936    -1.577163265134773
    H               -0.389494757599940    -1.029774857906064     1.850836734865227
    H               -0.962494757599940    -1.954774857906064     0.465836734865227
    H               -2.561494757599940    -0.068774857906064     2.182836734865227
    H               -0.679494757599940     1.576225142093936     1.683836734865227
    H               -0.830494757599940    -1.038774857906064    -1.699163265134773
    H               -0.153494757599940     3.466225142093936     0.198836734865227
    H               -0.247494757599940     0.845225142093936    -3.176163265134773
    H                0.062505242400060     3.100225142093936    -2.234163265134773
    H               -2.749062757599939    -1.859294857906064     2.093156734865226
    H               -3.218374757599940    -0.785224857906064     0.707648734865227

}
e, wfn = energy('scf', return_wfn=True)
gdma(wfn)
dmavals = variable('DMA DISTRIBUTED MULTIPOLES')
charges = np.array(dmavals)
print(charges)
np.save('SSI-041ILE-107PHE-2-dimer.npy', np.array(charges))--------------------------------------------------------------------------

*** tstart() called on ds3
*** at Sun Apr 26 20:39:37 2020

   => Loading Basis Set <=

    Name: CC-PVDZ
    Role: ORBITAL
    Keyword: BASIS
    atoms 1-2, 9-16  entry C          line   138 file /theoryfs2/ds/metcalf/miniconda2/envs/tf2gpu/share/psi4/basis/cc-pvdz.gbs
    atoms 3-8, 17-26 entry H          line    22 file /theoryfs2/ds/metcalf/miniconda2/envs/tf2gpu/share/psi4/basis/cc-pvdz.gbs

         ---------------------------------------------------------
                                   SCF
               by Justin Turney, Rob Parrish, Andy Simmonett
                          and Daniel G. A. Smith
                              RHF Reference
                        1 Threads,    500 MiB Core
         ---------------------------------------------------------

  ==> Geometry <==

    Molecular point group: c1
    Full point group: C1

    Geometry (in Angstrom), charge = 0, multiplicity = 1:

       Center              X                  Y                   Z               Mass
    ------------   -----------------  -----------------  -----------------  -----------------
         C            2.505505242400    -1.958774857906     1.295836734865    12.000000000000
         C            3.308505242400    -2.386774857906     0.089836734865    12.000000000000
         H            1.692505242400    -2.662774857906     1.443836734865     1.007825032230
         H            3.141505242400    -1.956774857906     2.180836734865     1.007825032230
         H            2.084505242400    -0.970774857906     1.135836734865     1.007825032230
         H            3.567505242400    -3.441774857906     0.199836734865     1.007825032230
         H            4.232505242400    -1.827774857906     0.094836734865     1.007825032230
         H            2.773150242400    -2.229614857906    -0.858158265135     1.007825032230
         C           -1.077494757600    -1.017774857906     1.005836734865    12.000000000000
         C           -2.508494757600    -0.943774857906     1.532836734865    12.000000000000
         C           -0.721494757600     0.126225142094     0.101836734865    12.000000000000
         C           -0.582494757600     1.407225142094     0.619836734865    12.000000000000
         C           -0.659494757600    -0.059774857906    -1.274163265135    12.000000000000
         C           -0.278494757600     2.474225142094    -0.213163265135    12.000000000000
         C           -0.324494757600     1.000225142094    -2.108163265135    12.000000000000
         C           -0.145494757600     2.269225142094    -1.577163265135    12.000000000000
         H           -0.389494757600    -1.029774857906     1.850836734865     1.007825032230
         H           -0.962494757600    -1.954774857906     0.465836734865     1.007825032230
         H           -2.561494757600    -0.068774857906     2.182836734865     1.007825032230
         H           -0.679494757600     1.576225142094     1.683836734865     1.007825032230
         H           -0.830494757600    -1.038774857906    -1.699163265135     1.007825032230
         H           -0.153494757600     3.466225142094     0.198836734865     1.007825032230
         H           -0.247494757600     0.845225142094    -3.176163265135     1.007825032230
         H            0.062505242400     3.100225142094    -2.234163265135     1.007825032230
         H           -2.749062757600    -1.859294857906     2.093156734865     1.007825032230
         H           -3.218374757600    -0.785224857906     0.707648734865     1.007825032230

  Running in c1 symmetry.

  Rotational constants: A =      0.04196  B =      0.02486  C =      0.01894 [cm^-1]
  Rotational constants: A =   1257.85908  B =    745.13592  C =    567.77857 [MHz]
  Nuclear repulsion =  494.057784294659257

  Charge       = 0
  Multiplicity = 1
  Electrons    = 76
  Nalpha       = 38
  Nbeta        = 38

  ==> Algorithm <==

  SCF Algorithm Type is PK.
  DIIS enabled.
  MOM disabled.
  Fractional occupation disabled.
  Guess Type is SAD.
  Energy threshold   = 1.00e-06
  Density threshold  = 1.00e-10
  Integral threshold = 0.00e+00

  ==> Primary Basis <==

  Basis Set: CC-PVDZ
    Blend: CC-PVDZ
    Number of shells: 108
    Number of basis function: 220
    Number of Cartesian functions: 230
    Spherical Harmonics?: true
    Max angular momentum: 2

  ==> Pre-Iterations <==

   -------------------------------------------------------
    Irrep   Nso     Nmo     Nalpha   Nbeta   Ndocc  Nsocc
   -------------------------------------------------------
     A        220     220       0       0       0       0
   -------------------------------------------------------
    Total     220     220      38      38      38       0
   -------------------------------------------------------

  ==> Integral Setup <==

  Using integral reordering PK algorithm.
  Sizing the integral batches needed.
  Building batch lookup table.
   Calculation information:
      Number of atoms:                  26
      Number of AO shells:             108
      Number of primitives:            300
      Number of atomic orbitals:       230
      Number of basis functions:       220

      Integral cutoff                 1.00e-12
      Number of threads:                 1

	Batch   1 pq = [       0,    9405] index = [             0,44231715] size =     44231715
	Batch   2 pq = [    9405,   13301] index = [      44231715,88464951] size =     44233236
	Batch   3 pq = [   13301,   16290] index = [      88464951,132690195] size =     44225244
	Batch   4 pq = [   16290,   18810] index = [     132690195,176917455] size =     44227260
	Batch   5 pq = [   18810,   21030] index = [     176917455,221140965] size =     44223510
	Batch   6 pq = [   21030,   23037] index = [     221140965,265363203] size =     44222238
	Batch   7 pq = [   23037,   24310] index = [     265363203,295500205] size =     30137002
  Task number: 27
  Buffer size: 11059200
  Buffer per thread: 2
  We computed 15761024 shell quartets total.
  Whereas there are 17325441 unique shell quartets.

  ==> DiskJK: Disk-Based J/K Matrices <==

    J tasked:                  Yes
    K tasked:                  Yes
    wK tasked:                  No
    Memory [MiB]:              375
    Schwarz Cutoff:          1E-12

    OpenMP threads:              1

  Minimum eigenvalue in the overlap matrix is 3.1662687266E-04.
  Using Symmetric Orthogonalization.

  SCF Guess: Superposition of Atomic Densities via on-the-fly atomic UHF.

  ==> Iterations <==

                        Total Energy        Delta E     RMS |[F,P]|

   @RHF iter SAD:  -386.98974254910928   -3.86990e+02   0.00000e+00
   @RHF iter   1:  -387.77102341355260   -7.81281e-01   2.75983e-03 DIIS
   @RHF iter   2:  -387.98908485458639   -2.18061e-01   1.15941e-03 DIIS
   @RHF iter   3:  -388.02446327813828   -3.53784e-02   2.49858e-04 DIIS
   @RHF iter   4:  -388.02732724712934   -2.86397e-03   5.98281e-05 DIIS
   @RHF iter   5:  -388.02743484088364   -1.07594e-04   2.13548e-05 DIIS
   @RHF iter   6:  -388.02744932995171   -1.44891e-05   4.03267e-06 DIIS
   @RHF iter   7:  -388.02745002154018   -6.91588e-07   1.20999e-06 DIIS
   @RHF iter   8:  -388.02745008663618   -6.50960e-08   3.69515e-07 DIIS
   @RHF iter   9:  -388.02745009950308   -1.28669e-08   1.69345e-07 DIIS
   @RHF iter  10:  -388.02745010336304   -3.85995e-09   8.38352e-08 DIIS
   @RHF iter  11:  -388.02745010436172   -9.98682e-10   2.53108e-08 DIIS
   @RHF iter  12:  -388.02745010443664   -7.49196e-11   9.57857e-09 DIIS
   @RHF iter  13:  -388.02745010444630   -9.66338e-12   3.84773e-09 DIIS
   @RHF iter  14:  -388.02745010444130    5.00222e-12   8.90470e-10 DIIS
   @RHF iter  15:  -388.02745010444875   -7.44649e-12   3.84444e-10 DIIS
   @RHF iter  16:  -388.02745010444534    3.41061e-12   1.45221e-10 DIIS
   @RHF iter  17:  -388.02745010444625   -9.09495e-13   6.42023e-11 DIIS
  Energy and wave function converged.

  ==> Post-Iterations <==

    Orbital Energies [Eh]
    ---------------------

    Doubly Occupied:

       1A    -11.236183     2A    -11.234565     3A    -11.234377
       4A    -11.229961     5A    -11.229744     6A    -11.229562
       7A    -11.226012     8A    -11.222701     9A    -11.211584
      10A    -11.209787    11A     -1.157379    12A     -1.065312
      13A     -1.020260    14A     -1.013476    15A     -0.982173
      16A     -0.861413    17A     -0.832299    18A     -0.825965
      19A     -0.785801    20A     -0.692737    21A     -0.641675
      22A     -0.633187    23A     -0.600082    24A     -0.596880
      25A     -0.592470    26A     -0.588864    27A     -0.576743
      28A     -0.541507    29A     -0.519627    30A     -0.500131
      31A     -0.498551    32A     -0.485646    33A     -0.480413
      34A     -0.477994    35A     -0.474455    36A     -0.467437
      37A     -0.333268    38A     -0.322516

    Virtual:

      39A      0.135684    40A      0.140871    41A      0.174485
      42A      0.191464    43A      0.201589    44A      0.212262
      45A      0.230653    46A      0.235518    47A      0.241939
      48A      0.254950    49A      0.259408    50A      0.264014
      51A      0.270514    52A      0.289629    53A      0.294552
      54A      0.300036    55A      0.314265    56A      0.317038
      57A      0.347201    58A      0.397834    59A      0.409449
      60A      0.416937    61A      0.453513    62A      0.469915
      63A      0.491817    64A      0.498980    65A      0.571633
      66A      0.576691    67A      0.599829    68A      0.603657
      69A      0.606964    70A      0.626055    71A      0.628602
      72A      0.649864    73A      0.675032    74A      0.682146
      75A      0.695586    76A      0.718830    77A      0.730604
      78A      0.739040    79A      0.741626    80A      0.748390
      81A      0.758571    82A      0.765667    83A      0.771477
      84A      0.798397    85A      0.826448    86A      0.848087
      87A      0.855974    88A      0.868149    89A      0.879061
      90A      0.880755    91A      0.888274    92A      0.897126
      93A      0.899309    94A      0.901411    95A      0.905242
      96A      0.912593    97A      0.916818    98A      0.933301
      99A      0.937174   100A      0.942178   101A      0.949017
     102A      0.961967   103A      0.976933   104A      0.994775
     105A      1.002524   106A      1.009675   107A      1.037184
     108A      1.076824   109A      1.122126   110A      1.123496
     111A      1.137979   112A      1.147569   113A      1.158904
     114A      1.169850   115A      1.189211   116A      1.222249
     117A      1.243335   118A      1.245620   119A      1.255599
     120A      1.258597   121A      1.294652   122A      1.305579
     123A      1.322359   124A      1.335457   125A      1.386151
     126A      1.432693   127A      1.451033   128A      1.486430
     129A      1.502115   130A      1.515486   131A      1.527295
     132A      1.569419   133A      1.609779   134A      1.622004
     135A      1.671270   136A      1.679838   137A      1.692407
     138A      1.704802   139A      1.732731   140A      1.748040
     141A      1.758342   142A      1.769742   143A      1.837068
     144A      1.853319   145A      1.863680   146A      1.872147
     147A      1.877588   148A      1.890452   149A      1.894540
     150A      1.900965   151A      1.904879   152A      1.918647
     153A      1.924345   154A      1.936695   155A      1.945065
     156A      1.946595   157A      1.947229   158A      1.959738
     159A      1.964703   160A      1.970680   161A      1.974019
     162A      1.983510   163A      1.992861   164A      2.010958
     165A      2.016663   166A      2.025312   167A      2.049777
     168A      2.064141   169A      2.068248   170A      2.104274
     171A      2.112832   172A      2.121813   173A      2.153398
     174A      2.162547   175A      2.167290   176A      2.174026
     177A      2.180855   178A      2.203275   179A      2.245468
     180A      2.248605   181A      2.276651   182A      2.300378
     183A      2.306014   184A      2.320313   185A      2.322471
     186A      2.345794   187A      2.373380   188A      2.446273
     189A      2.453617   190A      2.477870   191A      2.489082
     192A      2.498748   193A      2.537019   194A      2.548188
     195A      2.579773   196A      2.592999   197A      2.604415
     198A      2.650325   199A      2.742458   200A      2.766101
     201A      2.777211   202A      2.783614   203A      2.789953
     204A      2.802581   205A      2.808254   206A      2.842826
     207A      2.856303   208A      2.868759   209A      2.875080
     210A      2.911441   211A      2.956973   212A      2.965198
     213A      2.982848   214A      3.006790   215A      3.020820
     216A      3.064984   217A      3.186341   218A      3.213913
     219A      3.317965   220A      3.980791

    Final Occupation by Irrep:
              A
    DOCC [    38 ]

  @RHF Final Energy:  -388.02745010444625

   => Energetics <=

    Nuclear Repulsion Energy =            494.0577842946592568
    One-Electron Energy =               -1502.5049954403568790
    Two-Electron Energy =                 620.4197610412513768
    Total Energy =                       -388.0274501044461886

Computation Completed

Properties will be evaluated at   0.000000,   0.000000,   0.000000 [a0]

Properties computed using the SCF density matrix

  Nuclear Dipole Moment: [e a0]
     X:     5.4020      Y:   -10.1605      Z:     5.8784

  Electronic Dipole Moment: [e a0]
     X:    -5.4728      Y:    10.1210      Z:    -5.8146

  Dipole Moment: [e a0]
     X:    -0.0708      Y:    -0.0394      Z:     0.0638     Total:     0.1031

  Dipole Moment: [D]
     X:    -0.1800      Y:    -0.1003      Z:     0.1622     Total:     0.2622

*** tstop() called on ds3 at Sun Apr 26 20:42:19 2020
Module time:
	user time   =     115.34 seconds =       1.92 minutes
	system time =      53.63 seconds =       0.89 minutes
	total time  =        162 seconds =       2.70 minutes
Total time:
	user time   =     115.34 seconds =       1.92 minutes
	system time =      53.63 seconds =       0.89 minutes
	total time  =        162 seconds =       2.70 minutes
                                     G D M A

                                 by Anthony Stone

                           version 2.2.06, 22 June 2011

               Distributed Multipoles from Gaussian wavefunctions

Starting at 20:42:19 on 26 Apr 2020

Using SCF density matrix from file ./SSI/SSI-041ILE-107PHE-2-dimer.test.4815.fchk

                         Distributed Multipole Analysis

Standard DMA

Positions and radii in angstrom
Multipole moments in atomic units, ea_0^k for rank k

C          x =  2.505505  y = -1.958775  z =  1.295837 angstrom
           Maximum rank =  0   Radius =  0.650 angstrom
                   Q00  =  -0.229495

C          x =  3.308505  y = -2.386775  z =  0.089837 angstrom
           Maximum rank =  0   Radius =  0.650 angstrom
                   Q00  =  -0.231167

H          x =  1.692505  y = -2.662775  z =  1.443837 angstrom
           Maximum rank =  0   Radius =  0.325 angstrom
                   Q00  =   0.070984

H          x =  3.141505  y = -1.956775  z =  2.180837 angstrom
           Maximum rank =  0   Radius =  0.325 angstrom
                   Q00  =   0.075667

H          x =  2.084505  y = -0.970775  z =  1.135837 angstrom
           Maximum rank =  0   Radius =  0.325 angstrom
                   Q00  =   0.085696

H          x =  3.567505  y = -3.441775  z =  0.199837 angstrom
           Maximum rank =  0   Radius =  0.325 angstrom
                   Q00  =   0.071138

H          x =  4.232505  y = -1.827775  z =  0.094837 angstrom
           Maximum rank =  0   Radius =  0.325 angstrom
                   Q00  =   0.076429

H          x =  2.773150  y = -2.229615  z = -0.858158 angstrom
           Maximum rank =  0   Radius =  0.325 angstrom
                   Q00  =   0.080739

C          x = -1.077495  y = -1.017775  z =  1.005837 angstrom
           Maximum rank =  0   Radius =  0.650 angstrom
                   Q00  =  -0.035172

C          x = -2.508495  y = -0.943775  z =  1.532837 angstrom
           Maximum rank =  0   Radius =  0.650 angstrom
                   Q00  =  -0.232062

C          x = -0.721495  y =  0.126225  z =  0.101837 angstrom
           Maximum rank =  0   Radius =  0.650 angstrom
                   Q00  =  -0.104768

C          x = -0.582495  y =  1.407225  z =  0.619837 angstrom
           Maximum rank =  0   Radius =  0.650 angstrom
                   Q00  =  -0.009216

C          x = -0.659495  y = -0.059775  z = -1.274163 angstrom
           Maximum rank =  0   Radius =  0.650 angstrom
                   Q00  =  -0.086726

C          x = -0.278495  y =  2.474225  z = -0.213163 angstrom
           Maximum rank =  0   Radius =  0.650 angstrom
                   Q00  =  -0.073646

C          x = -0.324495  y =  1.000225  z = -2.108163 angstrom
           Maximum rank =  0   Radius =  0.650 angstrom
                   Q00  =  -0.051512

C          x = -0.145495  y =  2.269225  z = -1.577163 angstrom
           Maximum rank =  0   Radius =  0.650 angstrom
                   Q00  =  -0.088385

H          x = -0.389495  y = -1.029775  z =  1.850837 angstrom
           Maximum rank =  0   Radius =  0.325 angstrom
                   Q00  =   0.070916

H          x = -0.962495  y = -1.954775  z =  0.465837 angstrom
           Maximum rank =  0   Radius =  0.325 angstrom
                   Q00  =   0.061648

H          x = -2.561495  y = -0.068775  z =  2.182837 angstrom
           Maximum rank =  0   Radius =  0.325 angstrom
                   Q00  =   0.078183

H          x = -0.679495  y =  1.576225  z =  1.683837 angstrom
           Maximum rank =  0   Radius =  0.325 angstrom
                   Q00  =   0.055774

H          x = -0.830495  y = -1.038775  z = -1.699163 angstrom
           Maximum rank =  0   Radius =  0.325 angstrom
                   Q00  =   0.057634

H          x = -0.153495  y =  3.466225  z =  0.198837 angstrom
           Maximum rank =  0   Radius =  0.325 angstrom
                   Q00  =   0.063901

H          x = -0.247495  y =  0.845225  z = -3.176163 angstrom
           Maximum rank =  0   Radius =  0.325 angstrom
                   Q00  =   0.064371

H          x =  0.062505  y =  3.100225  z = -2.234163 angstrom
           Maximum rank =  0   Radius =  0.325 angstrom
                   Q00  =   0.060266

H          x = -2.749063  y = -1.859295  z =  2.093157 angstrom
           Maximum rank =  0   Radius =  0.325 angstrom
                   Q00  =   0.084527

H          x = -3.218375  y = -0.785225  z =  0.707649 angstrom
           Maximum rank =  0   Radius =  0.325 angstrom
                   Q00  =   0.084277

Total multipoles referred to origin at
           x =   0.000000,  y =    0.000000,  z =    0.000000 angstrom
                   Q00  =  -0.000000

Finished at 20:42:19 on 26 Apr 2020

  DMA results are available in the Python driver through the
	  variable('DMA DISTRIBUTED MULTIPOLES')
  and
	  variable('DMA TOTAL MULTIPOLES')
  commands.

    Psi4 stopped on: Sunday, 26 April 2020 08:42PM
    Psi4 wall time for execution: 0:02:41.97

*** Psi4 exiting successfully. Buy a developer a beer!
