                               Psi4 1.3.2 release

  ==> Input File <==

--------------------------------------------------------------------------
import numpy as np
set {scf_type pk
basis cc-pvdz
d_convergence 10
gdma_switch   0
gdma_limit    0
gdma_origin   [ 0.0,  0.0,  0.0 ]
}
molecule test {
    units Angstrom
    0 1
    --
    0 1
    C                1.522389979083970    -0.697286023754372    -1.812254388880773
    C                0.831389979083970    -1.063286023754372    -3.131254388880773
    C                2.501389979083970    -1.704286023754372    -1.215254388880773
    H                2.019389979083970     0.247713976245628    -1.916254388880773
    H                0.743389979083970    -0.546286023754372    -1.069254388880773
    H                0.465389979083970    -2.086286023754372    -3.026254388880773
    H                1.936389979083970    -2.586286023754372    -0.911254388880773
    H                1.522709979083970    -0.988056023754372    -3.983554388880773
    H               -0.031590020916030    -0.404426023754372    -3.307774388880773
    H                3.269309979083970    -2.028116023754372    -1.933184388880773
    H                2.984319979083970    -1.277666023754372    -0.323754388880773
    C               -0.645610020916030    -1.802286023754372     1.610745611119227
    C               -1.602610020916030     0.059713976245628     0.232745611119227
    C               -0.701610020916030    -0.356286023754372     1.208745611119227
    C               -1.694610020916030     1.411713976245628    -0.121254388880773
    C                0.090389979083970     0.590713976245628     1.854745611119227
    C               -0.881610020916030     2.351713976245628     0.506745611119227
    C                0.005389979083970     1.943713976245628     1.500745611119227
    H               -2.245610020916030    -0.665286023754372    -0.245254388880773
    H               -2.423610020916030     1.739713976245628    -0.839254388880773
    H                0.157389979083970    -1.943286023754372     2.337745611119227
    H               -0.404610020916030    -2.398286023754372     0.729745611119227
    H                0.777389979083970     0.284713976245628     2.630745611119227
    H               -0.955610020916030     3.398713976245628     0.245745611119227
    H                0.621389979083970     2.673713976245628     2.008745611119227
    H               -1.588420020916030    -2.161866023754372     2.048705611119227

}
e, wfn = energy('scf', return_wfn=True)
gdma(wfn)
dmavals = variable('DMA DISTRIBUTED MULTIPOLES')
charges = np.array(dmavals)
print(charges)
np.save('SSI-041LEU-162PHE-1-dimer.npy', np.array(charges))--------------------------------------------------------------------------

*** tstart() called on ds3
*** at Tue Apr 28 14:50:48 2020

   => Loading Basis Set <=

    Name: CC-PVDZ
    Role: ORBITAL
    Keyword: BASIS
    atoms 1-3, 12-18  entry C          line   138 file /theoryfs2/ds/metcalf/miniconda2/envs/tf2gpu/share/psi4/basis/cc-pvdz.gbs
    atoms 4-11, 19-26 entry H          line    22 file /theoryfs2/ds/metcalf/miniconda2/envs/tf2gpu/share/psi4/basis/cc-pvdz.gbs

         ---------------------------------------------------------
                                   SCF
               by Justin Turney, Rob Parrish, Andy Simmonett
                          and Daniel G. A. Smith
                              RHF Reference
                        1 Threads,    500 MiB Core
         ---------------------------------------------------------

  ==> Geometry <==

    Molecular point group: c1
    Full point group: C1

    Geometry (in Angstrom), charge = 0, multiplicity = 1:

       Center              X                  Y                   Z               Mass
    ------------   -----------------  -----------------  -----------------  -----------------
         C            1.522389979084    -0.697286023754    -1.812254388881    12.000000000000
         C            0.831389979084    -1.063286023754    -3.131254388881    12.000000000000
         C            2.501389979084    -1.704286023754    -1.215254388881    12.000000000000
         H            2.019389979084     0.247713976246    -1.916254388881     1.007825032230
         H            0.743389979084    -0.546286023754    -1.069254388881     1.007825032230
         H            0.465389979084    -2.086286023754    -3.026254388881     1.007825032230
         H            1.936389979084    -2.586286023754    -0.911254388881     1.007825032230
         H            1.522709979084    -0.988056023754    -3.983554388881     1.007825032230
         H           -0.031590020916    -0.404426023754    -3.307774388881     1.007825032230
         H            3.269309979084    -2.028116023754    -1.933184388881     1.007825032230
         H            2.984319979084    -1.277666023754    -0.323754388881     1.007825032230
         C           -0.645610020916    -1.802286023754     1.610745611119    12.000000000000
         C           -1.602610020916     0.059713976246     0.232745611119    12.000000000000
         C           -0.701610020916    -0.356286023754     1.208745611119    12.000000000000
         C           -1.694610020916     1.411713976246    -0.121254388881    12.000000000000
         C            0.090389979084     0.590713976246     1.854745611119    12.000000000000
         C           -0.881610020916     2.351713976246     0.506745611119    12.000000000000
         C            0.005389979084     1.943713976246     1.500745611119    12.000000000000
         H           -2.245610020916    -0.665286023754    -0.245254388881     1.007825032230
         H           -2.423610020916     1.739713976246    -0.839254388881     1.007825032230
         H            0.157389979084    -1.943286023754     2.337745611119     1.007825032230
         H           -0.404610020916    -2.398286023754     0.729745611119     1.007825032230
         H            0.777389979084     0.284713976246     2.630745611119     1.007825032230
         H           -0.955610020916     3.398713976246     0.245745611119     1.007825032230
         H            0.621389979084     2.673713976246     2.008745611119     1.007825032230
         H           -1.588420020916    -2.161866023754     2.048705611119     1.007825032230

  Running in c1 symmetry.

  Rotational constants: A =      0.05089  B =      0.02453  C =      0.02176 [cm^-1]
  Rotational constants: A =   1525.77902  B =    735.44492  C =    652.24755 [MHz]
  Nuclear repulsion =  499.740902816679920

  Charge       = 0
  Multiplicity = 1
  Electrons    = 76
  Nalpha       = 38
  Nbeta        = 38

  ==> Algorithm <==

  SCF Algorithm Type is PK.
  DIIS enabled.
  MOM disabled.
  Fractional occupation disabled.
  Guess Type is SAD.
  Energy threshold   = 1.00e-06
  Density threshold  = 1.00e-10
  Integral threshold = 0.00e+00

  ==> Primary Basis <==

  Basis Set: CC-PVDZ
    Blend: CC-PVDZ
    Number of shells: 108
    Number of basis function: 220
    Number of Cartesian functions: 230
    Spherical Harmonics?: true
    Max angular momentum: 2

  ==> Pre-Iterations <==

   -------------------------------------------------------
    Irrep   Nso     Nmo     Nalpha   Nbeta   Ndocc  Nsocc
   -------------------------------------------------------
     A        220     220       0       0       0       0
   -------------------------------------------------------
    Total     220     220      38      38      38       0
   -------------------------------------------------------

  ==> Integral Setup <==

  Using integral reordering PK algorithm.
  Sizing the integral batches needed.
  Building batch lookup table.
   Calculation information:
      Number of atoms:                  26
      Number of AO shells:             108
      Number of primitives:            300
      Number of atomic orbitals:       230
      Number of basis functions:       220

      Integral cutoff                 1.00e-12
      Number of threads:                 1

	Batch   1 pq = [       0,    9405] index = [             0,44231715] size =     44231715
	Batch   2 pq = [    9405,   13301] index = [      44231715,88464951] size =     44233236
	Batch   3 pq = [   13301,   16290] index = [      88464951,132690195] size =     44225244
	Batch   4 pq = [   16290,   18810] index = [     132690195,176917455] size =     44227260
	Batch   5 pq = [   18810,   21030] index = [     176917455,221140965] size =     44223510
	Batch   6 pq = [   21030,   23037] index = [     221140965,265363203] size =     44222238
	Batch   7 pq = [   23037,   24310] index = [     265363203,295500205] size =     30137002
  Task number: 27
  Buffer size: 11059200
  Buffer per thread: 2
  We computed 17332381 shell quartets total.
  Whereas there are 17325441 unique shell quartets.
     0.04 percent of shell quartets recomputed by reordering.

  ==> DiskJK: Disk-Based J/K Matrices <==

    J tasked:                  Yes
    K tasked:                  Yes
    wK tasked:                  No
    Memory [MiB]:              375
    Schwarz Cutoff:          1E-12

    OpenMP threads:              1

  Minimum eigenvalue in the overlap matrix is 3.1680752679E-04.
  Using Symmetric Orthogonalization.

  SCF Guess: Superposition of Atomic Densities via on-the-fly atomic UHF.

  ==> Iterations <==

                        Total Energy        Delta E     RMS |[F,P]|

   @RHF iter SAD:  -386.85553421927460   -3.86856e+02   0.00000e+00
   @RHF iter   1:  -387.77187032195008   -9.16336e-01   2.73770e-03 DIIS
   @RHF iter   2:  -387.98956401894918   -2.17694e-01   1.14406e-03 DIIS
   @RHF iter   3:  -388.02409263467928   -3.45286e-02   2.49170e-04 DIIS
   @RHF iter   4:  -388.02693858389182   -2.84595e-03   5.50937e-05 DIIS
   @RHF iter   5:  -388.02703486329870   -9.62794e-05   1.77016e-05 DIIS
   @RHF iter   6:  -388.02704457716254   -9.71386e-06   5.08049e-06 DIIS
   @RHF iter   7:  -388.02704552078598   -9.43623e-07   1.20913e-06 DIIS
   @RHF iter   8:  -388.02704559971636   -7.89304e-08   3.60007e-07 DIIS
   @RHF iter   9:  -388.02704561526332   -1.55470e-08   1.64498e-07 DIIS
   @RHF iter  10:  -388.02704561951236   -4.24905e-09   7.90237e-08 DIIS
   @RHF iter  11:  -388.02704562060819   -1.09583e-09   2.52043e-08 DIIS
   @RHF iter  12:  -388.02704562070437   -9.61791e-11   7.93742e-09 DIIS
   @RHF iter  13:  -388.02704562071119   -6.82121e-12   2.95224e-09 DIIS
   @RHF iter  14:  -388.02704562071045    7.38964e-13   7.26175e-10 DIIS
   @RHF iter  15:  -388.02704562071415   -3.69482e-12   2.85089e-10 DIIS
   @RHF iter  16:  -388.02704562071131    2.84217e-12   1.06038e-10 DIIS
   @RHF iter  17:  -388.02704562071085    4.54747e-13   4.28532e-11 DIIS
  Energy and wave function converged.

  ==> Post-Iterations <==

    Orbital Energies [Eh]
    ---------------------

    Doubly Occupied:

       1A    -11.241213     2A    -11.238088     3A    -11.237800
       4A    -11.233082     5A    -11.232857     6A    -11.232182
       7A    -11.230284     8A    -11.212908     9A    -11.212569
      10A    -11.205711    11A     -1.152835    12A     -1.046738
      13A     -1.043791    14A     -1.010642    15A     -0.932033
      16A     -0.920761    17A     -0.827537    18A     -0.795071
      19A     -0.788968    20A     -0.691476    21A     -0.633607
      22A     -0.630724    23A     -0.618921    24A     -0.588143
      25A     -0.582940    26A     -0.576849    27A     -0.564431
      28A     -0.542902    29A     -0.535775    30A     -0.528888
      31A     -0.489458    32A     -0.486709    33A     -0.482347
      34A     -0.471275    35A     -0.458172    36A     -0.452663
      37A     -0.331799    38A     -0.323186

    Virtual:

      39A      0.131065    40A      0.140319    41A      0.166583
      42A      0.191947    43A      0.203587    44A      0.215629
      45A      0.230049    46A      0.239477    47A      0.248301
      48A      0.254349    49A      0.257391    50A      0.265404
      51A      0.272166    52A      0.287141    53A      0.294579
      54A      0.299554    55A      0.323998    56A      0.335393
      57A      0.368700    58A      0.373537    59A      0.390437
      60A      0.435253    61A      0.448957    62A      0.459710
      63A      0.474181    64A      0.500495    65A      0.562906
      66A      0.571701    67A      0.592306    68A      0.600159
      69A      0.614204    70A      0.619791    71A      0.625560
      72A      0.666678    73A      0.678044    74A      0.702802
      75A      0.720025    76A      0.737243    77A      0.740316
      78A      0.743404    79A      0.750194    80A      0.753135
      81A      0.762023    82A      0.776106    83A      0.782866
      84A      0.806698    85A      0.812481    86A      0.834742
      87A      0.858494    88A      0.864162    89A      0.867295
      90A      0.882232    91A      0.884698    92A      0.893096
      93A      0.896823    94A      0.898158    95A      0.907198
      96A      0.908815    97A      0.913693    98A      0.915475
      99A      0.925299   100A      0.935435   101A      0.952961
     102A      0.958064   103A      0.974509   104A      0.985753
     105A      0.997748   106A      1.010000   107A      1.048087
     108A      1.100722   109A      1.116460   110A      1.122617
     111A      1.136987   112A      1.145822   113A      1.152104
     114A      1.162050   115A      1.204828   116A      1.219082
     117A      1.234108   118A      1.250415   119A      1.257608
     120A      1.298072   121A      1.300814   122A      1.315369
     123A      1.323460   124A      1.360056   125A      1.383755
     126A      1.435605   127A      1.461132   128A      1.488962
     129A      1.510332   130A      1.512474   131A      1.546810
     132A      1.563938   133A      1.609535   134A      1.654244
     135A      1.665033   136A      1.677903   137A      1.689522
     138A      1.695973   139A      1.712011   140A      1.732713
     141A      1.741388   142A      1.758118   143A      1.788947
     144A      1.817472   145A      1.856779   146A      1.860836
     147A      1.867767   148A      1.878322   149A      1.881352
     150A      1.892014   151A      1.901228   152A      1.914413
     153A      1.930434   154A      1.935046   155A      1.939376
     156A      1.940616   157A      1.948980   158A      1.950896
     159A      1.963779   160A      1.972574   161A      1.981874
     162A      1.991311   163A      2.004728   164A      2.015466
     165A      2.020897   166A      2.036712   167A      2.048390
     168A      2.050694   169A      2.068105   170A      2.082249
     171A      2.108091   172A      2.131856   173A      2.141568
     174A      2.151598   175A      2.163502   176A      2.169799
     177A      2.188593   178A      2.204390   179A      2.244716
     180A      2.269320   181A      2.279676   182A      2.288659
     183A      2.291541   184A      2.303474   185A      2.317681
     186A      2.338382   187A      2.347781   188A      2.361034
     189A      2.443656   190A      2.475845   191A      2.494348
     192A      2.520261   193A      2.527740   194A      2.556691
     195A      2.603706   196A      2.632012   197A      2.634642
     198A      2.642203   199A      2.736825   200A      2.744670
     201A      2.762888   202A      2.772032   203A      2.778594
     204A      2.787231   205A      2.792144   206A      2.807984
     207A      2.817579   208A      2.847541   209A      2.868083
     210A      2.958491   211A      2.960541   212A      2.975189
     213A      2.987087   214A      3.012373   215A      3.041399
     216A      3.111476   217A      3.154867   218A      3.194149
     219A      3.296136   220A      3.959444

    Final Occupation by Irrep:
              A
    DOCC [    38 ]

  @RHF Final Energy:  -388.02704562071085

   => Energetics <=

    Nuclear Repulsion Energy =            499.7409028166799203
    One-Electron Energy =               -1513.9652254114657808
    Two-Electron Energy =                 626.1972769740750664
    Total Energy =                       -388.0270456207108509

Computation Completed

Properties will be evaluated at   0.000000,   0.000000,   0.000000 [a0]

Properties computed using the SCF density matrix

  Nuclear Dipole Moment: [e a0]
     X:     6.4194      Y:    -8.1947      Z:    -7.0820

  Electronic Dipole Moment: [e a0]
     X:    -6.5105      Y:     8.1871      Z:     7.2237

  Dipole Moment: [e a0]
     X:    -0.0911      Y:    -0.0075      Z:     0.1417     Total:     0.1686

  Dipole Moment: [D]
     X:    -0.2316      Y:    -0.0192      Z:     0.3602     Total:     0.4286

*** tstop() called on ds3 at Tue Apr 28 14:54:27 2020
Module time:
	user time   =     121.40 seconds =       2.02 minutes
	system time =      40.97 seconds =       0.68 minutes
	total time  =        219 seconds =       3.65 minutes
Total time:
	user time   =     121.40 seconds =       2.02 minutes
	system time =      40.97 seconds =       0.68 minutes
	total time  =        219 seconds =       3.65 minutes
                                     G D M A

                                 by Anthony Stone

                           version 2.2.06, 22 June 2011

               Distributed Multipoles from Gaussian wavefunctions

Starting at 14:54:27 on 28 Apr 2020

Using SCF density matrix from file ./SSI/SSI-041LEU-162PHE-1-dimer.test.16544.fchk

                         Distributed Multipole Analysis

Standard DMA

Positions and radii in angstrom
Multipole moments in atomic units, ea_0^k for rank k

C          x =  1.522390  y = -0.697286  z = -1.812254 angstrom
           Maximum rank =  0   Radius =  0.650 angstrom
                   Q00  =  -0.093013

C          x =  0.831390  y = -1.063286  z = -3.131254 angstrom
           Maximum rank =  0   Radius =  0.650 angstrom
                   Q00  =  -0.238397

C          x =  2.501390  y = -1.704286  z = -1.215254 angstrom
           Maximum rank =  0   Radius =  0.650 angstrom
                   Q00  =  -0.238216

H          x =  2.019390  y =  0.247714  z = -1.916254 angstrom
           Maximum rank =  0   Radius =  0.325 angstrom
                   Q00  =   0.045849

H          x =  0.743390  y = -0.546286  z = -1.069254 angstrom
           Maximum rank =  0   Radius =  0.325 angstrom
                   Q00  =   0.058978

H          x =  0.465390  y = -2.086286  z = -3.026254 angstrom
           Maximum rank =  0   Radius =  0.325 angstrom
                   Q00  =   0.069272

H          x =  1.936390  y = -2.586286  z = -0.911254 angstrom
           Maximum rank =  0   Radius =  0.325 angstrom
                   Q00  =   0.068749

H          x =  1.522710  y = -0.988056  z = -3.983554 angstrom
           Maximum rank =  0   Radius =  0.325 angstrom
                   Q00  =   0.078860

H          x = -0.031590  y = -0.404426  z = -3.307774 angstrom
           Maximum rank =  0   Radius =  0.325 angstrom
                   Q00  =   0.083935

H          x =  3.269310  y = -2.028116  z = -1.933184 angstrom
           Maximum rank =  0   Radius =  0.325 angstrom
                   Q00  =   0.074969

H          x =  2.984320  y = -1.277666  z = -0.323754 angstrom
           Maximum rank =  0   Radius =  0.325 angstrom
                   Q00  =   0.084532

C          x = -0.645610  y = -1.802286  z =  1.610746 angstrom
           Maximum rank =  0   Radius =  0.650 angstrom
                   Q00  =  -0.199624

C          x = -1.602610  y =  0.059714  z =  0.232746 angstrom
           Maximum rank =  0   Radius =  0.650 angstrom
                   Q00  =  -0.018703

C          x = -0.701610  y = -0.356286  z =  1.208746 angstrom
           Maximum rank =  0   Radius =  0.650 angstrom
                   Q00  =  -0.099031

C          x = -1.694610  y =  1.411714  z = -0.121254 angstrom
           Maximum rank =  0   Radius =  0.650 angstrom
                   Q00  =  -0.077437

C          x =  0.090390  y =  0.590714  z =  1.854746 angstrom
           Maximum rank =  0   Radius =  0.650 angstrom
                   Q00  =  -0.055777

C          x = -0.881610  y =  2.351714  z =  0.506746 angstrom
           Maximum rank =  0   Radius =  0.650 angstrom
                   Q00  =  -0.088474

C          x =  0.005390  y =  1.943714  z =  1.500746 angstrom
           Maximum rank =  0   Radius =  0.650 angstrom
                   Q00  =  -0.070114

H          x = -2.245610  y = -0.665286  z = -0.245254 angstrom
           Maximum rank =  0   Radius =  0.325 angstrom
                   Q00  =   0.056115

H          x = -2.423610  y =  1.739714  z = -0.839254 angstrom
           Maximum rank =  0   Radius =  0.325 angstrom
                   Q00  =   0.066256

H          x =  0.157390  y = -1.943286  z =  2.337746 angstrom
           Maximum rank =  0   Radius =  0.325 angstrom
                   Q00  =   0.097182

H          x = -0.404610  y = -2.398286  z =  0.729746 angstrom
           Maximum rank =  0   Radius =  0.325 angstrom
                   Q00  =   0.100501

H          x =  0.777390  y =  0.284714  z =  2.630746 angstrom
           Maximum rank =  0   Radius =  0.325 angstrom
                   Q00  =   0.060591

H          x = -0.955610  y =  3.398714  z =  0.245746 angstrom
           Maximum rank =  0   Radius =  0.325 angstrom
                   Q00  =   0.062996

H          x =  0.621390  y =  2.673714  z =  2.008746 angstrom
           Maximum rank =  0   Radius =  0.325 angstrom
                   Q00  =   0.066577

H          x = -1.588420  y = -2.161866  z =  2.048706 angstrom
           Maximum rank =  0   Radius =  0.325 angstrom
                   Q00  =   0.103422

Total multipoles referred to origin at
           x =   0.000000,  y =    0.000000,  z =    0.000000 angstrom
                   Q00  =  -0.000000

Finished at 14:54:27 on 28 Apr 2020

  DMA results are available in the Python driver through the
	  variable('DMA DISTRIBUTED MULTIPOLES')
  and
	  variable('DMA TOTAL MULTIPOLES')
  commands.

    Psi4 stopped on: Tuesday, 28 April 2020 02:54PM
    Psi4 wall time for execution: 0:03:39.72

*** Psi4 exiting successfully. Buy a developer a beer!
