                               Psi4 1.3.2 release

  ==> Input File <==

--------------------------------------------------------------------------
import numpy as np
set {scf_type pk
basis cc-pvdz
d_convergence 10
gdma_switch   0
gdma_limit    0
gdma_origin   [ 0.0,  0.0,  0.0 ]
}
molecule test {
    units Angstrom
    0 1
    --
    0 1
    C                1.963354904780781     1.533661020284178    -2.009217850404474
    C                0.356354904780781    -0.428338979715822    -1.611217850404473
    C                0.223354904780781    -0.523338979715822     0.629782149595527
    C                1.135354904780781     0.598661020284178    -1.171217850404473
    C                1.066354904780781     0.564661020284178     0.268782149595527
    C               -0.058645095219219    -0.845338979715823     1.956782149595527
    C                0.517354904780781    -0.064338979715822     2.949782149595527
    C                1.634354904780781     1.342661020284178     1.293782149595527
    C                1.353354904780781     1.020661020284177     2.626782149595527
    N               -0.190645095219219    -1.104338979715823    -0.542217850404473
    H               -0.803645095219219    -1.909338979715822    -0.632217850404473
    H                0.221354904780781    -0.696338979715823    -2.655217850404473
    H               -0.693645095219219    -1.681338979715822     2.204782149595526
    H                1.603354904780781     2.549661020284177    -1.843217850404473
    H                1.828354904780781     1.292661020284178    -3.063217850404473
    H                0.331354904780782    -0.292338979715823     3.990782149595526
    H                2.245354904780782     2.198661020284178     1.055782149595527
    H                1.776354904780781     1.625661020284177     3.414782149595526
    H                3.031304904780781     1.491371020284177    -1.749037850404473
    C               -3.649645095219219    -0.323338979715822    -1.301217850404473
    O               -2.966645095219218    -1.404338979715823    -1.914217850404473
    H               -2.393645095219218    -1.045338979715822    -2.607217850404473
    H               -4.065645095219218     0.315661020284178    -2.081217850404473
    H               -2.955645095219218     0.259661020284178    -0.695217850404473
    H               -4.468955095219219    -0.716088979715822    -0.681157850404473

}
e, wfn = energy('scf', return_wfn=True)
gdma(wfn)
dmavals = variable('DMA DISTRIBUTED MULTIPOLES')
charges = np.array(dmavals)
print(charges)
np.save('SSI-058TRP-084SER-1-dimer.npy', np.array(charges))--------------------------------------------------------------------------

*** tstart() called on ds3
*** at Tue Apr 28 11:43:48 2020

   => Loading Basis Set <=

    Name: CC-PVDZ
    Role: ORBITAL
    Keyword: BASIS
    atoms 1-9, 20      entry C          line   138 file /theoryfs2/ds/metcalf/miniconda2/envs/tf2gpu/share/psi4/basis/cc-pvdz.gbs
    atoms 10           entry N          line   168 file /theoryfs2/ds/metcalf/miniconda2/envs/tf2gpu/share/psi4/basis/cc-pvdz.gbs
    atoms 11-19, 22-25 entry H          line    22 file /theoryfs2/ds/metcalf/miniconda2/envs/tf2gpu/share/psi4/basis/cc-pvdz.gbs
    atoms 21           entry O          line   198 file /theoryfs2/ds/metcalf/miniconda2/envs/tf2gpu/share/psi4/basis/cc-pvdz.gbs

         ---------------------------------------------------------
                                   SCF
               by Justin Turney, Rob Parrish, Andy Simmonett
                          and Daniel G. A. Smith
                              RHF Reference
                        1 Threads,    500 MiB Core
         ---------------------------------------------------------

  ==> Geometry <==

    Molecular point group: c1
    Full point group: C1

    Geometry (in Angstrom), charge = 0, multiplicity = 1:

       Center              X                  Y                   Z               Mass
    ------------   -----------------  -----------------  -----------------  -----------------
         C            1.963354904781     1.533661020284    -2.009217850404    12.000000000000
         C            0.356354904781    -0.428338979716    -1.611217850404    12.000000000000
         C            0.223354904781    -0.523338979716     0.629782149596    12.000000000000
         C            1.135354904781     0.598661020284    -1.171217850404    12.000000000000
         C            1.066354904781     0.564661020284     0.268782149596    12.000000000000
         C           -0.058645095219    -0.845338979716     1.956782149596    12.000000000000
         C            0.517354904781    -0.064338979716     2.949782149596    12.000000000000
         C            1.634354904781     1.342661020284     1.293782149596    12.000000000000
         C            1.353354904781     1.020661020284     2.626782149596    12.000000000000
         N           -0.190645095219    -1.104338979716    -0.542217850404    14.003074004430
         H           -0.803645095219    -1.909338979716    -0.632217850404     1.007825032230
         H            0.221354904781    -0.696338979716    -2.655217850404     1.007825032230
         H           -0.693645095219    -1.681338979716     2.204782149596     1.007825032230
         H            1.603354904781     2.549661020284    -1.843217850404     1.007825032230
         H            1.828354904781     1.292661020284    -3.063217850404     1.007825032230
         H            0.331354904781    -0.292338979716     3.990782149596     1.007825032230
         H            2.245354904781     2.198661020284     1.055782149596     1.007825032230
         H            1.776354904781     1.625661020284     3.414782149596     1.007825032230
         H            3.031304904781     1.491371020284    -1.749037850404     1.007825032230
         C           -3.649645095219    -0.323338979716    -1.301217850404    12.000000000000
         O           -2.966645095219    -1.404338979716    -1.914217850404    15.994914619570
         H           -2.393645095219    -1.045338979716    -2.607217850404     1.007825032230
         H           -4.065645095219     0.315661020284    -2.081217850404     1.007825032230
         H           -2.955645095219     0.259661020284    -0.695217850404     1.007825032230
         H           -4.468955095219    -0.716088979716    -0.681157850404     1.007825032230

  Running in c1 symmetry.

  Rotational constants: A =      0.03890  B =      0.02069  C =      0.01514 [cm^-1]
  Rotational constants: A =   1166.26688  B =    620.16368  C =    453.87626 [MHz]
  Nuclear repulsion =  661.334001897063217

  Charge       = 0
  Multiplicity = 1
  Electrons    = 88
  Nalpha       = 44
  Nbeta        = 44

  ==> Algorithm <==

  SCF Algorithm Type is PK.
  DIIS enabled.
  MOM disabled.
  Fractional occupation disabled.
  Guess Type is SAD.
  Energy threshold   = 1.00e-06
  Density threshold  = 1.00e-10
  Integral threshold = 0.00e+00

  ==> Primary Basis <==

  Basis Set: CC-PVDZ
    Blend: CC-PVDZ
    Number of shells: 111
    Number of basis function: 233
    Number of Cartesian functions: 245
    Spherical Harmonics?: true
    Max angular momentum: 2

  ==> Pre-Iterations <==

   -------------------------------------------------------
    Irrep   Nso     Nmo     Nalpha   Nbeta   Ndocc  Nsocc
   -------------------------------------------------------
     A        233     233       0       0       0       0
   -------------------------------------------------------
    Total     233     233      44      44      44       0
   -------------------------------------------------------

  ==> Integral Setup <==

  Using integral reordering PK algorithm.
  Sizing the integral batches needed.
  Building batch lookup table.
   Calculation information:
      Number of atoms:                  25
      Number of AO shells:             111
      Number of primitives:            329
      Number of atomic orbitals:       245
      Number of basis functions:       233

      Integral cutoff                 1.00e-12
      Number of threads:                 1

	Batch   1 pq = [       0,    9405] index = [             0,44231715] size =     44231715
	Batch   2 pq = [    9405,   13301] index = [      44231715,88464951] size =     44233236
	Batch   3 pq = [   13301,   16290] index = [      88464951,132690195] size =     44225244
	Batch   4 pq = [   16290,   18810] index = [     132690195,176917455] size =     44227260
	Batch   5 pq = [   18810,   21030] index = [     176917455,221140965] size =     44223510
	Batch   6 pq = [   21030,   23037] index = [     221140965,265363203] size =     44222238
	Batch   7 pq = [   23037,   24883] index = [     265363203,309594286] size =     44231083
	Batch   8 pq = [   24883,   26601] index = [     309594286,353819901] size =     44225615
	Batch   9 pq = [   26601,   27261] index = [     353819901,371594691] size =     17774790
  Task number: 34
  Buffer size: 11059200
  Buffer per thread: 2
  We computed 18214993 shell quartets total.
  Whereas there are 19322436 unique shell quartets.

  ==> DiskJK: Disk-Based J/K Matrices <==

    J tasked:                  Yes
    K tasked:                  Yes
    wK tasked:                  No
    Memory [MiB]:              375
    Schwarz Cutoff:          1E-12

    OpenMP threads:              1

  Minimum eigenvalue in the overlap matrix is 2.4883932294E-04.
  Using Symmetric Orthogonalization.

  SCF Guess: Superposition of Atomic Densities via on-the-fly atomic UHF.

  ==> Iterations <==

                        Total Energy        Delta E     RMS |[F,P]|

   @RHF iter SAD:  -514.68360455404684   -5.14684e+02   0.00000e+00
   @RHF iter   1:  -515.33137596100210   -6.47771e-01   2.70261e-03 DIIS
   @RHF iter   2:  -515.54403962572144   -2.12664e-01   1.27180e-03 DIIS
   @RHF iter   3:  -515.58485747909617   -4.08179e-02   3.16584e-04 DIIS
   @RHF iter   4:  -515.58848262696699   -3.62515e-03   1.26846e-04 DIIS
   @RHF iter   5:  -515.58897895650443   -4.96330e-04   2.44331e-05 DIIS
   @RHF iter   6:  -515.58901058428933   -3.16278e-05   1.15003e-05 DIIS
   @RHF iter   7:  -515.58901839617545   -7.81189e-06   4.14010e-06 DIIS
   @RHF iter   8:  -515.58902043417038   -2.03799e-06   1.64505e-06 DIIS
   @RHF iter   9:  -515.58902081120493   -3.77035e-07   7.65307e-07 DIIS
   @RHF iter  10:  -515.58902088341665   -7.22117e-08   3.56951e-07 DIIS
   @RHF iter  11:  -515.58902090491711   -2.15005e-08   1.17908e-07 DIIS
   @RHF iter  12:  -515.58902090712229   -2.20518e-09   4.13181e-08 DIIS
   @RHF iter  13:  -515.58902090726838   -1.46088e-10   1.46414e-08 DIIS
   @RHF iter  14:  -515.58902090728748   -1.90994e-11   4.99143e-09 DIIS
   @RHF iter  15:  -515.58902090728952   -2.04636e-12   2.23735e-09 DIIS
   @RHF iter  16:  -515.58902090729271   -3.18323e-12   1.04629e-09 DIIS
   @RHF iter  17:  -515.58902090729111    1.59162e-12   5.44650e-10 DIIS
   @RHF iter  18:  -515.58902090729089    2.27374e-13   1.92894e-10 DIIS
   @RHF iter  19:  -515.58902090729168   -7.95808e-13   7.37028e-11 DIIS
  Energy and wave function converged.

  ==> Post-Iterations <==

    Orbital Energies [Eh]
    ---------------------

    Doubly Occupied:

       1A    -20.559907     2A    -15.596460     3A    -11.278349
       4A    -11.264975     5A    -11.264048     6A    -11.231920
       7A    -11.230652     8A    -11.229490     9A    -11.229377
      10A    -11.221753    11A    -11.221211    12A    -11.219815
      13A     -1.358624    14A     -1.290243    15A     -1.123957
      16A     -1.071188    17A     -0.994542    18A     -0.985784
      19A     -0.930612    20A     -0.924031    21A     -0.837974
      22A     -0.801337    23A     -0.750860    24A     -0.716281
      25A     -0.688787    26A     -0.662441    27A     -0.640626
      28A     -0.623570    29A     -0.600710    30A     -0.595610
      31A     -0.588485    32A     -0.587464    33A     -0.567862
      34A     -0.550950    35A     -0.536520    36A     -0.529338
      37A     -0.501546    38A     -0.495181    39A     -0.470537
      40A     -0.458920    41A     -0.447967    42A     -0.370868
      43A     -0.292874    44A     -0.275557

    Virtual:

      45A      0.124017    46A      0.167153    47A      0.169109
      48A      0.188838    49A      0.198027    50A      0.207426
      51A      0.221191    52A      0.229497    53A      0.235940
      54A      0.248939    55A      0.264006    56A      0.270626
      57A      0.274887    58A      0.279938    59A      0.285607
      60A      0.297540    61A      0.363745    62A      0.379404
      63A      0.388157    64A      0.408090    65A      0.423002
      66A      0.443745    67A      0.471423    68A      0.486623
      69A      0.500539    70A      0.515674    71A      0.598764
      72A      0.615273    73A      0.615819    74A      0.625827
      75A      0.633480    76A      0.655826    77A      0.668197
      78A      0.695018    79A      0.705312    80A      0.719357
      81A      0.720802    82A      0.730461    83A      0.734977
      84A      0.743245    85A      0.743883    86A      0.752774
      87A      0.765849    88A      0.777169    89A      0.788212
      90A      0.793404    91A      0.803429    92A      0.814131
      93A      0.841455    94A      0.847342    95A      0.868229
      96A      0.877605    97A      0.881356    98A      0.886311
      99A      0.893453   100A      0.898353   101A      0.908157
     102A      0.910064   103A      0.927833   104A      0.948098
     105A      0.953475   106A      0.958403   107A      0.980951
     108A      0.986548   109A      1.011377   110A      1.052037
     111A      1.063695   112A      1.087122   113A      1.116705
     114A      1.119572   115A      1.131142   116A      1.136085
     117A      1.155229   118A      1.166032   119A      1.188152
     120A      1.198807   121A      1.208000   122A      1.223474
     123A      1.227552   124A      1.232574   125A      1.246682
     126A      1.266760   127A      1.285911   128A      1.298321
     129A      1.313823   130A      1.326054   131A      1.330263
     132A      1.356583   133A      1.366273   134A      1.390497
     135A      1.404006   136A      1.441467   137A      1.451754
     138A      1.528064   139A      1.567581   140A      1.579083
     141A      1.580706   142A      1.618394   143A      1.632065
     144A      1.653741   145A      1.661470   146A      1.672468
     147A      1.678675   148A      1.683710   149A      1.694054
     150A      1.743254   151A      1.759743   152A      1.776419
     153A      1.791014   154A      1.809676   155A      1.826988
     156A      1.832848   157A      1.858431   158A      1.877921
     159A      1.889355   160A      1.896634   161A      1.907199
     162A      1.913019   163A      1.916843   164A      1.924134
     165A      1.927602   166A      1.943843   167A      1.969542
     168A      1.971502   169A      1.975011   170A      2.000644
     171A      2.007045   172A      2.026119   173A      2.033701
     174A      2.039613   175A      2.072866   176A      2.092143
     177A      2.097445   178A      2.098604   179A      2.104165
     180A      2.120839   181A      2.135593   182A      2.147036
     183A      2.150567   184A      2.166587   185A      2.178931
     186A      2.222571   187A      2.230022   188A      2.279619
     189A      2.295831   190A      2.301495   191A      2.315911
     192A      2.329073   193A      2.345847   194A      2.362089
     195A      2.379632   196A      2.399692   197A      2.428799
     198A      2.448071   199A      2.467078   200A      2.507996
     201A      2.538581   202A      2.585472   203A      2.600835
     204A      2.644537   205A      2.651841   206A      2.672242
     207A      2.693665   208A      2.745922   209A      2.759717
     210A      2.768474   211A      2.775650   212A      2.784089
     213A      2.793521   214A      2.801927   215A      2.820235
     216A      2.861919   217A      2.878416   218A      2.906171
     219A      2.965048   220A      3.030086   221A      3.050854
     222A      3.070815   223A      3.116452   224A      3.196644
     225A      3.292366   226A      3.306527   227A      3.372592
     228A      3.384355   229A      3.431794   230A      3.586774
     231A      3.740056   232A      3.934385   233A      4.087802

    Final Occupation by Irrep:
              A
    DOCC [    44 ]

  @RHF Final Energy:  -515.58902090729168

   => Energetics <=

    Nuclear Repulsion Energy =            661.3340018970632173
    One-Electron Energy =               -2012.2076349895198746
    Two-Electron Energy =                 835.2846121851649741
    Total Energy =                       -515.5890209072916832

Computation Completed

Properties will be evaluated at   0.000000,   0.000000,   0.000000 [a0]

Properties computed using the SCF density matrix

  Nuclear Dipole Moment: [e a0]
     X:    -4.0858      Y:     3.1769      Z:    -5.0152

  Electronic Dipole Moment: [e a0]
     X:     3.7201      Y:    -3.0155      Z:     4.4027

  Dipole Moment: [e a0]
     X:    -0.3657      Y:     0.1614      Z:    -0.6125     Total:     0.7314

  Dipole Moment: [D]
     X:    -0.9295      Y:     0.4103      Z:    -1.5569     Total:     1.8591

*** tstop() called on ds3 at Tue Apr 28 11:47:14 2020
Module time:
	user time   =     151.13 seconds =       2.52 minutes
	system time =      62.68 seconds =       1.04 minutes
	total time  =        206 seconds =       3.43 minutes
Total time:
	user time   =     151.13 seconds =       2.52 minutes
	system time =      62.68 seconds =       1.04 minutes
	total time  =        206 seconds =       3.43 minutes
                                     G D M A

                                 by Anthony Stone

                           version 2.2.06, 22 June 2011

               Distributed Multipoles from Gaussian wavefunctions

Starting at 11:47:14 on 28 Apr 2020

Using SCF density matrix from file ./SSI/SSI-058TRP-084SER-1-dimer.test.23517.fchk

                         Distributed Multipole Analysis

Standard DMA

Positions and radii in angstrom
Multipole moments in atomic units, ea_0^k for rank k

C          x =  1.963355  y =  1.533661  z = -2.009218 angstrom
           Maximum rank =  0   Radius =  0.650 angstrom
                   Q00  =  -0.200382

C          x =  0.356355  y = -0.428339  z = -1.611218 angstrom
           Maximum rank =  0   Radius =  0.650 angstrom
                   Q00  =   0.060164

C          x =  0.223355  y = -0.523339  z =  0.629782 angstrom
           Maximum rank =  0   Radius =  0.650 angstrom
                   Q00  =   0.304825

C          x =  1.135355  y =  0.598661  z = -1.171218 angstrom
           Maximum rank =  0   Radius =  0.650 angstrom
                   Q00  =  -0.124253

C          x =  1.066355  y =  0.564661  z =  0.268782 angstrom
           Maximum rank =  0   Radius =  0.650 angstrom
                   Q00  =  -0.066516

C          x = -0.058645  y = -0.845339  z =  1.956782 angstrom
           Maximum rank =  0   Radius =  0.650 angstrom
                   Q00  =  -0.118311

C          x =  0.517355  y = -0.064339  z =  2.949782 angstrom
           Maximum rank =  0   Radius =  0.650 angstrom
                   Q00  =  -0.077508

C          x =  1.634355  y =  1.342661  z =  1.293782 angstrom
           Maximum rank =  0   Radius =  0.650 angstrom
                   Q00  =  -0.094045

C          x =  1.353355  y =  1.020661  z =  2.626782 angstrom
           Maximum rank =  0   Radius =  0.650 angstrom
                   Q00  =  -0.083103

N          x = -0.190645  y = -1.104339  z = -0.542218 angstrom
           Maximum rank =  0   Radius =  0.650 angstrom
                   Q00  =  -0.504921

H          x = -0.803645  y = -1.909339  z = -0.632218 angstrom
           Maximum rank =  0   Radius =  0.325 angstrom
                   Q00  =   0.233723

H          x =  0.221355  y = -0.696339  z = -2.655218 angstrom
           Maximum rank =  0   Radius =  0.325 angstrom
                   Q00  =   0.093630

H          x = -0.693645  y = -1.681339  z =  2.204782 angstrom
           Maximum rank =  0   Radius =  0.325 angstrom
                   Q00  =   0.074941

H          x =  1.603355  y =  2.549661  z = -1.843218 angstrom
           Maximum rank =  0   Radius =  0.325 angstrom
                   Q00  =   0.095835

H          x =  1.828355  y =  1.292661  z = -3.063218 angstrom
           Maximum rank =  0   Radius =  0.325 angstrom
                   Q00  =   0.102881

H          x =  0.331355  y = -0.292339  z =  3.990782 angstrom
           Maximum rank =  0   Radius =  0.325 angstrom
                   Q00  =   0.065848

H          x =  2.245355  y =  2.198661  z =  1.055782 angstrom
           Maximum rank =  0   Radius =  0.325 angstrom
                   Q00  =   0.070350

H          x =  1.776355  y =  1.625661  z =  3.414782 angstrom
           Maximum rank =  0   Radius =  0.325 angstrom
                   Q00  =   0.061145

H          x =  3.031305  y =  1.491371  z = -1.749038 angstrom
           Maximum rank =  0   Radius =  0.325 angstrom
                   Q00  =   0.100164

C          x = -3.649645  y = -0.323339  z = -1.301218 angstrom
           Maximum rank =  0   Radius =  0.650 angstrom
                   Q00  =  -0.052906

O          x = -2.966645  y = -1.404339  z = -1.914218 angstrom
           Maximum rank =  0   Radius =  0.650 angstrom
                   Q00  =  -0.600912

H          x = -2.393645  y = -1.045339  z = -2.607218 angstrom
           Maximum rank =  0   Radius =  0.325 angstrom
                   Q00  =   0.390179

H          x = -4.065645  y =  0.315661  z = -2.081218 angstrom
           Maximum rank =  0   Radius =  0.325 angstrom
                   Q00  =   0.071671

H          x = -2.955645  y =  0.259661  z = -0.695218 angstrom
           Maximum rank =  0   Radius =  0.325 angstrom
                   Q00  =   0.082617

H          x = -4.468955  y = -0.716089  z = -0.681158 angstrom
           Maximum rank =  0   Radius =  0.325 angstrom
                   Q00  =   0.114884

Total multipoles referred to origin at
           x =   0.000000,  y =    0.000000,  z =    0.000000 angstrom
                   Q00  =  -0.000000

Finished at 11:47:14 on 28 Apr 2020

  DMA results are available in the Python driver through the
	  variable('DMA DISTRIBUTED MULTIPOLES')
  and
	  variable('DMA TOTAL MULTIPOLES')
  commands.

    Psi4 stopped on: Tuesday, 28 April 2020 11:47AM
    Psi4 wall time for execution: 0:03:26.07

*** Psi4 exiting successfully. Buy a developer a beer!
