                               Psi4 1.3.2 release

  ==> Input File <==

--------------------------------------------------------------------------
import numpy as np
set {scf_type pk
basis cc-pvdz
d_convergence 10
gdma_switch   0
gdma_limit    0
gdma_origin   [ 0.0,  0.0,  0.0 ]
}
molecule test {
    units Angstrom
    -1 1
    --
    -1 1
    C               -0.862105175709507    -2.078503343446431    -0.017673437496287
    C                0.458894824290493    -2.285503343446431    -0.773673437496287
    C               -0.668105175709507    -2.319503343446431     1.466326562503713
    O               -1.360105175709507    -0.764503343446431    -0.229673437496287
    H               -1.607105175709507    -2.785503343446431    -0.390673437496287
    H                1.233894824290493    -1.691503343446431    -0.291673437496287
    H                0.136894824290493    -1.689503343446431     1.846326562503713
    H               -1.590105175709507    -2.080503343446431     1.998326562503713
    H               -0.431105175709507    -3.367503343446431     1.649326562503713
    H               -0.670105175709507    -0.136503343446431     0.113326562503713
    H                0.345257824290493    -1.988530843446431    -1.826713737496287
    H                0.732885824290493    -3.350380343446431    -0.742587437496287
    C                1.688894824290493     2.757496656553569     0.238326562503713
    C                0.554894824290493     1.804496656553569    -0.135673437496287
    O                0.268894824290493     0.877496656553569     0.655326562503713
    O               -0.043105175709507     1.986496656553569    -1.219673437496287
    H                1.258894824290493     3.659496656553569     0.676326562503713
    H                2.243894824290493     3.049496656553569    -0.655673437496287
    H                2.388659824290493     2.321044656553569     0.966226562503713

}
e, wfn = energy('scf', return_wfn=True)
gdma(wfn)
dmavals = variable('DMA DISTRIBUTED MULTIPOLES')
charges = np.array(dmavals)
print(charges)
np.save('SSI-061THR-083GLU-1-dimer.npy', np.array(charges))--------------------------------------------------------------------------

*** tstart() called on ds3
*** at Tue Apr 28 20:37:18 2020

   => Loading Basis Set <=

    Name: CC-PVDZ
    Role: ORBITAL
    Keyword: BASIS
    atoms 1-3, 13-14  entry C          line   138 file /theoryfs2/ds/metcalf/miniconda2/envs/tf2gpu/share/psi4/basis/cc-pvdz.gbs
    atoms 4, 15-16    entry O          line   198 file /theoryfs2/ds/metcalf/miniconda2/envs/tf2gpu/share/psi4/basis/cc-pvdz.gbs
    atoms 5-12, 17-19 entry H          line    22 file /theoryfs2/ds/metcalf/miniconda2/envs/tf2gpu/share/psi4/basis/cc-pvdz.gbs

         ---------------------------------------------------------
                                   SCF
               by Justin Turney, Rob Parrish, Andy Simmonett
                          and Daniel G. A. Smith
                              RHF Reference
                        1 Threads,    500 MiB Core
         ---------------------------------------------------------

  ==> Geometry <==

    Molecular point group: c1
    Full point group: C1

    Geometry (in Angstrom), charge = -1, multiplicity = 1:

       Center              X                  Y                   Z               Mass
    ------------   -----------------  -----------------  -----------------  -----------------
         C           -0.862105175710    -2.078503343446    -0.017673437496    12.000000000000
         C            0.458894824290    -2.285503343446    -0.773673437496    12.000000000000
         C           -0.668105175710    -2.319503343446     1.466326562504    12.000000000000
         O           -1.360105175710    -0.764503343446    -0.229673437496    15.994914619570
         H           -1.607105175710    -2.785503343446    -0.390673437496     1.007825032230
         H            1.233894824290    -1.691503343446    -0.291673437496     1.007825032230
         H            0.136894824290    -1.689503343446     1.846326562504     1.007825032230
         H           -1.590105175710    -2.080503343446     1.998326562504     1.007825032230
         H           -0.431105175710    -3.367503343446     1.649326562504     1.007825032230
         H           -0.670105175710    -0.136503343446     0.113326562504     1.007825032230
         H            0.345257824290    -1.988530843446    -1.826713737496     1.007825032230
         H            0.732885824290    -3.350380343446    -0.742587437496     1.007825032230
         C            1.688894824290     2.757496656554     0.238326562504    12.000000000000
         C            0.554894824290     1.804496656554    -0.135673437496    12.000000000000
         O            0.268894824290     0.877496656554     0.655326562504    15.994914619570
         O           -0.043105175710     1.986496656554    -1.219673437496    15.994914619570
         H            1.258894824290     3.659496656554     0.676326562504     1.007825032230
         H            2.243894824290     3.049496656554    -0.655673437496     1.007825032230
         H            2.388659824290     2.321044656554     0.966226562504     1.007825032230

  Running in c1 symmetry.

  Rotational constants: A =      0.12207  B =      0.02935  C =      0.02824 [cm^-1]
  Rotational constants: A =   3659.64239  B =    880.01410  C =    846.47806 [MHz]
  Nuclear repulsion =  387.406844907124253

  Charge       = -1
  Multiplicity = 1
  Electrons    = 66
  Nalpha       = 33
  Nbeta        = 33

  ==> Algorithm <==

  SCF Algorithm Type is PK.
  DIIS enabled.
  MOM disabled.
  Fractional occupation disabled.
  Guess Type is SAD.
  Energy threshold   = 1.00e-06
  Density threshold  = 1.00e-10
  Integral threshold = 0.00e+00

  ==> Primary Basis <==

  Basis Set: CC-PVDZ
    Blend: CC-PVDZ
    Number of shells: 81
    Number of basis function: 167
    Number of Cartesian functions: 175
    Spherical Harmonics?: true
    Max angular momentum: 2

  ==> Pre-Iterations <==

   -------------------------------------------------------
    Irrep   Nso     Nmo     Nalpha   Nbeta   Ndocc  Nsocc
   -------------------------------------------------------
     A        167     167       0       0       0       0
   -------------------------------------------------------
    Total     167     167      33      33      33       0
   -------------------------------------------------------

  ==> Integral Setup <==

  Using integral reordering PK algorithm.
  Sizing the integral batches needed.
  Building batch lookup table.
   Calculation information:
      Number of atoms:                  19
      Number of AO shells:              81
      Number of primitives:            231
      Number of atomic orbitals:       175
      Number of basis functions:       167

      Integral cutoff                 1.00e-12
      Number of threads:                 1

	Batch   1 pq = [       0,    9405] index = [             0,44231715] size =     44231715
	Batch   2 pq = [    9405,   13301] index = [      44231715,88464951] size =     44233236
	Batch   3 pq = [   13301,   14028] index = [      88464951,98399406] size =      9934455
  Task number: 9
  Buffer size: 11059200
  Buffer per thread: 2
  We computed 4772727 shell quartets total.
  Whereas there are 5516181 unique shell quartets.

  ==> DiskJK: Disk-Based J/K Matrices <==

    J tasked:                  Yes
    K tasked:                  Yes
    wK tasked:                  No
    Memory [MiB]:              375
    Schwarz Cutoff:          1E-12

    OpenMP threads:              1

  Minimum eigenvalue in the overlap matrix is 4.4090592615E-03.
  Using Symmetric Orthogonalization.

  SCF Guess: Superposition of Atomic Densities via on-the-fly atomic UHF.

  ==> Iterations <==

                        Total Energy        Delta E     RMS |[F,P]|

   @RHF iter SAD:  -418.76470444253215   -4.18765e+02   0.00000e+00
   @RHF iter   1:  -420.08071485491490   -1.31601e+00   4.71617e-03 DIIS
   @RHF iter   2:  -420.32373363429963   -2.43019e-01   2.59287e-03 DIIS
   @RHF iter   3:  -420.39228576606109   -6.85521e-02   4.23831e-04 DIIS
   @RHF iter   4:  -420.39553463910352   -3.24887e-03   1.67802e-04 DIIS
   @RHF iter   5:  -420.39602782871827   -4.93190e-04   3.55330e-05 DIIS
   @RHF iter   6:  -420.39604878622680   -2.09575e-05   1.46789e-05 DIIS
   @RHF iter   7:  -420.39605226981797   -3.48359e-06   3.10340e-06 DIIS
   @RHF iter   8:  -420.39605258594275   -3.16125e-07   1.29444e-06 DIIS
   @RHF iter   9:  -420.39605263606364   -5.01209e-08   5.23957e-07 DIIS
   @RHF iter  10:  -420.39605264614863   -1.00850e-08   1.80395e-07 DIIS
   @RHF iter  11:  -420.39605264744074   -1.29211e-09   7.11790e-08 DIIS
   @RHF iter  12:  -420.39605264759325   -1.52511e-10   2.27300e-08 DIIS
   @RHF iter  13:  -420.39605264761730   -2.40448e-11   5.68587e-09 DIIS
   @RHF iter  14:  -420.39605264761821   -9.09495e-13   1.64633e-09 DIIS
   @RHF iter  15:  -420.39605264761684    1.36424e-12   4.46685e-10 DIIS
   @RHF iter  16:  -420.39605264761803   -1.19371e-12   1.43727e-10 DIIS
   @RHF iter  17:  -420.39605264761474    3.29692e-12   5.85548e-11 DIIS
  Energy and wave function converged.

  ==> Post-Iterations <==

    Orbital Energies [Eh]
    ---------------------

    Doubly Occupied:

       1A    -20.330052     2A    -20.302318     3A    -20.286621
       4A    -11.149583     5A    -11.119047     6A    -11.077491
       7A    -11.076131     8A    -11.072278     9A     -1.191407
      10A     -1.146368    11A     -1.072280    12A     -0.886397
      13A     -0.818303    14A     -0.791622    15A     -0.648013
      16A     -0.544632    17A     -0.493628    18A     -0.472212
      19A     -0.442571    20A     -0.435483    21A     -0.435106
      22A     -0.432443    23A     -0.407868    24A     -0.399072
      25A     -0.370485    26A     -0.353144    27A     -0.348554
      28A     -0.337340    29A     -0.295007    30A     -0.241361
      31A     -0.213857    32A     -0.202833    33A     -0.197324

    Virtual:

      34A      0.313746    35A      0.336728    36A      0.368447
      37A      0.369570    38A      0.376060    39A      0.379416
      40A      0.397799    41A      0.409679    42A      0.413647
      43A      0.443342    44A      0.459362    45A      0.498319
      46A      0.544414    47A      0.549211    48A      0.568612
      49A      0.610969    50A      0.679545    51A      0.711272
      52A      0.735570    53A      0.757699    54A      0.798671
      55A      0.822030    56A      0.828745    57A      0.860433
      58A      0.879445    59A      0.919988    60A      0.924539
      61A      0.947693    62A      0.948734    63A      0.978643
      64A      1.006365    65A      1.010577    66A      1.012376
      67A      1.016165    68A      1.033536    69A      1.035776
      70A      1.044256    71A      1.046704    72A      1.065284
      73A      1.081270    74A      1.095034    75A      1.105199
      76A      1.128245    77A      1.140919    78A      1.200031
      79A      1.275692    80A      1.285867    81A      1.319185
      82A      1.323390    83A      1.340656    84A      1.406209
      85A      1.466566    86A      1.514889    87A      1.528353
      88A      1.552490    89A      1.556348    90A      1.589570
      91A      1.625055    92A      1.646816    93A      1.662183
      94A      1.673382    95A      1.706099    96A      1.720906
      97A      1.728316    98A      1.789570    99A      1.812759
     100A      1.819347   101A      1.823438   102A      1.826914
     103A      1.855906   104A      1.882962   105A      1.908078
     106A      2.009423   107A      2.012004   108A      2.023937
     109A      2.049518   110A      2.050132   111A      2.063268
     112A      2.071844   113A      2.080368   114A      2.108859
     115A      2.117527   116A      2.123191   117A      2.130225
     118A      2.158070   119A      2.167338   120A      2.197068
     121A      2.232262   122A      2.240374   123A      2.267080
     124A      2.331080   125A      2.340112   126A      2.347706
     127A      2.381286   128A      2.413843   129A      2.427941
     130A      2.442627   131A      2.484182   132A      2.506555
     133A      2.519526   134A      2.608553   135A      2.652451
     136A      2.655364   137A      2.683278   138A      2.701517
     139A      2.709484   140A      2.741087   141A      2.807064
     142A      2.888673   143A      2.891220   144A      2.902767
     145A      2.928810   146A      2.954452   147A      2.960474
     148A      2.964606   149A      2.992514   150A      3.027762
     151A      3.035732   152A      3.138362   153A      3.216482
     154A      3.263594   155A      3.286915   156A      3.532261
     157A      3.574991   158A      3.598728   159A      3.625645
     160A      3.691051   161A      3.781652   162A      3.841710
     163A      3.884706   164A      4.042908   165A      4.058301
     166A      4.180635   167A      4.505789

    Final Occupation by Irrep:
              A
    DOCC [    33 ]

  @RHF Final Energy:  -420.39605264761474

   => Energetics <=

    Nuclear Repulsion Energy =            387.4068449071242526
    One-Electron Energy =               -1356.4241293773866346
    Two-Electron Energy =                 548.6212318226477009
    Total Energy =                       -420.3960526476147379

Computation Completed

Properties will be evaluated at   0.000000,   0.000000,   0.000000 [a0]

Properties computed using the SCF density matrix

  Nuclear Dipole Moment: [e a0]
     X:     3.7838      Y:    -7.5458      Z:     3.1297

  Electronic Dipole Moment: [e a0]
     X:    -2.8713      Y:     6.1868      Z:    -2.3181

  Dipole Moment: [e a0]
     X:     0.9125      Y:    -1.3590      Z:     0.8116     Total:     1.8270

  Dipole Moment: [D]
     X:     2.3192      Y:    -3.4541      Z:     2.0629     Total:     4.6439

*** tstop() called on ds3 at Tue Apr 28 20:38:10 2020
Module time:
	user time   =      37.73 seconds =       0.63 minutes
	system time =      16.18 seconds =       0.27 minutes
	total time  =         52 seconds =       0.87 minutes
Total time:
	user time   =      37.73 seconds =       0.63 minutes
	system time =      16.18 seconds =       0.27 minutes
	total time  =         52 seconds =       0.87 minutes
                                     G D M A

                                 by Anthony Stone

                           version 2.2.06, 22 June 2011

               Distributed Multipoles from Gaussian wavefunctions

Starting at 20:38:11 on 28 Apr 2020

Using SCF density matrix from file ./SSI/SSI-061THR-083GLU-1-dimer.test.18508.fchk

                         Distributed Multipole Analysis

Standard DMA

Positions and radii in angstrom
Multipole moments in atomic units, ea_0^k for rank k

C          x = -0.862105  y = -2.078503  z = -0.017673 angstrom
           Maximum rank =  0   Radius =  0.650 angstrom
                   Q00  =   0.209172

C          x =  0.458895  y = -2.285503  z = -0.773673 angstrom
           Maximum rank =  0   Radius =  0.650 angstrom
                   Q00  =  -0.237631

C          x = -0.668105  y = -2.319503  z =  1.466327 angstrom
           Maximum rank =  0   Radius =  0.650 angstrom
                   Q00  =  -0.251399

O          x = -1.360105  y = -0.764503  z = -0.229673 angstrom
           Maximum rank =  0   Radius =  0.650 angstrom
                   Q00  =  -0.701937

H          x = -1.607105  y = -2.785503  z = -0.390673 angstrom
           Maximum rank =  0   Radius =  0.325 angstrom
                   Q00  =  -0.021598

H          x =  1.233895  y = -1.691503  z = -0.291673 angstrom
           Maximum rank =  0   Radius =  0.325 angstrom
                   Q00  =   0.092084

H          x =  0.136895  y = -1.689503  z =  1.846327 angstrom
           Maximum rank =  0   Radius =  0.325 angstrom
                   Q00  =   0.098082

H          x = -1.590105  y = -2.080503  z =  1.998327 angstrom
           Maximum rank =  0   Radius =  0.325 angstrom
                   Q00  =   0.071888

H          x = -0.431105  y = -3.367503  z =  1.649327 angstrom
           Maximum rank =  0   Radius =  0.325 angstrom
                   Q00  =   0.023482

H          x = -0.670105  y = -0.136503  z =  0.113327 angstrom
           Maximum rank =  0   Radius =  0.325 angstrom
                   Q00  =   0.558868

H          x =  0.345258  y = -1.988531  z = -1.826714 angstrom
           Maximum rank =  0   Radius =  0.325 angstrom
                   Q00  =   0.086214

H          x =  0.732886  y = -3.350380  z = -0.742587 angstrom
           Maximum rank =  0   Radius =  0.325 angstrom
                   Q00  =   0.019958

C          x =  1.688895  y =  2.757497  z =  0.238327 angstrom
           Maximum rank =  0   Radius =  0.650 angstrom
                   Q00  =  -0.256520

C          x =  0.554895  y =  1.804497  z = -0.135673 angstrom
           Maximum rank =  0   Radius =  0.650 angstrom
                   Q00  =   0.882912

O          x =  0.268895  y =  0.877497  z =  0.655327 angstrom
           Maximum rank =  0   Radius =  0.650 angstrom
                   Q00  =  -0.912803

O          x = -0.043105  y =  1.986497  z = -1.219673 angstrom
           Maximum rank =  0   Radius =  0.650 angstrom
                   Q00  =  -0.875333

H          x =  1.258895  y =  3.659497  z =  0.676327 angstrom
           Maximum rank =  0   Radius =  0.325 angstrom
                   Q00  =   0.087633

H          x =  2.243895  y =  3.049497  z = -0.655673 angstrom
           Maximum rank =  0   Radius =  0.325 angstrom
                   Q00  =   0.069183

H          x =  2.388660  y =  2.321045  z =  0.966227 angstrom
           Maximum rank =  0   Radius =  0.325 angstrom
                   Q00  =   0.057744

Total multipoles referred to origin at
           x =   0.000000,  y =    0.000000,  z =    0.000000 angstrom
                   Q00  =  -1.000000

Finished at 20:38:11 on 28 Apr 2020

  DMA results are available in the Python driver through the
	  variable('DMA DISTRIBUTED MULTIPOLES')
  and
	  variable('DMA TOTAL MULTIPOLES')
  commands.

    Psi4 stopped on: Tuesday, 28 April 2020 08:38PM
    Psi4 wall time for execution: 0:00:52.49

*** Psi4 exiting successfully. Buy a developer a beer!
