                               Psi4 1.3.2 release

  ==> Input File <==

--------------------------------------------------------------------------
import numpy as np
set {scf_type pk
basis cc-pvdz
d_convergence 10
gdma_switch   0
gdma_limit    0
gdma_origin   [ 0.0,  0.0,  0.0 ]
}
molecule test {
    units Angstrom
    0 1
    --
    0 1
    C               -1.107678670755380    -1.766622999726595    -0.361390302420614
    C               -0.104678670755380    -2.842622999726595     0.114609697579386
    H               -2.014678670755381    -2.245622999726595    -0.734390302420614
    H               -1.375678670755381    -1.113622999726595     0.471609697579386
    H               -0.662678670755380    -1.169622999726595    -1.157390302420614
    H               -0.615678670755380    -3.401622999726595     0.895609697579386
    H                0.184821329244620    -3.524512999726594    -0.698540302420614
    H                0.803751329244620    -2.389132999726595     0.537819697579386
    C                0.445321329244620     1.551377000273405     0.116609697579386
    C                0.768321329244620     3.062377000273405     0.124609697579386
    H               -0.514678670755380     1.385377000273405    -0.372390302420614
    H                1.222321329244620     1.011377000273405    -0.424390302420614
    H                0.397321329244620     1.171377000273405     1.139609697579386
    H                1.723321329244620     3.210377000273405     0.626609697579386
    H               -0.025538670755380     3.575177000273405     0.687519697579386
    H                0.862091329244620     3.436777000273405    -0.905460302420614

}
e, wfn = energy('scf', return_wfn=True)
gdma(wfn)
dmavals = variable('DMA DISTRIBUTED MULTIPOLES')
charges = np.array(dmavals)
print(charges)
np.save('SSI-063LEU-108LEU-1-dimer.npy', np.array(charges))--------------------------------------------------------------------------

*** tstart() called on ds3
*** at Sun Apr 26 20:59:37 2020

   => Loading Basis Set <=

    Name: CC-PVDZ
    Role: ORBITAL
    Keyword: BASIS
    atoms 1-2, 9-10  entry C          line   138 file /theoryfs2/ds/metcalf/miniconda2/envs/tf2gpu/share/psi4/basis/cc-pvdz.gbs
    atoms 3-8, 11-16 entry H          line    22 file /theoryfs2/ds/metcalf/miniconda2/envs/tf2gpu/share/psi4/basis/cc-pvdz.gbs

         ---------------------------------------------------------
                                   SCF
               by Justin Turney, Rob Parrish, Andy Simmonett
                          and Daniel G. A. Smith
                              RHF Reference
                        1 Threads,    500 MiB Core
         ---------------------------------------------------------

  ==> Geometry <==

    Molecular point group: c1
    Full point group: C1

    Geometry (in Angstrom), charge = 0, multiplicity = 1:

       Center              X                  Y                   Z               Mass
    ------------   -----------------  -----------------  -----------------  -----------------
         C           -1.107678670755    -1.766622999727    -0.361390302421    12.000000000000
         C           -0.104678670755    -2.842622999727     0.114609697579    12.000000000000
         H           -2.014678670755    -2.245622999727    -0.734390302421     1.007825032230
         H           -1.375678670755    -1.113622999727     0.471609697579     1.007825032230
         H           -0.662678670755    -1.169622999727    -1.157390302421     1.007825032230
         H           -0.615678670755    -3.401622999727     0.895609697579     1.007825032230
         H            0.184821329245    -3.524512999727    -0.698540302421     1.007825032230
         H            0.803751329245    -2.389132999727     0.537819697579     1.007825032230
         C            0.445321329245     1.551377000273     0.116609697579    12.000000000000
         C            0.768321329245     3.062377000273     0.124609697579    12.000000000000
         H           -0.514678670755     1.385377000273    -0.372390302421     1.007825032230
         H            1.222321329245     1.011377000273    -0.424390302421     1.007825032230
         H            0.397321329245     1.171377000273     1.139609697579     1.007825032230
         H            1.723321329245     3.210377000273     0.626609697579     1.007825032230
         H           -0.025538670755     3.575177000273     0.687519697579     1.007825032230
         H            0.862091329245     3.436777000273    -0.905460302421     1.007825032230

  Running in c1 symmetry.

  Rotational constants: A =      0.62059  B =      0.04449  C =      0.04288 [cm^-1]
  Rotational constants: A =  18604.68602  B =   1333.69111  C =   1285.51214 [MHz]
  Nuclear repulsion =  120.849663212795122

  Charge       = 0
  Multiplicity = 1
  Electrons    = 36
  Nalpha       = 18
  Nbeta        = 18

  ==> Algorithm <==

  SCF Algorithm Type is PK.
  DIIS enabled.
  MOM disabled.
  Fractional occupation disabled.
  Guess Type is SAD.
  Energy threshold   = 1.00e-06
  Density threshold  = 1.00e-10
  Integral threshold = 0.00e+00

  ==> Primary Basis <==

  Basis Set: CC-PVDZ
    Blend: CC-PVDZ
    Number of shells: 60
    Number of basis function: 116
    Number of Cartesian functions: 120
    Spherical Harmonics?: true
    Max angular momentum: 2

  ==> Pre-Iterations <==

   -------------------------------------------------------
    Irrep   Nso     Nmo     Nalpha   Nbeta   Ndocc  Nsocc
   -------------------------------------------------------
     A        116     116       0       0       0       0
   -------------------------------------------------------
    Total     116     116      18      18      18       0
   -------------------------------------------------------

  ==> Integral Setup <==

  Using integral reordering PK algorithm.
  Sizing the integral batches needed.
  Building batch lookup table.
   Calculation information:
      Number of atoms:                  16
      Number of AO shells:              60
      Number of primitives:            148
      Number of atomic orbitals:       120
      Number of basis functions:       116

      Integral cutoff                 1.00e-12
      Number of threads:                 1

	Batch   1 pq = [       0,    6786] index = [             0,23028291] size =     23028291
  Task number: 3
  Buffer size: 11059200
  Buffer per thread: 2
  We computed 1395126 shell quartets total.
  Whereas there are 1675365 unique shell quartets.

  ==> DiskJK: Disk-Based J/K Matrices <==

    J tasked:                  Yes
    K tasked:                  Yes
    wK tasked:                  No
    Memory [MiB]:              375
    Schwarz Cutoff:          1E-12

    OpenMP threads:              1

  Minimum eigenvalue in the overlap matrix is 7.0513965101E-03.
  Using Symmetric Orthogonalization.

  SCF Guess: Superposition of Atomic Densities via on-the-fly atomic UHF.

  ==> Iterations <==

                        Total Energy        Delta E     RMS |[F,P]|

   @RHF iter SAD:  -157.28897621304543   -1.57289e+02   0.00000e+00
   @RHF iter   1:  -158.31024203440424   -1.02127e+00   4.16269e-03 DIIS
   @RHF iter   2:  -158.44151376510277   -1.31272e-01   1.76197e-03 DIIS
   @RHF iter   3:  -158.46413894646810   -2.26252e-02   3.46781e-04 DIIS
   @RHF iter   4:  -158.46594356251168   -1.80462e-03   3.84800e-05 DIIS
   @RHF iter   5:  -158.46596692911507   -2.33666e-05   6.45650e-06 DIIS
   @RHF iter   6:  -158.46596755880168   -6.29687e-07   9.52815e-07 DIIS
   @RHF iter   7:  -158.46596756862715   -9.82547e-09   2.99043e-07 DIIS
   @RHF iter   8:  -158.46596756940019   -7.73042e-10   4.08368e-08 DIIS
   @RHF iter   9:  -158.46596756942563   -2.54374e-11   7.89331e-09 DIIS
   @RHF iter  10:  -158.46596756942546    1.70530e-13   1.80354e-09 DIIS
   @RHF iter  11:  -158.46596756942677   -1.30740e-12   4.18042e-10 DIIS
   @RHF iter  12:  -158.46596756942671    5.68434e-14   1.38243e-10 DIIS
   @RHF iter  13:  -158.46596756942660    1.13687e-13   2.01758e-11 DIIS
  Energy and wave function converged.

  ==> Post-Iterations <==

    Orbital Energies [Eh]
    ---------------------

    Doubly Occupied:

       1A    -11.220368     2A    -11.219548     3A    -11.217659
       4A    -11.217264     5A     -1.015144     6A     -1.012423
       7A     -0.839154     8A     -0.834126     9A     -0.599715
      10A     -0.597458    11A     -0.594775    12A     -0.592812
      13A     -0.499426    14A     -0.494958    15A     -0.489847
      16A     -0.487568    17A     -0.484877    18A     -0.479458

    Virtual:

      19A      0.172570    20A      0.193699    21A      0.228207
      22A      0.236485    23A      0.238325    24A      0.262119
      25A      0.265361    26A      0.278548    27A      0.281018
      28A      0.292656    29A      0.303088    30A      0.307834
      31A      0.386025    32A      0.395661    33A      0.560750
      34A      0.596513    35A      0.601106    36A      0.604769
      37A      0.612703    38A      0.634570    39A      0.678828
      40A      0.680618    41A      0.699287    42A      0.762420
      43A      0.834859    44A      0.865114    45A      0.888254
      46A      0.893364    47A      0.894661    48A      0.895331
      49A      0.900576    50A      0.906293    51A      0.914228
      52A      0.918430    53A      0.928493    54A      0.944999
      55A      0.965986    56A      0.990772    57A      1.120027
      58A      1.125063    59A      1.134267    60A      1.150887
      61A      1.224193    62A      1.246317    63A      1.464579
      64A      1.470129    65A      1.479104    66A      1.488270
      67A      1.570095    68A      1.584481    69A      1.673903
      70A      1.681826    71A      1.690627    72A      1.693349
      73A      1.857352    74A      1.863637    75A      1.867088
      76A      1.873683    77A      1.885054    78A      1.914390
      79A      1.932742    80A      1.937258    81A      1.940163
      82A      1.941432    83A      1.946374    84A      1.948186
      85A      1.959301    86A      1.973183    87A      1.984056
      88A      2.052327    89A      2.084894    90A      2.099757
      91A      2.118179    92A      2.131800    93A      2.282325
      94A      2.297566    95A      2.303850    96A      2.342424
      97A      2.444606    98A      2.448020    99A      2.467445
     100A      2.473463   101A      2.549112   102A      2.558804
     103A      2.572274   104A      2.581335   105A      2.762175
     106A      2.763747   107A      2.785142   108A      2.790551
     109A      2.835898   110A      2.837341   111A      2.846365
     112A      2.853443   113A      2.928270   114A      2.951944
     115A      2.955794   116A      2.958365

    Final Occupation by Irrep:
              A
    DOCC [    18 ]

  @RHF Final Energy:  -158.46596756942660

   => Energetics <=

    Nuclear Repulsion Energy =            120.8496632127951216
    One-Electron Energy =                -450.8381024914208410
    Two-Electron Energy =                 171.5224717091991238
    Total Energy =                       -158.4659675694265957

Computation Completed

Properties will be evaluated at   0.000000,   0.000000,   0.000000 [a0]

Properties computed using the SCF density matrix

  Nuclear Dipole Moment: [e a0]
     X:    -0.0143      Y:    -0.0503      Z:     0.0621

  Electronic Dipole Moment: [e a0]
     X:     0.0106      Y:     0.0512      Z:    -0.0564

  Dipole Moment: [e a0]
     X:    -0.0038      Y:     0.0008      Z:     0.0057     Total:     0.0069

  Dipole Moment: [D]
     X:    -0.0096      Y:     0.0021      Z:     0.0144     Total:     0.0174

*** tstop() called on ds3 at Sun Apr 26 21:00:03 2020
Module time:
	user time   =       7.06 seconds =       0.12 minutes
	system time =       2.68 seconds =       0.04 minutes
	total time  =         26 seconds =       0.43 minutes
Total time:
	user time   =       7.06 seconds =       0.12 minutes
	system time =       2.68 seconds =       0.04 minutes
	total time  =         26 seconds =       0.43 minutes
                                     G D M A

                                 by Anthony Stone

                           version 2.2.06, 22 June 2011

               Distributed Multipoles from Gaussian wavefunctions

Starting at 21:0:3 on 26 Apr 2020

Using SCF density matrix from file ./SSI/SSI-063LEU-108LEU-1-dimer.test.10796.fchk

                         Distributed Multipole Analysis

Standard DMA

Positions and radii in angstrom
Multipole moments in atomic units, ea_0^k for rank k

C          x = -1.107679  y = -1.766623  z = -0.361390 angstrom
           Maximum rank =  0   Radius =  0.650 angstrom
                   Q00  =  -0.240544

C          x = -0.104679  y = -2.842623  z =  0.114610 angstrom
           Maximum rank =  0   Radius =  0.650 angstrom
                   Q00  =  -0.240707

H          x = -2.014679  y = -2.245623  z = -0.734390 angstrom
           Maximum rank =  0   Radius =  0.325 angstrom
                   Q00  =   0.079495

H          x = -1.375679  y = -1.113623  z =  0.471610 angstrom
           Maximum rank =  0   Radius =  0.325 angstrom
                   Q00  =   0.081813

H          x = -0.662679  y = -1.169623  z = -1.157390 angstrom
           Maximum rank =  0   Radius =  0.325 angstrom
                   Q00  =   0.080792

H          x = -0.615679  y = -3.401623  z =  0.895610 angstrom
           Maximum rank =  0   Radius =  0.325 angstrom
                   Q00  =   0.076966

H          x =  0.184821  y = -3.524513  z = -0.698540 angstrom
           Maximum rank =  0   Radius =  0.325 angstrom
                   Q00  =   0.081583

H          x =  0.803751  y = -2.389133  z =  0.537820 angstrom
           Maximum rank =  0   Radius =  0.325 angstrom
                   Q00  =   0.081075

C          x =  0.445321  y =  1.551377  z =  0.116610 angstrom
           Maximum rank =  0   Radius =  0.650 angstrom
                   Q00  =  -0.244613

C          x =  0.768321  y =  3.062377  z =  0.124610 angstrom
           Maximum rank =  0   Radius =  0.650 angstrom
                   Q00  =  -0.237338

H          x = -0.514679  y =  1.385377  z = -0.372390 angstrom
           Maximum rank =  0   Radius =  0.325 angstrom
                   Q00  =   0.080671

H          x =  1.222321  y =  1.011377  z = -0.424390 angstrom
           Maximum rank =  0   Radius =  0.325 angstrom
                   Q00  =   0.078977

H          x =  0.397321  y =  1.171377  z =  1.139610 angstrom
           Maximum rank =  0   Radius =  0.325 angstrom
                   Q00  =   0.079750

H          x =  1.723321  y =  3.210377  z =  0.626610 angstrom
           Maximum rank =  0   Radius =  0.325 angstrom
                   Q00  =   0.080027

H          x = -0.025539  y =  3.575177  z =  0.687520 angstrom
           Maximum rank =  0   Radius =  0.325 angstrom
                   Q00  =   0.080128

H          x =  0.862091  y =  3.436777  z = -0.905460 angstrom
           Maximum rank =  0   Radius =  0.325 angstrom
                   Q00  =   0.081926

Total multipoles referred to origin at
           x =   0.000000,  y =    0.000000,  z =    0.000000 angstrom
                   Q00  =  -0.000000

Finished at 21:0:3 on 26 Apr 2020

  DMA results are available in the Python driver through the
	  variable('DMA DISTRIBUTED MULTIPOLES')
  and
	  variable('DMA TOTAL MULTIPOLES')
  commands.

    Psi4 stopped on: Sunday, 26 April 2020 09:00PM
    Psi4 wall time for execution: 0:00:26.87

*** Psi4 exiting successfully. Buy a developer a beer!
