                               Psi4 1.3.2 release

  ==> Input File <==

--------------------------------------------------------------------------
import numpy as np
set {scf_type pk
basis cc-pvdz
d_convergence 10
gdma_switch   0
gdma_limit    0
gdma_origin   [ 0.0,  0.0,  0.0 ]
}
molecule test {
    units Angstrom
    0 1
    --
    0 1
    C               -0.245989291118229     0.246289235608132    -2.124690941262060
    C                0.484010708881771    -1.081710764391869    -2.348690941262059
    H                0.086010708881771     0.969289235608132    -2.864690941262059
    H               -1.321989291118229     0.107289235608132    -2.232690941262060
    H               -0.018989291118229     0.637289235608132    -1.141690941262059
    H                0.442010708881771    -1.278710764391868    -3.420690941262060
    H                1.539500708881771    -1.022070764391868    -2.044759941262059
    H               -0.018089291118229    -1.925210764391868    -1.852303941262059
    C               -0.254989291118229     0.147289235608132     1.524309058737940
    C                0.026010708881771     0.691289235608132     2.952309058737940
    H                0.605010708881771    -0.373710764391868     1.111309058737940
    H               -1.082989291118229    -0.556710764391868     1.569309058737941
    H               -0.544989291118229     0.982289235608132     0.889309058737941
    H                0.158010708881771    -0.158710764391868     3.622309058737940
    H               -0.855989291118229     1.233289235608132     3.294309058737940
    H                0.904820708881771     1.348089235608132     3.031749058737940

}
e, wfn = energy('scf', return_wfn=True)
gdma(wfn)
dmavals = variable('DMA DISTRIBUTED MULTIPOLES')
charges = np.array(dmavals)
print(charges)
np.save('SSI-011VAL-155ILE-1-dimer.npy', np.array(charges))--------------------------------------------------------------------------

*** tstart() called on ds3
*** at Mon Apr 27 12:49:50 2020

   => Loading Basis Set <=

    Name: CC-PVDZ
    Role: ORBITAL
    Keyword: BASIS
    atoms 1-2, 9-10  entry C          line   138 file /theoryfs2/ds/metcalf/miniconda2/envs/tf2gpu/share/psi4/basis/cc-pvdz.gbs
    atoms 3-8, 11-16 entry H          line    22 file /theoryfs2/ds/metcalf/miniconda2/envs/tf2gpu/share/psi4/basis/cc-pvdz.gbs

         ---------------------------------------------------------
                                   SCF
               by Justin Turney, Rob Parrish, Andy Simmonett
                          and Daniel G. A. Smith
                              RHF Reference
                        1 Threads,    500 MiB Core
         ---------------------------------------------------------

  ==> Geometry <==

    Molecular point group: c1
    Full point group: C1

    Geometry (in Angstrom), charge = 0, multiplicity = 1:

       Center              X                  Y                   Z               Mass
    ------------   -----------------  -----------------  -----------------  -----------------
         C           -0.245989291118     0.246289235608    -2.124690941262    12.000000000000
         C            0.484010708882    -1.081710764392    -2.348690941262    12.000000000000
         H            0.086010708882     0.969289235608    -2.864690941262     1.007825032230
         H           -1.321989291118     0.107289235608    -2.232690941262     1.007825032230
         H           -0.018989291118     0.637289235608    -1.141690941262     1.007825032230
         H            0.442010708882    -1.278710764392    -3.420690941262     1.007825032230
         H            1.539500708882    -1.022070764392    -2.044759941262     1.007825032230
         H           -0.018089291118    -1.925210764392    -1.852303941262     1.007825032230
         C           -0.254989291118     0.147289235608     1.524309058738    12.000000000000
         C            0.026010708882     0.691289235608     2.952309058738    12.000000000000
         H            0.605010708882    -0.373710764392     1.111309058738     1.007825032230
         H           -1.082989291118    -0.556710764392     1.569309058738     1.007825032230
         H           -0.544989291118     0.982289235608     0.889309058738     1.007825032230
         H            0.158010708882    -0.158710764392     3.622309058738     1.007825032230
         H           -0.855989291118     1.233289235608     3.294309058738     1.007825032230
         H            0.904820708882     1.348089235608     3.031749058738     1.007825032230

  Running in c1 symmetry.

  Rotational constants: A =      0.54496  B =      0.04853  C =      0.04651 [cm^-1]
  Rotational constants: A =  16337.58941  B =   1454.87878  C =   1394.40592 [MHz]
  Nuclear repulsion =  122.364773397343143

  Charge       = 0
  Multiplicity = 1
  Electrons    = 36
  Nalpha       = 18
  Nbeta        = 18

  ==> Algorithm <==

  SCF Algorithm Type is PK.
  DIIS enabled.
  MOM disabled.
  Fractional occupation disabled.
  Guess Type is SAD.
  Energy threshold   = 1.00e-06
  Density threshold  = 1.00e-10
  Integral threshold = 0.00e+00

  ==> Primary Basis <==

  Basis Set: CC-PVDZ
    Blend: CC-PVDZ
    Number of shells: 60
    Number of basis function: 116
    Number of Cartesian functions: 120
    Spherical Harmonics?: true
    Max angular momentum: 2

  ==> Pre-Iterations <==

   -------------------------------------------------------
    Irrep   Nso     Nmo     Nalpha   Nbeta   Ndocc  Nsocc
   -------------------------------------------------------
     A        116     116       0       0       0       0
   -------------------------------------------------------
    Total     116     116      18      18      18       0
   -------------------------------------------------------

  ==> Integral Setup <==

  Using integral reordering PK algorithm.
  Sizing the integral batches needed.
  Building batch lookup table.
   Calculation information:
      Number of atoms:                  16
      Number of AO shells:              60
      Number of primitives:            148
      Number of atomic orbitals:       120
      Number of basis functions:       116

      Integral cutoff                 1.00e-12
      Number of threads:                 1

	Batch   1 pq = [       0,    6786] index = [             0,23028291] size =     23028291
  Task number: 3
  Buffer size: 11059200
  Buffer per thread: 2
  We computed 1427447 shell quartets total.
  Whereas there are 1675365 unique shell quartets.

  ==> DiskJK: Disk-Based J/K Matrices <==

    J tasked:                  Yes
    K tasked:                  Yes
    wK tasked:                  No
    Memory [MiB]:              375
    Schwarz Cutoff:          1E-12

    OpenMP threads:              1

  Minimum eigenvalue in the overlap matrix is 7.0217505429E-03.
  Using Symmetric Orthogonalization.

  SCF Guess: Superposition of Atomic Densities via on-the-fly atomic UHF.

  ==> Iterations <==

                        Total Energy        Delta E     RMS |[F,P]|

   @RHF iter SAD:  -157.33103611134240   -1.57331e+02   0.00000e+00
   @RHF iter   1:  -158.30721650738101   -9.76180e-01   4.16987e-03 DIIS
   @RHF iter   2:  -158.43881897399993   -1.31602e-01   1.75675e-03 DIIS
   @RHF iter   3:  -158.46131457551371   -2.24956e-02   3.47419e-04 DIIS
   @RHF iter   4:  -158.46312088476421   -1.80631e-03   3.88878e-05 DIIS
   @RHF iter   5:  -158.46314454815231   -2.36634e-05   7.01745e-06 DIIS
   @RHF iter   6:  -158.46314522544753   -6.77295e-07   1.53022e-06 DIIS
   @RHF iter   7:  -158.46314524749971   -2.20522e-08   3.25657e-07 DIIS
   @RHF iter   8:  -158.46314524863311   -1.13340e-09   4.65306e-08 DIIS
   @RHF iter   9:  -158.46314524866759   -3.44755e-11   1.18557e-08 DIIS
   @RHF iter  10:  -158.46314524866924   -1.64846e-12   3.29018e-09 DIIS
   @RHF iter  11:  -158.46314524866904    1.98952e-13   9.00771e-10 DIIS
   @RHF iter  12:  -158.46314524866946   -4.26326e-13   1.89265e-10 DIIS
   @RHF iter  13:  -158.46314524866983   -3.69482e-13   2.78666e-11 DIIS
  Energy and wave function converged.

  ==> Post-Iterations <==

    Orbital Energies [Eh]
    ---------------------

    Doubly Occupied:

       1A    -11.220153     2A    -11.218999     3A    -11.218053
       4A    -11.213073     5A     -1.016964     6A     -1.012626
       7A     -0.843091     8A     -0.835189     9A     -0.602422
      10A     -0.597271    11A     -0.595415    12A     -0.590212
      13A     -0.500520    14A     -0.499268    15A     -0.493599
      16A     -0.489955    17A     -0.485960    18A     -0.471080

    Virtual:

      19A      0.174826    20A      0.194619    21A      0.227452
      22A      0.239763    23A      0.245251    24A      0.258201
      25A      0.265694    26A      0.276597    27A      0.286070
      28A      0.291972    29A      0.297743    30A      0.350022
      31A      0.385595    32A      0.401597    33A      0.566212
      34A      0.593656    35A      0.597535    36A      0.604285
      37A      0.612107    38A      0.649261    39A      0.673681
      40A      0.699514    41A      0.717417    42A      0.772690
      43A      0.839855    44A      0.855669    45A      0.889023
      46A      0.891605    47A      0.895377    48A      0.899410
      49A      0.900406    50A      0.907005    51A      0.918050
      52A      0.938061    53A      0.940495    54A      0.951890
      55A      0.977672    56A      0.996923    57A      1.116515
      58A      1.117937    59A      1.128922    60A      1.159710
      61A      1.232684    62A      1.275154    63A      1.445980
      64A      1.468804    65A      1.483368    66A      1.494370
      67A      1.579860    68A      1.588616    69A      1.682933
      70A      1.687820    71A      1.694280    72A      1.705996
      73A      1.853925    74A      1.859985    75A      1.864131
      76A      1.878962    77A      1.884160    78A      1.909839
      79A      1.923850    80A      1.934355    81A      1.939388
      82A      1.943768    83A      1.947541    84A      1.953662
      85A      1.966549    86A      1.987925    87A      1.995478
      88A      2.031707    89A      2.081957    90A      2.112762
      91A      2.128705    92A      2.162179    93A      2.296214
      94A      2.302770    95A      2.312209    96A      2.334139
      97A      2.437490    98A      2.448120    99A      2.457479
     100A      2.482186   101A      2.550442   102A      2.573015
     103A      2.584503   104A      2.596347   105A      2.763729
     106A      2.765602   107A      2.788906   108A      2.796756
     109A      2.845114   110A      2.854560   111A      2.861362
     112A      2.868491   113A      2.939115   114A      2.952727
     115A      2.964953   116A      2.983435

    Final Occupation by Irrep:
              A
    DOCC [    18 ]

  @RHF Final Energy:  -158.46314524866983

   => Energetics <=

    Nuclear Repulsion Energy =            122.3647733973431428
    One-Electron Energy =                -453.8481421003560285
    Two-Electron Energy =                 173.0202234543430677
    Total Energy =                       -158.4631452486698322

Computation Completed

Properties will be evaluated at   0.000000,   0.000000,   0.000000 [a0]

Properties computed using the SCF density matrix

  Nuclear Dipole Moment: [e a0]
     X:    -0.1009      Y:    -0.0352      Z:    -0.0361

  Electronic Dipole Moment: [e a0]
     X:     0.0796      Y:     0.0416      Z:     0.0527

  Dipole Moment: [e a0]
     X:    -0.0213      Y:     0.0064      Z:     0.0166     Total:     0.0278

  Dipole Moment: [D]
     X:    -0.0542      Y:     0.0162      Z:     0.0422     Total:     0.0706

*** tstop() called on ds3 at Mon Apr 27 12:50:03 2020
Module time:
	user time   =       8.59 seconds =       0.14 minutes
	system time =       4.14 seconds =       0.07 minutes
	total time  =         13 seconds =       0.22 minutes
Total time:
	user time   =       8.59 seconds =       0.14 minutes
	system time =       4.14 seconds =       0.07 minutes
	total time  =         13 seconds =       0.22 minutes
                                     G D M A

                                 by Anthony Stone

                           version 2.2.06, 22 June 2011

               Distributed Multipoles from Gaussian wavefunctions

Starting at 12:50:3 on 27 Apr 2020

Using SCF density matrix from file ./SSI/SSI-011VAL-155ILE-1-dimer.test.4258.fchk

                         Distributed Multipole Analysis

Standard DMA

Positions and radii in angstrom
Multipole moments in atomic units, ea_0^k for rank k

C          x = -0.245989  y =  0.246289  z = -2.124691 angstrom
           Maximum rank =  0   Radius =  0.650 angstrom
                   Q00  =  -0.237531

C          x =  0.484011  y = -1.081711  z = -2.348691 angstrom
           Maximum rank =  0   Radius =  0.650 angstrom
                   Q00  =  -0.240010

H          x =  0.086011  y =  0.969289  z = -2.864691 angstrom
           Maximum rank =  0   Radius =  0.325 angstrom
                   Q00  =   0.076032

H          x = -1.321989  y =  0.107289  z = -2.232691 angstrom
           Maximum rank =  0   Radius =  0.325 angstrom
                   Q00  =   0.079136

H          x = -0.018989  y =  0.637289  z = -1.141691 angstrom
           Maximum rank =  0   Radius =  0.325 angstrom
                   Q00  =   0.086770

H          x =  0.442011  y = -1.278711  z = -3.420691 angstrom
           Maximum rank =  0   Radius =  0.325 angstrom
                   Q00  =   0.073536

H          x =  1.539501  y = -1.022071  z = -2.044760 angstrom
           Maximum rank =  0   Radius =  0.325 angstrom
                   Q00  =   0.079973

H          x = -0.018089  y = -1.925211  z = -1.852304 angstrom
           Maximum rank =  0   Radius =  0.325 angstrom
                   Q00  =   0.079770

C          x = -0.254989  y =  0.147289  z =  1.524309 angstrom
           Maximum rank =  0   Radius =  0.650 angstrom
                   Q00  =  -0.245174

C          x =  0.026011  y =  0.691289  z =  2.952309 angstrom
           Maximum rank =  0   Radius =  0.650 angstrom
                   Q00  =  -0.240985

H          x =  0.605011  y = -0.373711  z =  1.111309 angstrom
           Maximum rank =  0   Radius =  0.325 angstrom
                   Q00  =   0.082735

H          x = -1.082989  y = -0.556711  z =  1.569309 angstrom
           Maximum rank =  0   Radius =  0.325 angstrom
                   Q00  =   0.084038

H          x = -0.544989  y =  0.982289  z =  0.889309 angstrom
           Maximum rank =  0   Radius =  0.325 angstrom
                   Q00  =   0.078253

H          x =  0.158011  y = -0.158711  z =  3.622309 angstrom
           Maximum rank =  0   Radius =  0.325 angstrom
                   Q00  =   0.078523

H          x = -0.855989  y =  1.233289  z =  3.294309 angstrom
           Maximum rank =  0   Radius =  0.325 angstrom
                   Q00  =   0.080537

H          x =  0.904821  y =  1.348089  z =  3.031749 angstrom
           Maximum rank =  0   Radius =  0.325 angstrom
                   Q00  =   0.084398

Total multipoles referred to origin at
           x =   0.000000,  y =    0.000000,  z =    0.000000 angstrom
                   Q00  =  -0.000000

Finished at 12:50:3 on 27 Apr 2020

  DMA results are available in the Python driver through the
	  variable('DMA DISTRIBUTED MULTIPOLES')
  and
	  variable('DMA TOTAL MULTIPOLES')
  commands.

    Psi4 stopped on: Monday, 27 April 2020 12:50PM
    Psi4 wall time for execution: 0:00:12.60

*** Psi4 exiting successfully. Buy a developer a beer!
