                               Psi4 1.3.2 release

  ==> Input File <==

--------------------------------------------------------------------------
import numpy as np
set {scf_type pk
basis cc-pvdz
d_convergence 10
gdma_switch   0
gdma_limit    0
gdma_origin   [ 0.0,  0.0,  0.0 ]
}
molecule test {
    units Angstrom
    0 1
    --
    0 1
    C                2.509876295310060     0.160031676117153     1.746065008298839
    C                3.521876295310060     0.771031676117153     2.724065008298840
    H                2.943876295310060     0.084031676117153     0.748065008298840
    H                2.185876295310060    -0.823968323882847     2.078065008298839
    H                1.609876295310060     0.759031676117153     1.681065008298840
    H                3.118876295310061     0.677031676117153     3.735065008298840
    H                3.688828295310060     1.838661676117153     2.518421008298840
    H                4.459714295310061     0.198981676117153     2.667292008298840
    C                1.346876295310061    -1.923968323882847    -1.380934991701160
    C               -0.443123704689940    -1.160968323882847     0.219065008298840
    C                0.227876295310060    -0.992968323882847    -0.986934991701160
    C               -1.476123704689940    -0.305968323882847     0.576065008298840
    C               -1.863123704689940     0.718031676117153    -0.288934991701160
    C               -0.167123704689940     0.032031676117153    -1.847934991701160
    C               -1.213123704689939     0.892031676117153    -1.511934991701160
    O               -2.874123704689940     1.538031676117153     0.095065008298840
    H               -0.140123704689940    -1.944968323882847     0.898065008298840
    H               -1.972123704689940    -0.430968323882847     1.528065008298839
    H                2.009876295310061    -2.075968323882847    -0.529934991701160
    H                1.936876295310060    -1.429968323882847    -2.153934991701160
    H                0.343876295310060     0.166031676117153    -2.789934991701160
    H               -3.153123704689940     1.338031676117153     0.992065008298840
    H               -1.506123704689940     1.688031676117153    -2.176934991701160
    H                0.989307295310060    -2.893798323882847    -1.757209991701160

}
e, wfn = energy('scf', return_wfn=True)
gdma(wfn)
dmavals = variable('DMA DISTRIBUTED MULTIPOLES')
charges = np.array(dmavals)
print(charges)
np.save('SSI-003ILE-067TYR-1-dimer.npy', np.array(charges))--------------------------------------------------------------------------

*** tstart() called on ds3
*** at Mon Apr 27 09:12:37 2020

   => Loading Basis Set <=

    Name: CC-PVDZ
    Role: ORBITAL
    Keyword: BASIS
    atoms 1-2, 9-15  entry C          line   138 file /theoryfs2/ds/metcalf/miniconda2/envs/tf2gpu/share/psi4/basis/cc-pvdz.gbs
    atoms 3-8, 17-24 entry H          line    22 file /theoryfs2/ds/metcalf/miniconda2/envs/tf2gpu/share/psi4/basis/cc-pvdz.gbs
    atoms 16         entry O          line   198 file /theoryfs2/ds/metcalf/miniconda2/envs/tf2gpu/share/psi4/basis/cc-pvdz.gbs

         ---------------------------------------------------------
                                   SCF
               by Justin Turney, Rob Parrish, Andy Simmonett
                          and Daniel G. A. Smith
                              RHF Reference
                        1 Threads,    500 MiB Core
         ---------------------------------------------------------

  ==> Geometry <==

    Molecular point group: c1
    Full point group: C1

    Geometry (in Angstrom), charge = 0, multiplicity = 1:

       Center              X                  Y                   Z               Mass
    ------------   -----------------  -----------------  -----------------  -----------------
         C            2.509876295310     0.160031676117     1.746065008299    12.000000000000
         C            3.521876295310     0.771031676117     2.724065008299    12.000000000000
         H            2.943876295310     0.084031676117     0.748065008299     1.007825032230
         H            2.185876295310    -0.823968323883     2.078065008299     1.007825032230
         H            1.609876295310     0.759031676117     1.681065008299     1.007825032230
         H            3.118876295310     0.677031676117     3.735065008299     1.007825032230
         H            3.688828295310     1.838661676117     2.518421008299     1.007825032230
         H            4.459714295310     0.198981676117     2.667292008299     1.007825032230
         C            1.346876295310    -1.923968323883    -1.380934991701    12.000000000000
         C           -0.443123704690    -1.160968323883     0.219065008299    12.000000000000
         C            0.227876295310    -0.992968323883    -0.986934991701    12.000000000000
         C           -1.476123704690    -0.305968323883     0.576065008299    12.000000000000
         C           -1.863123704690     0.718031676117    -0.288934991701    12.000000000000
         C           -0.167123704690     0.032031676117    -1.847934991701    12.000000000000
         C           -1.213123704690     0.892031676117    -1.511934991701    12.000000000000
         O           -2.874123704690     1.538031676117     0.095065008299    15.994914619570
         H           -0.140123704690    -1.944968323883     0.898065008299     1.007825032230
         H           -1.972123704690    -0.430968323883     1.528065008299     1.007825032230
         H            2.009876295310    -2.075968323883    -0.529934991701     1.007825032230
         H            1.936876295310    -1.429968323883    -2.153934991701     1.007825032230
         H            0.343876295310     0.166031676117    -2.789934991701     1.007825032230
         H           -3.153123704690     1.338031676117     0.992065008299     1.007825032230
         H           -1.506123704690     1.688031676117    -2.176934991701     1.007825032230
         H            0.989307295310    -2.893798323883    -1.757209991701     1.007825032230

  Running in c1 symmetry.

  Rotational constants: A =      0.04803  B =      0.02289  C =      0.01808 [cm^-1]
  Rotational constants: A =   1439.95044  B =    686.10479  C =    542.12055 [MHz]
  Nuclear repulsion =  496.247962020891862

  Charge       = 0
  Multiplicity = 1
  Electrons    = 76
  Nalpha       = 38
  Nbeta        = 38

  ==> Algorithm <==

  SCF Algorithm Type is PK.
  DIIS enabled.
  MOM disabled.
  Fractional occupation disabled.
  Guess Type is SAD.
  Energy threshold   = 1.00e-06
  Density threshold  = 1.00e-10
  Integral threshold = 0.00e+00

  ==> Primary Basis <==

  Basis Set: CC-PVDZ
    Blend: CC-PVDZ
    Number of shells: 102
    Number of basis function: 210
    Number of Cartesian functions: 220
    Spherical Harmonics?: true
    Max angular momentum: 2

  ==> Pre-Iterations <==

   -------------------------------------------------------
    Irrep   Nso     Nmo     Nalpha   Nbeta   Ndocc  Nsocc
   -------------------------------------------------------
     A        210     210       0       0       0       0
   -------------------------------------------------------
    Total     210     210      38      38      38       0
   -------------------------------------------------------

  ==> Integral Setup <==

  Using integral reordering PK algorithm.
  Sizing the integral batches needed.
  Building batch lookup table.
   Calculation information:
      Number of atoms:                  24
      Number of AO shells:             102
      Number of primitives:            290
      Number of atomic orbitals:       220
      Number of basis functions:       210

      Integral cutoff                 1.00e-12
      Number of threads:                 1

	Batch   1 pq = [       0,    9405] index = [             0,44231715] size =     44231715
	Batch   2 pq = [    9405,   13301] index = [      44231715,88464951] size =     44233236
	Batch   3 pq = [   13301,   16290] index = [      88464951,132690195] size =     44225244
	Batch   4 pq = [   16290,   18810] index = [     132690195,176917455] size =     44227260
	Batch   5 pq = [   18810,   21030] index = [     176917455,221140965] size =     44223510
	Batch   6 pq = [   21030,   22155] index = [     221140965,245433090] size =     24292125
  Task number: 23
  Buffer size: 11059200
  Buffer per thread: 2
  We computed 12026079 shell quartets total.
  Whereas there are 13799631 unique shell quartets.

  ==> DiskJK: Disk-Based J/K Matrices <==

    J tasked:                  Yes
    K tasked:                  Yes
    wK tasked:                  No
    Memory [MiB]:              375
    Schwarz Cutoff:          1E-12

    OpenMP threads:              1

  Minimum eigenvalue in the overlap matrix is 3.2406565185E-04.
  Using Symmetric Orthogonalization.

  SCF Guess: Superposition of Atomic Densities via on-the-fly atomic UHF.

  ==> Iterations <==

                        Total Energy        Delta E     RMS |[F,P]|

   @RHF iter SAD:  -422.69698885510513   -4.22697e+02   0.00000e+00
   @RHF iter   1:  -423.60027603857435   -9.03287e-01   2.98294e-03 DIIS
   @RHF iter   2:  -423.81720078432312   -2.16925e-01   1.25808e-03 DIIS
   @RHF iter   3:  -423.85219856281594   -3.49978e-02   2.86463e-04 DIIS
   @RHF iter   4:  -423.85507914162508   -2.88058e-03   1.20582e-04 DIIS
   @RHF iter   5:  -423.85545496834095   -3.75827e-04   2.07404e-05 DIIS
   @RHF iter   6:  -423.85547274279077   -1.77744e-05   6.46558e-06 DIIS
   @RHF iter   7:  -423.85547445970366   -1.71691e-06   2.16847e-06 DIIS
   @RHF iter   8:  -423.85547471935564   -2.59652e-07   8.46999e-07 DIIS
   @RHF iter   9:  -423.85547477030394   -5.09483e-08   3.76319e-07 DIIS
   @RHF iter  10:  -423.85547478214608   -1.18421e-08   1.68120e-07 DIIS
   @RHF iter  11:  -423.85547478587040   -3.72432e-09   6.73363e-08 DIIS
   @RHF iter  12:  -423.85547478637409   -5.03690e-10   3.04859e-08 DIIS
   @RHF iter  13:  -423.85547478644617   -7.20775e-11   8.00134e-09 DIIS
   @RHF iter  14:  -423.85547478645003   -3.86535e-12   2.12103e-09 DIIS
   @RHF iter  15:  -423.85547478645020   -1.70530e-13   6.62522e-10 DIIS
   @RHF iter  16:  -423.85547478645003    1.70530e-13   2.02247e-10 DIIS
   @RHF iter  17:  -423.85547478645185   -1.81899e-12   7.76199e-11 DIIS
  Energy and wave function converged.

  ==> Post-Iterations <==

    Orbital Energies [Eh]
    ---------------------

    Doubly Occupied:

       1A    -20.582680     2A    -11.299972     3A    -11.238077
       4A    -11.237324     5A    -11.232169     6A    -11.231151
       7A    -11.230725     8A    -11.226364     9A    -11.218019
      10A    -11.211831    11A     -1.403298    12A     -1.150197
      13A     -1.035674    14A     -1.018638    15A     -1.013368
      16A     -0.924285    17A     -0.844713    18A     -0.835396
      19A     -0.802507    20A     -0.732266    21A     -0.669531
      22A     -0.641327    23A     -0.607229    24A     -0.594771
      25A     -0.592928    26A     -0.588119    27A     -0.587132
      28A     -0.572132    29A     -0.565208    30A     -0.524745
      31A     -0.498876    32A     -0.496192    33A     -0.485196
      34A     -0.482745    35A     -0.481972    36A     -0.465250
      37A     -0.338965    38A     -0.299970

    Virtual:

      39A      0.130122    40A      0.155760    41A      0.174915
      42A      0.181192    43A      0.198078    44A      0.215027
      45A      0.216213    46A      0.250039    47A      0.253826
      48A      0.260189    49A      0.260615    50A      0.273448
      51A      0.288042    52A      0.296251    53A      0.299917
      54A      0.320934    55A      0.368768    56A      0.374513
      57A      0.397020    58A      0.428310    59A      0.456727
      60A      0.483983    61A      0.498796    62A      0.509207
      63A      0.572860    64A      0.596520    65A      0.601992
      66A      0.612340    67A      0.645330    68A      0.657470
      69A      0.663531    70A      0.677776    71A      0.685191
      72A      0.698083    73A      0.718546    74A      0.724354
      75A      0.735171    76A      0.745768    77A      0.760930
      78A      0.767326    79A      0.774438    80A      0.791985
      81A      0.804235    82A      0.830388    83A      0.851106
      84A      0.856650    85A      0.865864    86A      0.876133
      87A      0.891442    88A      0.894054    89A      0.894910
      90A      0.898795    91A      0.913878    92A      0.920143
      93A      0.931838    94A      0.938885    95A      0.948222
      96A      0.955925    97A      0.957561    98A      0.976644
      99A      1.008774   100A      1.011511   101A      1.034238
     102A      1.061094   103A      1.123583   104A      1.130116
     105A      1.139865   106A      1.144428   107A      1.148345
     108A      1.170793   109A      1.202203   110A      1.242130
     111A      1.245902   112A      1.256975   113A      1.272507
     114A      1.287071   115A      1.300415   116A      1.311517
     117A      1.319079   118A      1.351649   119A      1.364489
     120A      1.389135   121A      1.467302   122A      1.481037
     123A      1.482314   124A      1.510979   125A      1.526782
     126A      1.555846   127A      1.590580   128A      1.616375
     129A      1.624326   130A      1.680624   131A      1.684852
     132A      1.700372   133A      1.709161   134A      1.741085
     135A      1.749085   136A      1.777954   137A      1.800190
     138A      1.806131   139A      1.863988   140A      1.874174
     141A      1.885037   142A      1.890041   143A      1.895602
     144A      1.906300   145A      1.916816   146A      1.920647
     147A      1.924371   148A      1.942617   149A      1.946468
     150A      1.952634   151A      1.956968   152A      1.965164
     153A      1.971833   154A      1.977929   155A      1.992386
     156A      2.031244   157A      2.046621   158A      2.052793
     159A      2.065727   160A      2.069744   161A      2.090811
     162A      2.102423   163A      2.126443   164A      2.130567
     165A      2.145365   166A      2.176632   167A      2.203894
     168A      2.227080   169A      2.257521   170A      2.272866
     171A      2.305428   172A      2.314012   173A      2.333532
     174A      2.352208   175A      2.365786   176A      2.418554
     177A      2.447732   178A      2.458766   179A      2.461105
     180A      2.481398   181A      2.503625   182A      2.528508
     183A      2.543567   184A      2.558880   185A      2.584954
     186A      2.608338   187A      2.649619   188A      2.752789
     189A      2.763298   190A      2.783233   191A      2.791099
     192A      2.800088   193A      2.809891   194A      2.841479
     195A      2.858119   196A      2.865960   197A      2.905849
     198A      2.951278   199A      2.962587   200A      2.980637
     201A      3.000227   202A      3.092488   203A      3.112934
     204A      3.261420   205A      3.281100   206A      3.346380
     207A      3.584018   208A      3.678390   209A      3.979341
     210A      4.189113

    Final Occupation by Irrep:
              A
    DOCC [    38 ]

  @RHF Final Energy:  -423.85547478645185

   => Energetics <=

    Nuclear Repulsion Energy =            496.2479620208918618
    One-Electron Energy =               -1558.2849828690930281
    Two-Electron Energy =                 638.1815460617492590
    Total Energy =                       -423.8554747864518504

Computation Completed

Properties will be evaluated at   0.000000,   0.000000,   0.000000 [a0]

Properties computed using the SCF density matrix

  Nuclear Dipole Moment: [e a0]
     X:    15.4690      Y:    -2.6642      Z:     6.9736

  Electronic Dipole Moment: [e a0]
     X:   -15.3786      Y:     2.3259      Z:    -6.5556

  Dipole Moment: [e a0]
     X:     0.0903      Y:    -0.3383      Z:     0.4180     Total:     0.5453

  Dipole Moment: [D]
     X:     0.2296      Y:    -0.8598      Z:     1.0625     Total:     1.3859

*** tstop() called on ds3 at Mon Apr 27 09:17:50 2020
Module time:
	user time   =      87.12 seconds =       1.45 minutes
	system time =      33.62 seconds =       0.56 minutes
	total time  =        313 seconds =       5.22 minutes
Total time:
	user time   =      87.12 seconds =       1.45 minutes
	system time =      33.62 seconds =       0.56 minutes
	total time  =        313 seconds =       5.22 minutes
                                     G D M A

                                 by Anthony Stone

                           version 2.2.06, 22 June 2011

               Distributed Multipoles from Gaussian wavefunctions

Starting at 9:17:50 on 27 Apr 2020

Using SCF density matrix from file ./SSI/SSI-003ILE-067TYR-1-dimer.test.1533.fchk

                         Distributed Multipole Analysis

Standard DMA

Positions and radii in angstrom
Multipole moments in atomic units, ea_0^k for rank k

C          x =  2.509876  y =  0.160032  z =  1.746065 angstrom
           Maximum rank =  0   Radius =  0.650 angstrom
                   Q00  =  -0.238652

C          x =  3.521876  y =  0.771032  z =  2.724065 angstrom
           Maximum rank =  0   Radius =  0.650 angstrom
                   Q00  =  -0.234808

H          x =  2.943876  y =  0.084032  z =  0.748065 angstrom
           Maximum rank =  0   Radius =  0.325 angstrom
                   Q00  =   0.078024

H          x =  2.185876  y = -0.823968  z =  2.078065 angstrom
           Maximum rank =  0   Radius =  0.325 angstrom
                   Q00  =   0.070745

H          x =  1.609876  y =  0.759032  z =  1.681065 angstrom
           Maximum rank =  0   Radius =  0.325 angstrom
                   Q00  =   0.087790

H          x =  3.118876  y =  0.677032  z =  3.735065 angstrom
           Maximum rank =  0   Radius =  0.325 angstrom
                   Q00  =   0.075877

H          x =  3.688828  y =  1.838662  z =  2.518421 angstrom
           Maximum rank =  0   Radius =  0.325 angstrom
                   Q00  =   0.083210

H          x =  4.459714  y =  0.198982  z =  2.667292 angstrom
           Maximum rank =  0   Radius =  0.325 angstrom
                   Q00  =   0.077367

C          x =  1.346876  y = -1.923968  z = -1.380935 angstrom
           Maximum rank =  0   Radius =  0.650 angstrom
                   Q00  =  -0.188986

C          x = -0.443124  y = -1.160968  z =  0.219065 angstrom
           Maximum rank =  0   Radius =  0.650 angstrom
                   Q00  =  -0.017144

C          x =  0.227876  y = -0.992968  z = -0.986935 angstrom
           Maximum rank =  0   Radius =  0.650 angstrom
                   Q00  =  -0.138991

C          x = -1.476124  y = -0.305968  z =  0.576065 angstrom
           Maximum rank =  0   Radius =  0.650 angstrom
                   Q00  =  -0.188453

C          x = -1.863124  y =  0.718032  z = -0.288935 angstrom
           Maximum rank =  0   Radius =  0.650 angstrom
                   Q00  =   0.279404

C          x = -0.167124  y =  0.032032  z = -1.847935 angstrom
           Maximum rank =  0   Radius =  0.650 angstrom
                   Q00  =   0.033660

C          x = -1.213124  y =  0.892032  z = -1.511935 angstrom
           Maximum rank =  0   Radius =  0.650 angstrom
                   Q00  =  -0.121439

O          x = -2.874124  y =  1.538032  z =  0.095065 angstrom
           Maximum rank =  0   Radius =  0.650 angstrom
                   Q00  =  -0.634187

H          x = -0.140124  y = -1.944968  z =  0.898065 angstrom
           Maximum rank =  0   Radius =  0.325 angstrom
                   Q00  =   0.067643

H          x = -1.972124  y = -0.430968  z =  1.528065 angstrom
           Maximum rank =  0   Radius =  0.325 angstrom
                   Q00  =   0.068811

H          x =  2.009876  y = -2.075968  z = -0.529935 angstrom
           Maximum rank =  0   Radius =  0.325 angstrom
                   Q00  =   0.095400

H          x =  1.936876  y = -1.429968  z = -2.153935 angstrom
           Maximum rank =  0   Radius =  0.325 angstrom
                   Q00  =   0.093539

H          x =  0.343876  y =  0.166032  z = -2.789935 angstrom
           Maximum rank =  0   Radius =  0.325 angstrom
                   Q00  =   0.064389

H          x = -3.153124  y =  1.338032  z =  0.992065 angstrom
           Maximum rank =  0   Radius =  0.325 angstrom
                   Q00  =   0.405268

H          x = -1.506124  y =  1.688032  z = -2.176935 angstrom
           Maximum rank =  0   Radius =  0.325 angstrom
                   Q00  =   0.081632

H          x =  0.989307  y = -2.893798  z = -1.757210 angstrom
           Maximum rank =  0   Radius =  0.325 angstrom
                   Q00  =   0.099901

Total multipoles referred to origin at
           x =   0.000000,  y =    0.000000,  z =    0.000000 angstrom
                   Q00  =  -0.000000

Finished at 9:17:50 on 27 Apr 2020

  DMA results are available in the Python driver through the
	  variable('DMA DISTRIBUTED MULTIPOLES')
  and
	  variable('DMA TOTAL MULTIPOLES')
  commands.

    Psi4 stopped on: Monday, 27 April 2020 09:17AM
    Psi4 wall time for execution: 0:05:13.19

*** Psi4 exiting successfully. Buy a developer a beer!
