                               Psi4 1.3.2 release

  ==> Input File <==

--------------------------------------------------------------------------
import numpy as np
set {scf_type pk
basis cc-pvdz
d_convergence 10
gdma_switch   0
gdma_limit    0
gdma_origin   [ 0.0,  0.0,  0.0 ]
}
molecule test {
    units Angstrom
    -1 1
    --
    -1 1
    C               -0.407730648124188    -0.851242036011197    -1.680045592597704
    C               -0.282730648124188    -1.645242036011198    -2.971045592597705
    C               -0.924730648124188     0.533757963988803    -1.927045592597705
    O               -0.192730648124188     1.459757963988803    -2.287045592597705
    O               -2.118730648124188     0.686757963988803    -1.727045592597704
    H               -1.074730648124188    -1.383242036011197    -0.996045592597705
    H                0.569269351875812    -0.791242036011197    -1.197045592597704
    H               -1.248730648124188    -1.630242036011197    -3.480045592597705
    H               -0.010422648124188    -2.682422036011197    -2.725895592597705
    H                0.481556351875812    -1.203252036011198    -3.627175592597705
    C                2.365269351875812    -1.491242036011197     1.920954407402296
    C               -0.134730648124188    -0.762242036011197     2.148954407402295
    C                1.202269351875812    -0.547242036011197     1.919954407402295
    C                0.171269351875812     1.375757963988803     1.687954407402295
    N               -0.760730648124188     0.468757963988803     2.001954407402295
    N                1.383269351875812     0.803757963988803     1.660954407402295
    H               -0.617730648124188    -1.693242036011197     2.403954407402295
    H               -1.758730648124188     0.659757963988803     2.078954407402296
    H                3.075269351875813    -1.136242036011197     2.667954407402295
    H                2.856269351875812    -1.437242036011198     0.947954407402295
    H               -0.029730648124188     2.423757963988803     1.498954407402295
    H                2.111190351875812    -2.537242036011198     2.147526407402295

}
e, wfn = energy('scf', return_wfn=True)
gdma(wfn)
dmavals = variable('DMA DISTRIBUTED MULTIPOLES')
charges = np.array(dmavals)
print(charges)
np.save('SSI-032ASP-040HIE-1-dimer.npy', np.array(charges))--------------------------------------------------------------------------

*** tstart() called on ds3
*** at Sun Apr 26 19:10:46 2020

   => Loading Basis Set <=

    Name: CC-PVDZ
    Role: ORBITAL
    Keyword: BASIS
    atoms 1-3, 11-14  entry C          line   138 file /theoryfs2/ds/metcalf/miniconda2/envs/tf2gpu/share/psi4/basis/cc-pvdz.gbs
    atoms 4-5         entry O          line   198 file /theoryfs2/ds/metcalf/miniconda2/envs/tf2gpu/share/psi4/basis/cc-pvdz.gbs
    atoms 6-10, 17-22 entry H          line    22 file /theoryfs2/ds/metcalf/miniconda2/envs/tf2gpu/share/psi4/basis/cc-pvdz.gbs
    atoms 15-16       entry N          line   168 file /theoryfs2/ds/metcalf/miniconda2/envs/tf2gpu/share/psi4/basis/cc-pvdz.gbs

         ---------------------------------------------------------
                                   SCF
               by Justin Turney, Rob Parrish, Andy Simmonett
                          and Daniel G. A. Smith
                              RHF Reference
                        1 Threads,    500 MiB Core
         ---------------------------------------------------------

  ==> Geometry <==

    Molecular point group: c1
    Full point group: C1

    Geometry (in Angstrom), charge = -1, multiplicity = 1:

       Center              X                  Y                   Z               Mass
    ------------   -----------------  -----------------  -----------------  -----------------
         C           -0.407730648124    -0.851242036011    -1.680045592598    12.000000000000
         C           -0.282730648124    -1.645242036011    -2.971045592598    12.000000000000
         C           -0.924730648124     0.533757963989    -1.927045592598    12.000000000000
         O           -0.192730648124     1.459757963989    -2.287045592598    15.994914619570
         O           -2.118730648124     0.686757963989    -1.727045592598    15.994914619570
         H           -1.074730648124    -1.383242036011    -0.996045592598     1.007825032230
         H            0.569269351876    -0.791242036011    -1.197045592598     1.007825032230
         H           -1.248730648124    -1.630242036011    -3.480045592598     1.007825032230
         H           -0.010422648124    -2.682422036011    -2.725895592598     1.007825032230
         H            0.481556351876    -1.203252036011    -3.627175592598     1.007825032230
         C            2.365269351876    -1.491242036011     1.920954407402    12.000000000000
         C           -0.134730648124    -0.762242036011     2.148954407402    12.000000000000
         C            1.202269351876    -0.547242036011     1.919954407402    12.000000000000
         C            0.171269351876     1.375757963989     1.687954407402    12.000000000000
         N           -0.760730648124     0.468757963989     2.001954407402    14.003074004430
         N            1.383269351876     0.803757963989     1.660954407402    14.003074004430
         H           -0.617730648124    -1.693242036011     2.403954407402     1.007825032230
         H           -1.758730648124     0.659757963989     2.078954407402     1.007825032230
         H            3.075269351876    -1.136242036011     2.667954407402     1.007825032230
         H            2.856269351876    -1.437242036011     0.947954407402     1.007825032230
         H           -0.029730648124     2.423757963989     1.498954407402     1.007825032230
         H            2.111190351876    -2.537242036011     2.147526407402     1.007825032230

  Running in c1 symmetry.

  Rotational constants: A =      0.05030  B =      0.02004  C =      0.01731 [cm^-1]
  Rotational constants: A =   1508.09641  B =    600.82264  C =    518.84167 [MHz]
  Nuclear repulsion =  589.001798047088641

  Charge       = -1
  Multiplicity = 1
  Electrons    = 84
  Nalpha       = 42
  Nbeta        = 42

  ==> Algorithm <==

  SCF Algorithm Type is PK.
  DIIS enabled.
  MOM disabled.
  Fractional occupation disabled.
  Guess Type is SAD.
  Energy threshold   = 1.00e-06
  Density threshold  = 1.00e-10
  Integral threshold = 0.00e+00

  ==> Primary Basis <==

  Basis Set: CC-PVDZ
    Blend: CC-PVDZ
    Number of shells: 99
    Number of basis function: 209
    Number of Cartesian functions: 220
    Spherical Harmonics?: true
    Max angular momentum: 2

  ==> Pre-Iterations <==

   -------------------------------------------------------
    Irrep   Nso     Nmo     Nalpha   Nbeta   Ndocc  Nsocc
   -------------------------------------------------------
     A        209     209       0       0       0       0
   -------------------------------------------------------
    Total     209     209      42      42      42       0
   -------------------------------------------------------

  ==> Integral Setup <==

  Using integral reordering PK algorithm.
  Sizing the integral batches needed.
  Building batch lookup table.
   Calculation information:
      Number of atoms:                  22
      Number of AO shells:              99
      Number of primitives:            297
      Number of atomic orbitals:       220
      Number of basis functions:       209

      Integral cutoff                 1.00e-12
      Number of threads:                 1

	Batch   1 pq = [       0,    9405] index = [             0,44231715] size =     44231715
	Batch   2 pq = [    9405,   13301] index = [      44231715,88464951] size =     44233236
	Batch   3 pq = [   13301,   16290] index = [      88464951,132690195] size =     44225244
	Batch   4 pq = [   16290,   18810] index = [     132690195,176917455] size =     44227260
	Batch   5 pq = [   18810,   21030] index = [     176917455,221140965] size =     44223510
	Batch   6 pq = [   21030,   21945] index = [     221140965,240802485] size =     19661520
  Task number: 22
  Buffer size: 11059200
  Buffer per thread: 2
  We computed 11157885 shell quartets total.
  Whereas there are 12253725 unique shell quartets.

  ==> DiskJK: Disk-Based J/K Matrices <==

    J tasked:                  Yes
    K tasked:                  Yes
    wK tasked:                  No
    Memory [MiB]:              375
    Schwarz Cutoff:          1E-12

    OpenMP threads:              1

  Minimum eigenvalue in the overlap matrix is 1.1999118694E-03.
  Using Symmetric Orthogonalization.

  SCF Guess: Superposition of Atomic Densities via on-the-fly atomic UHF.

  ==> Iterations <==

                        Total Energy        Delta E     RMS |[F,P]|

   @RHF iter SAD:  -528.74297856584303   -5.28743e+02   0.00000e+00
   @RHF iter   1:  -529.80825700904859   -1.06528e+00   3.83674e-03 DIIS
   @RHF iter   2:  -530.06983613737293   -2.61579e-01   2.09005e-03 DIIS
   @RHF iter   3:  -530.14315014144904   -7.33140e-02   3.73275e-04 DIIS
   @RHF iter   4:  -530.14694730872270   -3.79717e-03   1.65203e-04 DIIS
   @RHF iter   5:  -530.14764996853785   -7.02660e-04   3.15903e-05 DIIS
   @RHF iter   6:  -530.14768322313773   -3.32546e-05   1.42229e-05 DIIS
   @RHF iter   7:  -530.14768976575374   -6.54262e-06   3.63389e-06 DIIS
   @RHF iter   8:  -530.14769071681872   -9.51065e-07   1.52051e-06 DIIS
   @RHF iter   9:  -530.14769090606205   -1.89243e-07   6.45724e-07 DIIS
   @RHF iter  10:  -530.14769093714926   -3.10872e-08   1.88948e-07 DIIS
   @RHF iter  11:  -530.14769093966640   -2.51714e-09   7.83383e-08 DIIS
   @RHF iter  12:  -530.14769094003668   -3.70278e-10   3.44024e-08 DIIS
   @RHF iter  13:  -530.14769094010956   -7.28733e-11   1.27635e-08 DIIS
   @RHF iter  14:  -530.14769094011172   -2.16005e-12   4.47264e-09 DIIS
   @RHF iter  15:  -530.14769094011808   -6.36646e-12   1.97034e-09 DIIS
   @RHF iter  16:  -530.14769094011945   -1.36424e-12   8.18508e-10 DIIS
   @RHF iter  17:  -530.14769094011774    1.70530e-12   3.95546e-10 DIIS
   @RHF iter  18:  -530.14769094012195   -4.20641e-12   1.01073e-10 DIIS
   @RHF iter  19:  -530.14769094012024    1.70530e-12   4.65306e-11 DIIS
  Energy and wave function converged.

  ==> Post-Iterations <==

    Orbital Energies [Eh]
    ---------------------

    Doubly Occupied:

       1A    -20.245434     2A    -20.244776     3A    -15.511360
       4A    -15.422948     5A    -11.186909     6A    -11.147607
       7A    -11.141579     8A    -11.132754     9A    -11.095080
      10A    -11.074975    11A    -11.038529    12A     -1.222244
      13A     -1.157435    14A     -1.042933    15A     -1.034940
      16A     -0.923405    17A     -0.870309    18A     -0.839477
      19A     -0.707010    20A     -0.696761    21A     -0.652624
      22A     -0.629963    23A     -0.504878    24A     -0.504569
      25A     -0.493534    26A     -0.488750    27A     -0.450977
      28A     -0.449327    29A     -0.438114    30A     -0.427752
      31A     -0.426118    32A     -0.385322    33A     -0.368228
      34A     -0.359280    35A     -0.316518    36A     -0.308650
      37A     -0.299006    38A     -0.267702    39A     -0.199252
      40A     -0.172501    41A     -0.160734    42A     -0.152961

    Virtual:

      43A      0.281152    44A      0.290770    45A      0.298215
      46A      0.322049    47A      0.323455    48A      0.337485
      49A      0.342553    50A      0.357682    51A      0.383620
      52A      0.391745    53A      0.411556    54A      0.419038
      55A      0.457686    56A      0.466511    57A      0.478331
      58A      0.505750    59A      0.521701    60A      0.553641
      61A      0.582602    62A      0.598445    63A      0.619070
      64A      0.683387    65A      0.701442    66A      0.715676
      67A      0.723041    68A      0.732604    69A      0.757461
      70A      0.769122    71A      0.769828    72A      0.807180
      73A      0.824612    74A      0.852217    75A      0.866237
      76A      0.884235    77A      0.906125    78A      0.926748
      79A      0.946386    80A      0.957065    81A      0.975522
      82A      0.989176    83A      0.995541    84A      1.004889
      85A      1.013323    86A      1.021162    87A      1.035810
      88A      1.050440    89A      1.053757    90A      1.056009
      91A      1.067607    92A      1.073467    93A      1.082916
      94A      1.104160    95A      1.118056    96A      1.128959
      97A      1.145843    98A      1.160007    99A      1.190742
     100A      1.202271   101A      1.222833   102A      1.232287
     103A      1.251124   104A      1.274178   105A      1.307704
     106A      1.310059   107A      1.318877   108A      1.345580
     109A      1.372919   110A      1.399992   111A      1.426815
     112A      1.434122   113A      1.441925   114A      1.517087
     115A      1.521353   116A      1.536973   117A      1.549390
     118A      1.557827   119A      1.585698   120A      1.599438
     121A      1.607733   122A      1.646559   123A      1.655588
     124A      1.671445   125A      1.692065   126A      1.710367
     127A      1.718094   128A      1.737257   129A      1.768009
     130A      1.779437   131A      1.806899   132A      1.824868
     133A      1.860705   134A      1.883601   135A      1.897408
     136A      1.922276   137A      1.955966   138A      1.996965
     139A      2.009032   140A      2.027212   141A      2.033616
     142A      2.045749   143A      2.057706   144A      2.060548
     145A      2.074321   146A      2.090562   147A      2.104295
     148A      2.115968   149A      2.127115   150A      2.148896
     151A      2.163582   152A      2.170415   153A      2.197972
     154A      2.218289   155A      2.218991   156A      2.232660
     157A      2.236817   158A      2.245821   159A      2.286218
     160A      2.311777   161A      2.328170   162A      2.342155
     163A      2.393937   164A      2.416198   165A      2.457582
     166A      2.493121   167A      2.517037   168A      2.526941
     169A      2.545596   170A      2.559702   171A      2.578848
     172A      2.610493   173A      2.622181   174A      2.632733
     175A      2.705211   176A      2.729216   177A      2.751991
     178A      2.792409   179A      2.800158   180A      2.837527
     181A      2.845021   182A      2.867168   183A      2.877469
     184A      2.887495   185A      2.907975   186A      2.909570
     187A      2.955401   188A      2.977383   189A      2.984682
     190A      3.008405   191A      3.017591   192A      3.049836
     193A      3.070133   194A      3.142070   195A      3.159894
     196A      3.251167   197A      3.259117   198A      3.302743
     199A      3.316523   200A      3.350359   201A      3.388035
     202A      3.555761   203A      3.686378   204A      3.841948
     205A      3.875567   206A      3.884609   207A      4.112098
     208A      4.124863   209A      4.258963

    Final Occupation by Irrep:
              A
    DOCC [    42 ]

  @RHF Final Energy:  -530.14769094012024

   => Energetics <=

    Nuclear Repulsion Energy =            589.0017980470886414
    One-Electron Energy =               -1905.9125245322065894
    Two-Electron Energy =                 786.7630355449977060
    Total Energy =                       -530.1476909401202420

Computation Completed

Properties will be evaluated at   0.000000,   0.000000,   0.000000 [a0]

Properties computed using the SCF density matrix

  Nuclear Dipole Moment: [e a0]
     X:     4.0683      Y:   -10.6907      Z:    -0.2933

  Electronic Dipole Moment: [e a0]
     X:    -3.3469      Y:     8.6691      Z:     4.1242

  Dipole Moment: [e a0]
     X:     0.7215      Y:    -2.0216      Z:     3.8309     Total:     4.3913

  Dipole Moment: [D]
     X:     1.8338      Y:    -5.1384      Z:     9.7372     Total:    11.1615

*** tstop() called on ds3 at Sun Apr 26 19:12:44 2020
Module time:
	user time   =      85.03 seconds =       1.42 minutes
	system time =      36.86 seconds =       0.61 minutes
	total time  =        118 seconds =       1.97 minutes
Total time:
	user time   =      85.03 seconds =       1.42 minutes
	system time =      36.86 seconds =       0.61 minutes
	total time  =        118 seconds =       1.97 minutes
                                     G D M A

                                 by Anthony Stone

                           version 2.2.06, 22 June 2011

               Distributed Multipoles from Gaussian wavefunctions

Starting at 19:12:44 on 26 Apr 2020

Using SCF density matrix from file ./SSI/SSI-032ASP-040HIE-1-dimer.test.3343.fchk

                         Distributed Multipole Analysis

Standard DMA

Positions and radii in angstrom
Multipole moments in atomic units, ea_0^k for rank k

C          x = -0.407731  y = -0.851242  z = -1.680046 angstrom
           Maximum rank =  0   Radius =  0.650 angstrom
                   Q00  =  -0.082666

C          x = -0.282731  y = -1.645242  z = -2.971046 angstrom
           Maximum rank =  0   Radius =  0.650 angstrom
                   Q00  =  -0.212381

C          x = -0.924731  y =  0.533758  z = -1.927046 angstrom
           Maximum rank =  0   Radius =  0.650 angstrom
                   Q00  =   0.995661

O          x = -0.192731  y =  1.459758  z = -2.287046 angstrom
           Maximum rank =  0   Radius =  0.650 angstrom
                   Q00  =  -0.951359

O          x = -2.118731  y =  0.686758  z = -1.727046 angstrom
           Maximum rank =  0   Radius =  0.650 angstrom
                   Q00  =  -0.947174

H          x = -1.074731  y = -1.383242  z = -0.996046 angstrom
           Maximum rank =  0   Radius =  0.325 angstrom
                   Q00  =   0.016353

H          x =  0.569269  y = -0.791242  z = -1.197046 angstrom
           Maximum rank =  0   Radius =  0.325 angstrom
                   Q00  =   0.026599

H          x = -1.248731  y = -1.630242  z = -3.480046 angstrom
           Maximum rank =  0   Radius =  0.325 angstrom
                   Q00  =   0.061886

H          x = -0.010423  y = -2.682422  z = -2.725896 angstrom
           Maximum rank =  0   Radius =  0.325 angstrom
                   Q00  =   0.023485

H          x =  0.481556  y = -1.203252  z = -3.627176 angstrom
           Maximum rank =  0   Radius =  0.325 angstrom
                   Q00  =   0.069485

C          x =  2.365269  y = -1.491242  z =  1.920954 angstrom
           Maximum rank =  0   Radius =  0.650 angstrom
                   Q00  =  -0.196636

C          x = -0.134731  y = -0.762242  z =  2.148954 angstrom
           Maximum rank =  0   Radius =  0.650 angstrom
                   Q00  =  -0.000520

C          x =  1.202269  y = -0.547242  z =  1.919954 angstrom
           Maximum rank =  0   Radius =  0.650 angstrom
                   Q00  =   0.223162

C          x =  0.171269  y =  1.375758  z =  1.687954 angstrom
           Maximum rank =  0   Radius =  0.650 angstrom
                   Q00  =   0.476305

N          x = -0.760731  y =  0.468758  z =  2.001954 angstrom
           Maximum rank =  0   Radius =  0.650 angstrom
                   Q00  =  -0.469861

N          x =  1.383269  y =  0.803758  z =  1.660954 angstrom
           Maximum rank =  0   Radius =  0.650 angstrom
                   Q00  =  -0.763039

H          x = -0.617731  y = -1.693242  z =  2.403954 angstrom
           Maximum rank =  0   Radius =  0.325 angstrom
                   Q00  =   0.087249

H          x = -1.758731  y =  0.659758  z =  2.078954 angstrom
           Maximum rank =  0   Radius =  0.325 angstrom
                   Q00  =   0.228802

H          x =  3.075269  y = -1.136242  z =  2.667954 angstrom
           Maximum rank =  0   Radius =  0.325 angstrom
                   Q00  =   0.091445

H          x =  2.856269  y = -1.437242  z =  0.947954 angstrom
           Maximum rank =  0   Radius =  0.325 angstrom
                   Q00  =   0.115030

H          x = -0.029731  y =  2.423758  z =  1.498954 angstrom
           Maximum rank =  0   Radius =  0.325 angstrom
                   Q00  =   0.128720

H          x =  2.111190  y = -2.537242  z =  2.147526 angstrom
           Maximum rank =  0   Radius =  0.325 angstrom
                   Q00  =   0.079455

Total multipoles referred to origin at
           x =   0.000000,  y =    0.000000,  z =    0.000000 angstrom
                   Q00  =  -1.000000

Finished at 19:12:44 on 26 Apr 2020

  DMA results are available in the Python driver through the
	  variable('DMA DISTRIBUTED MULTIPOLES')
  and
	  variable('DMA TOTAL MULTIPOLES')
  commands.

    Psi4 stopped on: Sunday, 26 April 2020 07:12PM
    Psi4 wall time for execution: 0:01:58.16

*** Psi4 exiting successfully. Buy a developer a beer!
