                               Psi4 1.3.2 release

  ==> Input File <==

--------------------------------------------------------------------------
import numpy as np
set {scf_type pk
basis cc-pvdz
d_convergence 10
gdma_switch   0
gdma_limit    0
gdma_origin   [ 0.0,  0.0,  0.0 ]
}
molecule test {
    units Angstrom
    0 1
    --
    0 1
    C               -3.030037915786098     2.132387631241621    -0.171043639000373
    C               -1.808037915786098     1.345387631241621    -0.590043639000373
    O               -0.891037915786098     1.119387631241621     0.200956360999627
    N               -1.790037915786098     0.905387631241621    -1.841043639000373
    H               -3.164037915786098     2.969387631241621    -0.858043639000373
    H               -2.857037915786097     2.543387631241621     0.819956360999627
    H               -0.978037915786098     0.388387631241621    -2.144043639000373
    H               -2.534037915786098     1.135387631241621    -2.483043639000373
    H               -3.936077915786098     1.508807631241621    -0.186252639000373
    C                2.407962084213902    -2.709612368758379     0.834956360999627
    C                1.837962084213902    -1.329612368758379     0.561956360999627
    O                1.236962084213902    -1.084612368758379    -0.484043639000373
    N                2.022962084213902    -0.413612368758379     1.503956360999627
    H                1.865962084213902    -3.123612368758379     1.684956360999627
    H                3.458962084213902    -2.615612368758379     1.109956360999627
    H                1.615962084213902     0.498387631241621     1.352956360999627
    H                2.531962084213903    -0.630612368758379     2.346956360999627
    H                2.320632084213903    -3.373632368758380    -0.037653639000373

}
e, wfn = energy('scf', return_wfn=True)
gdma(wfn)
dmavals = variable('DMA DISTRIBUTED MULTIPOLES')
charges = np.array(dmavals)
print(charges)
np.save('SSI-016GLN-101GLN-1-dimer.npy', np.array(charges))--------------------------------------------------------------------------

*** tstart() called on ds3
*** at Mon Apr 27 23:36:35 2020

   => Loading Basis Set <=

    Name: CC-PVDZ
    Role: ORBITAL
    Keyword: BASIS
    atoms 1-2, 10-11 entry C          line   138 file /theoryfs2/ds/metcalf/miniconda2/envs/tf2gpu/share/psi4/basis/cc-pvdz.gbs
    atoms 3, 12      entry O          line   198 file /theoryfs2/ds/metcalf/miniconda2/envs/tf2gpu/share/psi4/basis/cc-pvdz.gbs
    atoms 4, 13      entry N          line   168 file /theoryfs2/ds/metcalf/miniconda2/envs/tf2gpu/share/psi4/basis/cc-pvdz.gbs
    atoms 5-9, 14-18 entry H          line    22 file /theoryfs2/ds/metcalf/miniconda2/envs/tf2gpu/share/psi4/basis/cc-pvdz.gbs

         ---------------------------------------------------------
                                   SCF
               by Justin Turney, Rob Parrish, Andy Simmonett
                          and Daniel G. A. Smith
                              RHF Reference
                        1 Threads,    500 MiB Core
         ---------------------------------------------------------

  ==> Geometry <==

    Molecular point group: c1
    Full point group: C1

    Geometry (in Angstrom), charge = 0, multiplicity = 1:

       Center              X                  Y                   Z               Mass
    ------------   -----------------  -----------------  -----------------  -----------------
         C           -3.030037915786     2.132387631242    -0.171043639000    12.000000000000
         C           -1.808037915786     1.345387631242    -0.590043639000    12.000000000000
         O           -0.891037915786     1.119387631242     0.200956361000    15.994914619570
         N           -1.790037915786     0.905387631242    -1.841043639000    14.003074004430
         H           -3.164037915786     2.969387631242    -0.858043639000     1.007825032230
         H           -2.857037915786     2.543387631242     0.819956361000     1.007825032230
         H           -0.978037915786     0.388387631242    -2.144043639000     1.007825032230
         H           -2.534037915786     1.135387631242    -2.483043639000     1.007825032230
         H           -3.936077915786     1.508807631242    -0.186252639000     1.007825032230
         C            2.407962084214    -2.709612368758     0.834956361000    12.000000000000
         C            1.837962084214    -1.329612368758     0.561956361000    12.000000000000
         O            1.236962084214    -1.084612368758    -0.484043639000    15.994914619570
         N            2.022962084214    -0.413612368758     1.503956361000    14.003074004430
         H            1.865962084214    -3.123612368758     1.684956361000     1.007825032230
         H            3.458962084214    -2.615612368758     1.109956361000     1.007825032230
         H            1.615962084214     0.498387631242     1.352956361000     1.007825032230
         H            2.531962084214    -0.630612368758     2.346956361000     1.007825032230
         H            2.320632084214    -3.373632368758    -0.037653639000     1.007825032230

  Running in c1 symmetry.

  Rotational constants: A =      0.15781  B =      0.02131  C =      0.01952 [cm^-1]
  Rotational constants: A =   4731.13499  B =    638.90388  C =    585.25837 [MHz]
  Nuclear repulsion =  356.648757012066028

  Charge       = 0
  Multiplicity = 1
  Electrons    = 64
  Nalpha       = 32
  Nbeta        = 32

  ==> Algorithm <==

  SCF Algorithm Type is PK.
  DIIS enabled.
  MOM disabled.
  Fractional occupation disabled.
  Guess Type is SAD.
  Energy threshold   = 1.00e-06
  Density threshold  = 1.00e-10
  Integral threshold = 0.00e+00

  ==> Primary Basis <==

  Basis Set: CC-PVDZ
    Blend: CC-PVDZ
    Number of shells: 78
    Number of basis function: 162
    Number of Cartesian functions: 170
    Spherical Harmonics?: true
    Max angular momentum: 2

  ==> Pre-Iterations <==

   -------------------------------------------------------
    Irrep   Nso     Nmo     Nalpha   Nbeta   Ndocc  Nsocc
   -------------------------------------------------------
     A        162     162       0       0       0       0
   -------------------------------------------------------
    Total     162     162      32      32      32       0
   -------------------------------------------------------

  ==> Integral Setup <==

  Using integral reordering PK algorithm.
  Sizing the integral batches needed.
  Building batch lookup table.
   Calculation information:
      Number of atoms:                  18
      Number of AO shells:              78
      Number of primitives:            226
      Number of atomic orbitals:       170
      Number of basis functions:       162

      Integral cutoff                 1.00e-12
      Number of threads:                 1

	Batch   1 pq = [       0,    9405] index = [             0,44231715] size =     44231715
	Batch   2 pq = [    9405,   13203] index = [      44231715,87166206] size =     42934491
  Task number: 8
  Buffer size: 11059200
  Buffer per thread: 2
  We computed 3174241 shell quartets total.
  Whereas there are 4747821 unique shell quartets.

  ==> DiskJK: Disk-Based J/K Matrices <==

    J tasked:                  Yes
    K tasked:                  Yes
    wK tasked:                  No
    Memory [MiB]:              375
    Schwarz Cutoff:          1E-12

    OpenMP threads:              1

  Minimum eigenvalue in the overlap matrix is 4.6359274096E-03.
  Using Symmetric Orthogonalization.

  SCF Guess: Superposition of Atomic Densities via on-the-fly atomic UHF.

  ==> Iterations <==

                        Total Energy        Delta E     RMS |[F,P]|

   @RHF iter SAD:  -414.49289527663660   -4.14493e+02   0.00000e+00
   @RHF iter   1:  -415.69189819755820   -1.19900e+00   4.73251e-03 DIIS
   @RHF iter   2:  -415.90663139373834   -2.14733e-01   2.88237e-03 DIIS
   @RHF iter   3:  -415.98456457433275   -7.79332e-02   5.33991e-04 DIIS
   @RHF iter   4:  -415.98903255155835   -4.46798e-03   2.00141e-04 DIIS
   @RHF iter   5:  -415.98979989095824   -7.67339e-04   3.79060e-05 DIIS
   @RHF iter   6:  -415.98985354071084   -5.36498e-05   1.92230e-05 DIIS
   @RHF iter   7:  -415.98986362142796   -1.00807e-05   7.32483e-06 DIIS
   @RHF iter   8:  -415.98986563972664   -2.01830e-06   2.21869e-06 DIIS
   @RHF iter   9:  -415.98986583441894   -1.94692e-07   5.64116e-07 DIIS
   @RHF iter  10:  -415.98986584262423   -8.20529e-09   2.91773e-07 DIIS
   @RHF iter  11:  -415.98986584403565   -1.41142e-09   5.03062e-08 DIIS
   @RHF iter  12:  -415.98986584411426   -7.86144e-11   1.34138e-08 DIIS
   @RHF iter  13:  -415.98986584411915   -4.88853e-12   3.56028e-09 DIIS
   @RHF iter  14:  -415.98986584411892    2.27374e-13   1.38098e-09 DIIS
   @RHF iter  15:  -415.98986584411813    7.95808e-13   4.18153e-10 DIIS
   @RHF iter  16:  -415.98986584411682    1.30740e-12   1.78837e-10 DIIS
   @RHF iter  17:  -415.98986584411955   -2.72848e-12   8.34263e-11 DIIS
  Energy and wave function converged.

  ==> Post-Iterations <==

    Orbital Energies [Eh]
    ---------------------

    Doubly Occupied:

       1A    -20.492329     2A    -20.485288     3A    -15.573192
       4A    -15.566987     5A    -11.336166     6A    -11.330195
       7A    -11.233826     8A    -11.230363     9A     -1.353290
      10A     -1.346622    11A     -1.202576    12A     -1.196142
      13A     -0.991932    14A     -0.986134    15A     -0.785943
      16A     -0.779119    17A     -0.713516    18A     -0.707598
      19A     -0.643519    20A     -0.635606    21A     -0.603854
      22A     -0.599413    23A     -0.558939    24A     -0.551338
      25A     -0.549239    26A     -0.545906    27A     -0.511128
      28A     -0.504824    29A     -0.402538    30A     -0.390460
      31A     -0.386766    32A     -0.382365

    Virtual:

      33A      0.175601    34A      0.180439    35A      0.207816
      36A      0.216617    37A      0.228854    38A      0.235155
      39A      0.254216    40A      0.257941    41A      0.273707
      42A      0.281079    43A      0.285387    44A      0.288573
      45A      0.389995    46A      0.393948    47A      0.461817
      48A      0.501706    49A      0.559143    50A      0.562798
      51A      0.637478    52A      0.646878    53A      0.648591
      54A      0.655803    55A      0.705234    56A      0.717920
      57A      0.733635    58A      0.748591    59A      0.751279
      60A      0.755271    61A      0.761193    62A      0.768562
      63A      0.855741    64A      0.860718    65A      0.862842
      66A      0.869116    67A      0.896773    68A      0.901198
      69A      0.915348    70A      0.927181    71A      0.944189
      72A      0.963765    73A      1.012277    74A      1.024093
      75A      1.027724    76A      1.032328    77A      1.062884
      78A      1.075152    79A      1.142089    80A      1.143546
      81A      1.170208    82A      1.233333    83A      1.312743
      84A      1.346203    85A      1.356547    86A      1.369609
      87A      1.380453    88A      1.392360    89A      1.402688
      90A      1.415008    91A      1.423501    92A      1.447847
      93A      1.476265    94A      1.516308    95A      1.526970
      96A      1.546023    97A      1.654223    98A      1.665768
      99A      1.667896   100A      1.676031   101A      1.718847
     102A      1.741037   103A      1.807905   104A      1.820614
     105A      1.861705   106A      1.880017   107A      1.889648
     108A      1.895385   109A      1.912172   110A      1.915137
     111A      1.933509   112A      1.938737   113A      1.960441
     114A      1.966986   115A      1.989738   116A      2.003278
     117A      2.048334   118A      2.058687   119A      2.104063
     120A      2.118422   121A      2.150410   122A      2.151612
     123A      2.226472   124A      2.248363   125A      2.268440
     126A      2.269912   127A      2.419720   128A      2.428252
     129A      2.454067   130A      2.457038   131A      2.502347
     132A      2.515710   133A      2.572115   134A      2.576488
     135A      2.597850   136A      2.599447   137A      2.623450
     138A      2.635810   139A      2.715836   140A      2.726888
     141A      2.752143   142A      2.756596   143A      2.793496
     144A      2.803697   145A      2.875915   146A      2.897718
     147A      3.004335   148A      3.008549   149A      3.101042
     150A      3.106808   151A      3.152509   152A      3.156928
     153A      3.302517   154A      3.316209   155A      3.516279
     156A      3.528369   157A      3.543047   158A      3.547679
     159A      3.862301   160A      3.881477   161A      3.926269
     162A      3.939130

    Final Occupation by Irrep:
              A
    DOCC [    32 ]

  @RHF Final Energy:  -415.98986584411955

   => Energetics <=

    Nuclear Repulsion Energy =            356.6487570120660280
    One-Electron Energy =               -1276.1230233712701647
    Two-Electron Energy =                 503.4844005150846442
    Total Energy =                       -415.9898658441195494

Computation Completed

Properties will be evaluated at   0.000000,   0.000000,   0.000000 [a0]

Properties computed using the SCF density matrix

  Nuclear Dipole Moment: [e a0]
     X:    -1.5700      Y:    -0.6572      Z:     1.5050

  Electronic Dipole Moment: [e a0]
     X:     1.2302      Y:     0.8335      Z:    -1.3225

  Dipole Moment: [e a0]
     X:    -0.3398      Y:     0.1763      Z:     0.1824     Total:     0.4241

  Dipole Moment: [D]
     X:    -0.8637      Y:     0.4480      Z:     0.4637     Total:     1.0778

*** tstop() called on ds3 at Mon Apr 27 23:37:20 2020
Module time:
	user time   =      31.28 seconds =       0.52 minutes
	system time =      15.94 seconds =       0.27 minutes
	total time  =         45 seconds =       0.75 minutes
Total time:
	user time   =      31.28 seconds =       0.52 minutes
	system time =      15.94 seconds =       0.27 minutes
	total time  =         45 seconds =       0.75 minutes
                                     G D M A

                                 by Anthony Stone

                           version 2.2.06, 22 June 2011

               Distributed Multipoles from Gaussian wavefunctions

Starting at 23:37:21 on 27 Apr 2020

Using SCF density matrix from file ./SSI/SSI-016GLN-101GLN-1-dimer.test.3432.fchk

                         Distributed Multipole Analysis

Standard DMA

Positions and radii in angstrom
Multipole moments in atomic units, ea_0^k for rank k

C          x = -3.030038  y =  2.132388  z = -0.171044 angstrom
           Maximum rank =  0   Radius =  0.650 angstrom
                   Q00  =  -0.263212

C          x = -1.808038  y =  1.345388  z = -0.590044 angstrom
           Maximum rank =  0   Radius =  0.650 angstrom
                   Q00  =   0.826877

O          x = -0.891038  y =  1.119388  z =  0.200956 angstrom
           Maximum rank =  0   Radius =  0.650 angstrom
                   Q00  =  -0.793944

N          x = -1.790038  y =  0.905388  z = -1.841044 angstrom
           Maximum rank =  0   Radius =  0.650 angstrom
                   Q00  =  -0.541272

H          x = -3.164038  y =  2.969388  z = -0.858044 angstrom
           Maximum rank =  0   Radius =  0.325 angstrom
                   Q00  =   0.096465

H          x = -2.857038  y =  2.543388  z =  0.819956 angstrom
           Maximum rank =  0   Radius =  0.325 angstrom
                   Q00  =   0.123322

H          x = -0.978038  y =  0.388388  z = -2.144044 angstrom
           Maximum rank =  0   Radius =  0.325 angstrom
                   Q00  =   0.239870

H          x = -2.534038  y =  1.135388  z = -2.483044 angstrom
           Maximum rank =  0   Radius =  0.325 angstrom
                   Q00  =   0.200406

H          x = -3.936078  y =  1.508808  z = -0.186253 angstrom
           Maximum rank =  0   Radius =  0.325 angstrom
                   Q00  =   0.111874

C          x =  2.407962  y = -2.709612  z =  0.834956 angstrom
           Maximum rank =  0   Radius =  0.650 angstrom
                   Q00  =  -0.256633

C          x =  1.837962  y = -1.329612  z =  0.561956 angstrom
           Maximum rank =  0   Radius =  0.650 angstrom
                   Q00  =   0.816566

O          x =  1.236962  y = -1.084612  z = -0.484044 angstrom
           Maximum rank =  0   Radius =  0.650 angstrom
                   Q00  =  -0.786771

N          x =  2.022962  y = -0.413612  z =  1.503956 angstrom
           Maximum rank =  0   Radius =  0.650 angstrom
                   Q00  =  -0.541144

H          x =  1.865962  y = -3.123612  z =  1.684956 angstrom
           Maximum rank =  0   Radius =  0.325 angstrom
                   Q00  =   0.106828

H          x =  3.458962  y = -2.615612  z =  1.109956 angstrom
           Maximum rank =  0   Radius =  0.325 angstrom
                   Q00  =   0.093890

H          x =  1.615962  y =  0.498388  z =  1.352956 angstrom
           Maximum rank =  0   Radius =  0.325 angstrom
                   Q00  =   0.244098

H          x =  2.531962  y = -0.630612  z =  2.346956 angstrom
           Maximum rank =  0   Radius =  0.325 angstrom
                   Q00  =   0.197886

H          x =  2.320632  y = -3.373632  z = -0.037654 angstrom
           Maximum rank =  0   Radius =  0.325 angstrom
                   Q00  =   0.124894

Total multipoles referred to origin at
           x =   0.000000,  y =    0.000000,  z =    0.000000 angstrom
                   Q00  =  -0.000000

Finished at 23:37:21 on 27 Apr 2020

  DMA results are available in the Python driver through the
	  variable('DMA DISTRIBUTED MULTIPOLES')
  and
	  variable('DMA TOTAL MULTIPOLES')
  commands.

    Psi4 stopped on: Monday, 27 April 2020 11:37PM
    Psi4 wall time for execution: 0:00:45.47

*** Psi4 exiting successfully. Buy a developer a beer!
