                               Psi4 1.3.2 release

  ==> Input File <==

--------------------------------------------------------------------------
import numpy as np
set {scf_type pk
basis cc-pvdz
d_convergence 10
gdma_switch   0
gdma_limit    0
gdma_origin   [ 0.0,  0.0,  0.0 ]
}
molecule test {
    units Angstrom
    0 1
    --
    0 1
    C               -1.541103359153066     1.250921103657719    -0.314000966844966
    C               -1.289103359153066     1.958921103657719    -1.646000966844966
    C               -1.621103359153066     2.094921103657719     0.956999033155034
    H               -2.481103359153066     0.708921103657719    -0.413000966844966
    H               -0.767103359153065     0.522921103657719    -0.160000966844966
    H               -0.286103359153065     2.385921103657719    -1.619000966844967
    H               -2.373103359153066     2.872921103657719     0.831999033155034
    H               -2.050993359153066     2.735901103657719    -1.806677966844966
    H               -1.312253359153066     1.213011103657719    -2.454132966844967
    H               -1.928973359153066     1.457491103657719     1.798958033155034
    H               -0.647273359153065     2.562271103657718     1.164952033155034
    C                1.118896640846935    -1.330078896342281     0.392999033155034
    C                0.775896640846935    -2.765078896342282     0.787999033155033
    C                2.521896640846935    -1.197078896342281    -0.187000966844966
    H                0.430896640846935    -1.057078896342281    -0.393000966844966
    H                1.007896640846934    -0.663078896342282     1.248999033155034
    H                1.558896640846934    -3.143078896342281     1.445999033155033
    H                3.188896640846935    -1.441078896342281     0.644999033155033
    H                2.785896640846935    -1.940078896342281    -0.925000966844967
    H                0.696086640846934    -3.401328896342282    -0.105764966844966
    H               -0.172083359153065    -2.793198896342281     1.345255033155033
    H                2.762636640846935    -0.169588896342281    -0.497349966844966

}
e, wfn = energy('scf', return_wfn=True)
gdma(wfn)
dmavals = variable('DMA DISTRIBUTED MULTIPOLES')
charges = np.array(dmavals)
print(charges)
np.save('SSI-045LEU-049GLU-1-dimer.npy', np.array(charges))--------------------------------------------------------------------------

*** tstart() called on ds3
*** at Tue Apr 28 15:25:06 2020

   => Loading Basis Set <=

    Name: CC-PVDZ
    Role: ORBITAL
    Keyword: BASIS
    atoms 1-3, 12-14  entry C          line   138 file /theoryfs2/ds/metcalf/miniconda2/envs/tf2gpu/share/psi4/basis/cc-pvdz.gbs
    atoms 4-11, 15-22 entry H          line    22 file /theoryfs2/ds/metcalf/miniconda2/envs/tf2gpu/share/psi4/basis/cc-pvdz.gbs

         ---------------------------------------------------------
                                   SCF
               by Justin Turney, Rob Parrish, Andy Simmonett
                          and Daniel G. A. Smith
                              RHF Reference
                        1 Threads,    500 MiB Core
         ---------------------------------------------------------

  ==> Geometry <==

    Molecular point group: c1
    Full point group: C1

    Geometry (in Angstrom), charge = 0, multiplicity = 1:

       Center              X                  Y                   Z               Mass
    ------------   -----------------  -----------------  -----------------  -----------------
         C           -1.541103359153     1.250921103658    -0.314000966845    12.000000000000
         C           -1.289103359153     1.958921103658    -1.646000966845    12.000000000000
         C           -1.621103359153     2.094921103658     0.956999033155    12.000000000000
         H           -2.481103359153     0.708921103658    -0.413000966845     1.007825032230
         H           -0.767103359153     0.522921103658    -0.160000966845     1.007825032230
         H           -0.286103359153     2.385921103658    -1.619000966845     1.007825032230
         H           -2.373103359153     2.872921103658     0.831999033155     1.007825032230
         H           -2.050993359153     2.735901103658    -1.806677966845     1.007825032230
         H           -1.312253359153     1.213011103658    -2.454132966845     1.007825032230
         H           -1.928973359153     1.457491103658     1.798958033155     1.007825032230
         H           -0.647273359153     2.562271103658     1.164952033155     1.007825032230
         C            1.118896640847    -1.330078896342     0.392999033155    12.000000000000
         C            0.775896640847    -2.765078896342     0.787999033155    12.000000000000
         C            2.521896640847    -1.197078896342    -0.187000966845    12.000000000000
         H            0.430896640847    -1.057078896342    -0.393000966845     1.007825032230
         H            1.007896640847    -0.663078896342     1.248999033155     1.007825032230
         H            1.558896640847    -3.143078896342     1.445999033155     1.007825032230
         H            3.188896640847    -1.441078896342     0.644999033155     1.007825032230
         H            2.785896640847    -1.940078896342    -0.925000966845     1.007825032230
         H            0.696086640847    -3.401328896342    -0.105764966845     1.007825032230
         H           -0.172083359153    -2.793198896342     1.345255033155     1.007825032230
         H            2.762636640847    -0.169588896342    -0.497349966845     1.007825032230

  Running in c1 symmetry.

  Rotational constants: A =      0.13378  B =      0.03105  C =      0.02876 [cm^-1]
  Rotational constants: A =   4010.50000  B =    930.76969  C =    862.18275 [MHz]
  Nuclear repulsion =  238.706374926075028

  Charge       = 0
  Multiplicity = 1
  Electrons    = 52
  Nalpha       = 26
  Nbeta        = 26

  ==> Algorithm <==

  SCF Algorithm Type is PK.
  DIIS enabled.
  MOM disabled.
  Fractional occupation disabled.
  Guess Type is SAD.
  Energy threshold   = 1.00e-06
  Density threshold  = 1.00e-10
  Integral threshold = 0.00e+00

  ==> Primary Basis <==

  Basis Set: CC-PVDZ
    Blend: CC-PVDZ
    Number of shells: 84
    Number of basis function: 164
    Number of Cartesian functions: 170
    Spherical Harmonics?: true
    Max angular momentum: 2

  ==> Pre-Iterations <==

   -------------------------------------------------------
    Irrep   Nso     Nmo     Nalpha   Nbeta   Ndocc  Nsocc
   -------------------------------------------------------
     A        164     164       0       0       0       0
   -------------------------------------------------------
    Total     164     164      26      26      26       0
   -------------------------------------------------------

  ==> Integral Setup <==

  Using integral reordering PK algorithm.
  Sizing the integral batches needed.
  Building batch lookup table.
   Calculation information:
      Number of atoms:                  22
      Number of AO shells:              84
      Number of primitives:            212
      Number of atomic orbitals:       170
      Number of basis functions:       164

      Integral cutoff                 1.00e-12
      Number of threads:                 1

	Batch   1 pq = [       0,    9405] index = [             0,44231715] size =     44231715
	Batch   2 pq = [    9405,   13530] index = [      44231715,91537215] size =     47305500
  Task number: 9
  Buffer size: 11059200
  Buffer per thread: 2
  We computed 5425435 shell quartets total.
  Whereas there are 6374235 unique shell quartets.

  ==> DiskJK: Disk-Based J/K Matrices <==

    J tasked:                  Yes
    K tasked:                  Yes
    wK tasked:                  No
    Memory [MiB]:              375
    Schwarz Cutoff:          1E-12

    OpenMP threads:              1

  Minimum eigenvalue in the overlap matrix is 4.9476243569E-03.
  Using Symmetric Orthogonalization.

  SCF Guess: Superposition of Atomic Densities via on-the-fly atomic UHF.

  ==> Iterations <==

                        Total Energy        Delta E     RMS |[F,P]|

   @RHF iter SAD:  -235.40212180572360   -2.35402e+02   0.00000e+00
   @RHF iter   1:  -236.31065846503247   -9.08537e-01   3.48767e-03 DIIS
   @RHF iter   2:  -236.49726937888454   -1.86611e-01   1.50371e-03 DIIS
   @RHF iter   3:  -236.53010231608857   -3.28329e-02   3.04936e-04 DIIS
   @RHF iter   4:  -236.53271604990755   -2.61373e-03   4.91792e-05 DIIS
   @RHF iter   5:  -236.53276828336698   -5.22335e-05   1.39025e-05 DIIS
   @RHF iter   6:  -236.53277269058887   -4.40722e-06   2.25905e-06 DIIS
   @RHF iter   7:  -236.53277282285705   -1.32268e-07   4.46954e-07 DIIS
   @RHF iter   8:  -236.53277282949114   -6.63408e-09   8.78525e-08 DIIS
   @RHF iter   9:  -236.53277282977299   -2.81858e-10   2.19076e-08 DIIS
   @RHF iter  10:  -236.53277282978783   -1.48361e-11   6.58867e-09 DIIS
   @RHF iter  11:  -236.53277282978763    1.98952e-13   1.45645e-09 DIIS
   @RHF iter  12:  -236.53277282978939   -1.76215e-12   3.56575e-10 DIIS
   @RHF iter  13:  -236.53277282978848    9.09495e-13   6.97445e-11 DIIS
  Energy and wave function converged.

  ==> Post-Iterations <==

    Orbital Energies [Eh]
    ---------------------

    Doubly Occupied:

       1A    -11.219543     2A    -11.218466     3A    -11.217547
       4A    -11.216847     5A    -11.215496     6A    -11.212883
       7A     -1.057287     8A     -1.050534     9A     -0.926395
      10A     -0.925239    11A     -0.802331    12A     -0.790518
      13A     -0.631531    14A     -0.625544    15A     -0.597400
      16A     -0.590613    17A     -0.554018    18A     -0.548696
      19A     -0.535918    20A     -0.525974    21A     -0.481259
      22A     -0.475848    23A     -0.474662    24A     -0.473223
      25A     -0.459235    26A     -0.448062

    Virtual:

      27A      0.166432    28A      0.193478    29A      0.207215
      30A      0.214920    31A      0.233838    32A      0.247171
      33A      0.248362    34A      0.255867    35A      0.266748
      36A      0.274200    37A      0.290051    38A      0.290803
      39A      0.300542    40A      0.304198    41A      0.307493
      42A      0.344622    43A      0.366707    44A      0.398635
      45A      0.422750    46A      0.434722    47A      0.568422
      48A      0.579253    49A      0.593880    50A      0.606949
      51A      0.614083    52A      0.619788    53A      0.625604
      54A      0.637375    55A      0.646650    56A      0.745212
      57A      0.779167    58A      0.796516    59A      0.800237
      60A      0.821207    61A      0.846454    62A      0.865746
      63A      0.876282    64A      0.885323    65A      0.887698
      66A      0.891194    67A      0.895419    68A      0.898264
      69A      0.899483    70A      0.902925    71A      0.904534
      72A      0.907177    73A      0.918168    74A      0.936317
      75A      0.939150    76A      0.943824    77A      0.972451
      78A      0.981427    79A      0.993540    80A      1.043574
      81A      1.117394    82A      1.122375    83A      1.135096
      84A      1.158324    85A      1.207603    86A      1.342713
      87A      1.361115    88A      1.377694    89A      1.466624
      90A      1.479287    91A      1.493049    92A      1.498773
      93A      1.512675    94A      1.544197    95A      1.621840
      96A      1.666385    97A      1.670300    98A      1.676283
      99A      1.679743   100A      1.688086   101A      1.691809
     102A      1.705657   103A      1.844231   104A      1.855095
     105A      1.869801   106A      1.877100   107A      1.889062
     108A      1.895697   109A      1.910830   110A      1.916560
     111A      1.921503   112A      1.933629   113A      1.944170
     114A      1.948142   115A      1.962229   116A      1.964455
     117A      1.973353   118A      1.980523   119A      1.985098
     120A      1.996974   121A      2.005768   122A      2.013974
     123A      2.024414   124A      2.028517   125A      2.039838
     126A      2.085092   127A      2.121595   128A      2.128959
     129A      2.176324   130A      2.184887   131A      2.270769
     132A      2.279606   133A      2.284983   134A      2.308939
     135A      2.334056   136A      2.337286   137A      2.348069
     138A      2.351471   139A      2.487507   140A      2.503688
     141A      2.536449   142A      2.548200   143A      2.580073
     144A      2.594326   145A      2.612679   146A      2.621745
     147A      2.625065   148A      2.646205   149A      2.747418
     150A      2.753423   151A      2.757470   152A      2.777202
     153A      2.782094   154A      2.789065   155A      2.800497
     156A      2.816960   157A      2.918991   158A      2.936037
     159A      2.960674   160A      2.970161   161A      2.976519
     162A      2.996586   163A      3.070570   164A      3.117704

    Final Occupation by Irrep:
              A
    DOCC [    26 ]

  @RHF Final Energy:  -236.53277282978848

   => Energetics <=

    Nuclear Repulsion Energy =            238.7063749260750285
    One-Electron Energy =                -789.9281525560376167
    Two-Electron Energy =                 314.6890048001741320
    Total Energy =                       -236.5327728297884846

Computation Completed

Properties will be evaluated at   0.000000,   0.000000,   0.000000 [a0]

Properties computed using the SCF density matrix

  Nuclear Dipole Moment: [e a0]
     X:     0.3864      Y:    -0.1398      Z:     0.1005

  Electronic Dipole Moment: [e a0]
     X:    -0.3788      Y:     0.0783      Z:    -0.0849

  Dipole Moment: [e a0]
     X:     0.0077      Y:    -0.0615      Z:     0.0157     Total:     0.0639

  Dipole Moment: [D]
     X:     0.0195      Y:    -0.1563      Z:     0.0398     Total:     0.1625

*** tstop() called on ds3 at Tue Apr 28 15:25:42 2020
Module time:
	user time   =      26.07 seconds =       0.43 minutes
	system time =      10.54 seconds =       0.18 minutes
	total time  =         36 seconds =       0.60 minutes
Total time:
	user time   =      26.07 seconds =       0.43 minutes
	system time =      10.54 seconds =       0.18 minutes
	total time  =         36 seconds =       0.60 minutes
                                     G D M A

                                 by Anthony Stone

                           version 2.2.06, 22 June 2011

               Distributed Multipoles from Gaussian wavefunctions

Starting at 15:25:42 on 28 Apr 2020

Using SCF density matrix from file ./SSI/SSI-045LEU-049GLU-1-dimer.test.16482.fchk

                         Distributed Multipole Analysis

Standard DMA

Positions and radii in angstrom
Multipole moments in atomic units, ea_0^k for rank k

C          x = -1.541103  y =  1.250921  z = -0.314001 angstrom
           Maximum rank =  0   Radius =  0.650 angstrom
                   Q00  =  -0.080194

C          x = -1.289103  y =  1.958921  z = -1.646001 angstrom
           Maximum rank =  0   Radius =  0.650 angstrom
                   Q00  =  -0.246377

C          x = -1.621103  y =  2.094921  z =  0.956999 angstrom
           Maximum rank =  0   Radius =  0.650 angstrom
                   Q00  =  -0.242691

H          x = -2.481103  y =  0.708921  z = -0.413001 angstrom
           Maximum rank =  0   Radius =  0.325 angstrom
                   Q00  =   0.036092

H          x = -0.767103  y =  0.522921  z = -0.160001 angstrom
           Maximum rank =  0   Radius =  0.325 angstrom
                   Q00  =   0.055916

H          x = -0.286103  y =  2.385921  z = -1.619001 angstrom
           Maximum rank =  0   Radius =  0.325 angstrom
                   Q00  =   0.074689

H          x = -2.373103  y =  2.872921  z =  0.831999 angstrom
           Maximum rank =  0   Radius =  0.325 angstrom
                   Q00  =   0.076712

H          x = -2.050993  y =  2.735901  z = -1.806678 angstrom
           Maximum rank =  0   Radius =  0.325 angstrom
                   Q00  =   0.079532

H          x = -1.312253  y =  1.213011  z = -2.454133 angstrom
           Maximum rank =  0   Radius =  0.325 angstrom
                   Q00  =   0.084213

H          x = -1.928973  y =  1.457491  z =  1.798958 angstrom
           Maximum rank =  0   Radius =  0.325 angstrom
                   Q00  =   0.084678

H          x = -0.647273  y =  2.562271  z =  1.164952 angstrom
           Maximum rank =  0   Radius =  0.325 angstrom
                   Q00  =   0.075088

C          x =  1.118897  y = -1.330079  z =  0.392999 angstrom
           Maximum rank =  0   Radius =  0.650 angstrom
                   Q00  =  -0.065423

C          x =  0.775897  y = -2.765079  z =  0.787999 angstrom
           Maximum rank =  0   Radius =  0.650 angstrom
                   Q00  =  -0.244707

C          x =  2.521897  y = -1.197079  z = -0.187001 angstrom
           Maximum rank =  0   Radius =  0.650 angstrom
                   Q00  =  -0.232637

H          x =  0.430897  y = -1.057079  z = -0.393001 angstrom
           Maximum rank =  0   Radius =  0.325 angstrom
                   Q00  =   0.039815

H          x =  1.007897  y = -0.663079  z =  1.248999 angstrom
           Maximum rank =  0   Radius =  0.325 angstrom
                   Q00  =   0.050203

H          x =  1.558897  y = -3.143079  z =  1.445999 angstrom
           Maximum rank =  0   Radius =  0.325 angstrom
                   Q00  =   0.072565

H          x =  3.188897  y = -1.441079  z =  0.644999 angstrom
           Maximum rank =  0   Radius =  0.325 angstrom
                   Q00  =   0.063315

H          x =  2.785897  y = -1.940079  z = -0.925001 angstrom
           Maximum rank =  0   Radius =  0.325 angstrom
                   Q00  =   0.069651

H          x =  0.696087  y = -3.401329  z = -0.105765 angstrom
           Maximum rank =  0   Radius =  0.325 angstrom
                   Q00  =   0.079640

H          x = -0.172083  y = -2.793199  z =  1.345255 angstrom
           Maximum rank =  0   Radius =  0.325 angstrom
                   Q00  =   0.083639

H          x =  2.762637  y = -0.169589  z = -0.497350 angstrom
           Maximum rank =  0   Radius =  0.325 angstrom
                   Q00  =   0.086283

Total multipoles referred to origin at
           x =   0.000000,  y =    0.000000,  z =    0.000000 angstrom
                   Q00  =  -0.000000

Finished at 15:25:42 on 28 Apr 2020

  DMA results are available in the Python driver through the
	  variable('DMA DISTRIBUTED MULTIPOLES')
  and
	  variable('DMA TOTAL MULTIPOLES')
  commands.

    Psi4 stopped on: Tuesday, 28 April 2020 03:25PM
    Psi4 wall time for execution: 0:00:35.77

*** Psi4 exiting successfully. Buy a developer a beer!
