                               Psi4 1.3.2 release

  ==> Input File <==

--------------------------------------------------------------------------
import numpy as np
set {scf_type pk
basis cc-pvdz
d_convergence 10
gdma_switch   0
gdma_limit    0
gdma_origin   [ 0.0,  0.0,  0.0 ]
}
molecule test {
    units Angstrom
    0 1
    --
    0 1
    C                0.016717190495743    -1.090274661282369     1.259174748784518
    C               -1.072282809504257    -1.669274661282369     2.164174748784518
    H                0.211717190495743    -0.050274661282369     1.513174748784518
    H                0.939717190495743    -1.659274661282369     1.369174748784518
    H               -0.278282809504257    -1.159274661282369     0.212174748784518
    H               -1.385282809504257    -2.631274661282370     1.752174748784518
    H               -1.938662809504257    -0.991674661282369     2.179965748784518
    H               -0.762542809504257    -1.809804661282369     3.210267748784518
    C                0.712717190495743     0.685725338717631    -2.001825251215482
    C                0.340717190495743     2.076725338717631    -1.427825251215482
    H                1.225717190495743     0.785725338717631    -2.956825251215482
    H                1.379717190495743     0.176725338717631    -1.304825251215482
    H               -0.189282809504257     0.086725338717631    -2.130825251215482
    H                1.252717190495743     2.667725338717631    -1.335825251215482
    H               -0.029282809504257     1.912725338717631    -0.417825251215482
    H               -0.400872809504257     2.637405338717631    -2.015781251215482

}
e, wfn = energy('scf', return_wfn=True)
gdma(wfn)
dmavals = variable('DMA DISTRIBUTED MULTIPOLES')
charges = np.array(dmavals)
print(charges)
np.save('SSI-055ILE-059ILE-1-dimer.npy', np.array(charges))--------------------------------------------------------------------------

*** tstart() called on ds3
*** at Mon Apr 27 07:28:59 2020

   => Loading Basis Set <=

    Name: CC-PVDZ
    Role: ORBITAL
    Keyword: BASIS
    atoms 1-2, 9-10  entry C          line   138 file /theoryfs2/ds/metcalf/miniconda2/envs/tf2gpu/share/psi4/basis/cc-pvdz.gbs
    atoms 3-8, 11-16 entry H          line    22 file /theoryfs2/ds/metcalf/miniconda2/envs/tf2gpu/share/psi4/basis/cc-pvdz.gbs

         ---------------------------------------------------------
                                   SCF
               by Justin Turney, Rob Parrish, Andy Simmonett
                          and Daniel G. A. Smith
                              RHF Reference
                        1 Threads,    500 MiB Core
         ---------------------------------------------------------

  ==> Geometry <==

    Molecular point group: c1
    Full point group: C1

    Geometry (in Angstrom), charge = 0, multiplicity = 1:

       Center              X                  Y                   Z               Mass
    ------------   -----------------  -----------------  -----------------  -----------------
         C            0.016717190496    -1.090274661282     1.259174748785    12.000000000000
         C           -1.072282809504    -1.669274661282     2.164174748785    12.000000000000
         H            0.211717190496    -0.050274661282     1.513174748785     1.007825032230
         H            0.939717190496    -1.659274661282     1.369174748785     1.007825032230
         H           -0.278282809504    -1.159274661282     0.212174748785     1.007825032230
         H           -1.385282809504    -2.631274661282     1.752174748785     1.007825032230
         H           -1.938662809504    -0.991674661282     2.179965748785     1.007825032230
         H           -0.762542809504    -1.809804661282     3.210267748785     1.007825032230
         C            0.712717190496     0.685725338718    -2.001825251215    12.000000000000
         C            0.340717190496     2.076725338718    -1.427825251215    12.000000000000
         H            1.225717190496     0.785725338718    -2.956825251215     1.007825032230
         H            1.379717190496     0.176725338718    -1.304825251215     1.007825032230
         H           -0.189282809504     0.086725338718    -2.130825251215     1.007825032230
         H            1.252717190496     2.667725338718    -1.335825251215     1.007825032230
         H           -0.029282809504     1.912725338718    -0.417825251215     1.007825032230
         H           -0.400872809504     2.637405338718    -2.015781251215     1.007825032230

  Running in c1 symmetry.

  Rotational constants: A =      0.46451  B =      0.04984  C =      0.04760 [cm^-1]
  Rotational constants: A =  13925.65174  B =   1494.26621  C =   1427.06067 [MHz]
  Nuclear repulsion =  122.281174303479162

  Charge       = 0
  Multiplicity = 1
  Electrons    = 36
  Nalpha       = 18
  Nbeta        = 18

  ==> Algorithm <==

  SCF Algorithm Type is PK.
  DIIS enabled.
  MOM disabled.
  Fractional occupation disabled.
  Guess Type is SAD.
  Energy threshold   = 1.00e-06
  Density threshold  = 1.00e-10
  Integral threshold = 0.00e+00

  ==> Primary Basis <==

  Basis Set: CC-PVDZ
    Blend: CC-PVDZ
    Number of shells: 60
    Number of basis function: 116
    Number of Cartesian functions: 120
    Spherical Harmonics?: true
    Max angular momentum: 2

  ==> Pre-Iterations <==

   -------------------------------------------------------
    Irrep   Nso     Nmo     Nalpha   Nbeta   Ndocc  Nsocc
   -------------------------------------------------------
     A        116     116       0       0       0       0
   -------------------------------------------------------
    Total     116     116      18      18      18       0
   -------------------------------------------------------

  ==> Integral Setup <==

  Using integral reordering PK algorithm.
  Sizing the integral batches needed.
  Building batch lookup table.
   Calculation information:
      Number of atoms:                  16
      Number of AO shells:              60
      Number of primitives:            148
      Number of atomic orbitals:       120
      Number of basis functions:       116

      Integral cutoff                 1.00e-12
      Number of threads:                 1

	Batch   1 pq = [       0,    6786] index = [             0,23028291] size =     23028291
  Task number: 3
  Buffer size: 11059200
  Buffer per thread: 2
  We computed 1446359 shell quartets total.
  Whereas there are 1675365 unique shell quartets.

  ==> DiskJK: Disk-Based J/K Matrices <==

    J tasked:                  Yes
    K tasked:                  Yes
    wK tasked:                  No
    Memory [MiB]:              375
    Schwarz Cutoff:          1E-12

    OpenMP threads:              1

  Minimum eigenvalue in the overlap matrix is 7.0798566286E-03.
  Using Symmetric Orthogonalization.

  SCF Guess: Superposition of Atomic Densities via on-the-fly atomic UHF.

  ==> Iterations <==

                        Total Energy        Delta E     RMS |[F,P]|

   @RHF iter SAD:  -157.31337651596309   -1.57313e+02   0.00000e+00
   @RHF iter   1:  -158.30913999201243   -9.95763e-01   4.17621e-03 DIIS
   @RHF iter   2:  -158.44084270200563   -1.31703e-01   1.77536e-03 DIIS
   @RHF iter   3:  -158.46376535118483   -2.29226e-02   3.47774e-04 DIIS
   @RHF iter   4:  -158.46558237353827   -1.81702e-03   3.87236e-05 DIIS
   @RHF iter   5:  -158.46560583941172   -2.34659e-05   6.57468e-06 DIIS
   @RHF iter   6:  -158.46560646358739   -6.24176e-07   1.29068e-06 DIIS
   @RHF iter   7:  -158.46560647915524   -1.55678e-08   3.32460e-07 DIIS
   @RHF iter   8:  -158.46560648023424   -1.07900e-09   4.30767e-08 DIIS
   @RHF iter   9:  -158.46560648026295   -2.87059e-11   8.88109e-09 DIIS
   @RHF iter  10:  -158.46560648026465   -1.70530e-12   2.55624e-09 DIIS
   @RHF iter  11:  -158.46560648026446    1.98952e-13   7.21831e-10 DIIS
   @RHF iter  12:  -158.46560648026463   -1.70530e-13   1.50970e-10 DIIS
   @RHF iter  13:  -158.46560648026485   -2.27374e-13   2.57734e-11 DIIS
  Energy and wave function converged.

  ==> Post-Iterations <==

    Orbital Energies [Eh]
    ---------------------

    Doubly Occupied:

       1A    -11.219976     2A    -11.219220     3A    -11.218346
       4A    -11.217502     5A     -1.017932     6A     -1.012863
       7A     -0.840718     8A     -0.837740     9A     -0.600498
      10A     -0.598852    11A     -0.595183    12A     -0.589734
      13A     -0.507444    14A     -0.496826    15A     -0.489970
      16A     -0.486747    17A     -0.483484    18A     -0.480564

    Virtual:

      19A      0.171825    20A      0.197841    21A      0.222374
      22A      0.230626    23A      0.243074    24A      0.257556
      25A      0.265517    26A      0.277751    27A      0.284373
      28A      0.288105    29A      0.324361    30A      0.331171
      31A      0.388853    32A      0.412802    33A      0.572606
      34A      0.589074    35A      0.598066    36A      0.601391
      37A      0.611426    38A      0.637720    39A      0.682872
      40A      0.689908    41A      0.708877    42A      0.777429
      43A      0.834134    44A      0.857610    45A      0.884691
      46A      0.887431    47A      0.890045    48A      0.899659
      49A      0.902983    50A      0.908364    51A      0.918295
      52A      0.922870    53A      0.943710    54A      0.962334
      55A      0.976910    56A      0.993538    57A      1.119429
      58A      1.127167    59A      1.138340    60A      1.145148
      61A      1.235656    62A      1.250074    63A      1.447266
      64A      1.459199    65A      1.477703    66A      1.488283
      67A      1.577947    68A      1.587577    69A      1.686060
      70A      1.687930    71A      1.696108    72A      1.699129
      73A      1.847871    74A      1.858268    75A      1.867299
      76A      1.871456    77A      1.888833    78A      1.910580
      79A      1.929923    80A      1.942040    81A      1.944570
      82A      1.946476    83A      1.948789    84A      1.953878
      85A      1.959544    86A      1.966312    87A      1.984031
      88A      2.031079    89A      2.084679    90A      2.099890
      91A      2.125066    92A      2.144953    93A      2.295285
      94A      2.311171    95A      2.315285    96A      2.326147
      97A      2.434905    98A      2.442946    99A      2.461311
     100A      2.471816   101A      2.550133   102A      2.558142
     103A      2.578930   104A      2.587409   105A      2.756010
     106A      2.771787   107A      2.785456   108A      2.793885
     109A      2.846281   110A      2.851245   111A      2.862341
     112A      2.878406   113A      2.940061   114A      2.944946
     115A      2.957418   116A      2.976492

    Final Occupation by Irrep:
              A
    DOCC [    18 ]

  @RHF Final Energy:  -158.46560648026485

   => Energetics <=

    Nuclear Repulsion Energy =            122.2811743034791618
    One-Electron Energy =                -453.6663602665961434
    Two-Electron Energy =                 172.9195794828521571
    Total Energy =                       -158.4656064802648530

Computation Completed

Properties will be evaluated at   0.000000,   0.000000,   0.000000 [a0]

Properties computed using the SCF density matrix

  Nuclear Dipole Moment: [e a0]
     X:     0.0238      Y:    -0.0324      Z:     0.0703

  Electronic Dipole Moment: [e a0]
     X:    -0.0098      Y:     0.0220      Z:    -0.0680

  Dipole Moment: [e a0]
     X:     0.0139      Y:    -0.0104      Z:     0.0023     Total:     0.0176

  Dipole Moment: [D]
     X:     0.0355      Y:    -0.0265      Z:     0.0060     Total:     0.0447

*** tstop() called on ds3 at Mon Apr 27 07:29:10 2020
Module time:
	user time   =       8.21 seconds =       0.14 minutes
	system time =       3.76 seconds =       0.06 minutes
	total time  =         11 seconds =       0.18 minutes
Total time:
	user time   =       8.21 seconds =       0.14 minutes
	system time =       3.76 seconds =       0.06 minutes
	total time  =         11 seconds =       0.18 minutes
                                     G D M A

                                 by Anthony Stone

                           version 2.2.06, 22 June 2011

               Distributed Multipoles from Gaussian wavefunctions

Starting at 7:29:10 on 27 Apr 2020

Using SCF density matrix from file ./SSI/SSI-055ILE-059ILE-1-dimer.test.14247.fchk

                         Distributed Multipole Analysis

Standard DMA

Positions and radii in angstrom
Multipole moments in atomic units, ea_0^k for rank k

C          x =  0.016717  y = -1.090275  z =  1.259175 angstrom
           Maximum rank =  0   Radius =  0.650 angstrom
                   Q00  =  -0.240489

C          x = -1.072283  y = -1.669275  z =  2.164175 angstrom
           Maximum rank =  0   Radius =  0.650 angstrom
                   Q00  =  -0.239088

H          x =  0.211717  y = -0.050275  z =  1.513175 angstrom
           Maximum rank =  0   Radius =  0.325 angstrom
                   Q00  =   0.079354

H          x =  0.939717  y = -1.659275  z =  1.369175 angstrom
           Maximum rank =  0   Radius =  0.325 angstrom
                   Q00  =   0.078761

H          x = -0.278283  y = -1.159275  z =  0.212175 angstrom
           Maximum rank =  0   Radius =  0.325 angstrom
                   Q00  =   0.084175

H          x = -1.385283  y = -2.631275  z =  1.752175 angstrom
           Maximum rank =  0   Radius =  0.325 angstrom
                   Q00  =   0.078662

H          x = -1.938663  y = -0.991675  z =  2.179966 angstrom
           Maximum rank =  0   Radius =  0.325 angstrom
                   Q00  =   0.076570

H          x = -0.762543  y = -1.809805  z =  3.210268 angstrom
           Maximum rank =  0   Radius =  0.325 angstrom
                   Q00  =   0.081807

C          x =  0.712717  y =  0.685725  z = -2.001825 angstrom
           Maximum rank =  0   Radius =  0.650 angstrom
                   Q00  =  -0.241571

C          x =  0.340717  y =  2.076725  z = -1.427825 angstrom
           Maximum rank =  0   Radius =  0.650 angstrom
                   Q00  =  -0.245055

H          x =  1.225717  y =  0.785725  z = -2.956825 angstrom
           Maximum rank =  0   Radius =  0.325 angstrom
                   Q00  =   0.080408

H          x =  1.379717  y =  0.176725  z = -1.304825 angstrom
           Maximum rank =  0   Radius =  0.325 angstrom
                   Q00  =   0.084015

H          x = -0.189283  y =  0.086725  z = -2.130825 angstrom
           Maximum rank =  0   Radius =  0.325 angstrom
                   Q00  =   0.080063

H          x =  1.252717  y =  2.667725  z = -1.335825 angstrom
           Maximum rank =  0   Radius =  0.325 angstrom
                   Q00  =   0.078580

H          x = -0.029283  y =  1.912725  z = -0.417825 angstrom
           Maximum rank =  0   Radius =  0.325 angstrom
                   Q00  =   0.078895

H          x = -0.400873  y =  2.637405  z = -2.015781 angstrom
           Maximum rank =  0   Radius =  0.325 angstrom
                   Q00  =   0.084913

Total multipoles referred to origin at
           x =   0.000000,  y =    0.000000,  z =    0.000000 angstrom
                   Q00  =  -0.000000

Finished at 7:29:10 on 27 Apr 2020

  DMA results are available in the Python driver through the
	  variable('DMA DISTRIBUTED MULTIPOLES')
  and
	  variable('DMA TOTAL MULTIPOLES')
  commands.

    Psi4 stopped on: Monday, 27 April 2020 07:29AM
    Psi4 wall time for execution: 0:00:11.73

*** Psi4 exiting successfully. Buy a developer a beer!
