                               Psi4 1.3.2 release

  ==> Input File <==

--------------------------------------------------------------------------
import numpy as np
set {scf_type pk
basis cc-pvdz
d_convergence 10
gdma_switch   0
gdma_limit    0
gdma_origin   [ 0.0,  0.0,  0.0 ]
}
molecule test {
    units Angstrom
    0 1
    --
    0 1
    C               -0.398561668774216     0.201690203345214    -1.936825849219330
    C               -1.922561668774216     0.305690203345214    -1.970825849219330
    H               -0.001561668774216     0.899690203345214    -1.199825849219329
    H               -0.137561668774216    -0.803309796654786    -1.646825849219330
    H                0.024438331225784     0.451690203345214    -2.907825849219329
    H               -2.179561668774216     1.349690203345214    -2.155825849219330
    H               -2.343389668774216    -0.311619796654786    -2.778185849219330
    H               -2.349588668774216     0.015254203345214    -0.999595849219329
    C                0.494438331225784    -0.082309796654786     1.639174150780671
    C                1.831438331225784    -0.428309796654786     2.264174150780670
    H               -0.300561668774216    -0.236309796654786     2.367174150780671
    H                0.485438331225784     0.960690203345214     1.316174150780671
    H                0.293438331225784    -0.732309796654786     0.788174150780670
    H                1.821438331225784    -1.481309796654786     2.535174150780671
    H                2.645008331225784    -0.231385796654786     1.550504150780670
    H                1.985866331225784     0.157798203345214     3.182124150780671

}
e, wfn = energy('scf', return_wfn=True)
gdma(wfn)
dmavals = variable('DMA DISTRIBUTED MULTIPOLES')
charges = np.array(dmavals)
print(charges)
np.save('SSI-019VAL-138VAL-2-dimer.npy', np.array(charges))--------------------------------------------------------------------------

*** tstart() called on ds3
*** at Sun Apr 26 22:44:47 2020

   => Loading Basis Set <=

    Name: CC-PVDZ
    Role: ORBITAL
    Keyword: BASIS
    atoms 1-2, 9-10  entry C          line   138 file /theoryfs2/ds/metcalf/miniconda2/envs/tf2gpu/share/psi4/basis/cc-pvdz.gbs
    atoms 3-8, 11-16 entry H          line    22 file /theoryfs2/ds/metcalf/miniconda2/envs/tf2gpu/share/psi4/basis/cc-pvdz.gbs

         ---------------------------------------------------------
                                   SCF
               by Justin Turney, Rob Parrish, Andy Simmonett
                          and Daniel G. A. Smith
                              RHF Reference
                        1 Threads,    500 MiB Core
         ---------------------------------------------------------

  ==> Geometry <==

    Molecular point group: c1
    Full point group: C1

    Geometry (in Angstrom), charge = 0, multiplicity = 1:

       Center              X                  Y                   Z               Mass
    ------------   -----------------  -----------------  -----------------  -----------------
         C           -0.398561668774     0.201690203345    -1.936825849219    12.000000000000
         C           -1.922561668774     0.305690203345    -1.970825849219    12.000000000000
         H           -0.001561668774     0.899690203345    -1.199825849219     1.007825032230
         H           -0.137561668774    -0.803309796655    -1.646825849219     1.007825032230
         H            0.024438331226     0.451690203345    -2.907825849219     1.007825032230
         H           -2.179561668774     1.349690203345    -2.155825849219     1.007825032230
         H           -2.343389668774    -0.311619796655    -2.778185849219     1.007825032230
         H           -2.349588668774     0.015254203345    -0.999595849219     1.007825032230
         C            0.494438331226    -0.082309796655     1.639174150781    12.000000000000
         C            1.831438331226    -0.428309796655     2.264174150781    12.000000000000
         H           -0.300561668774    -0.236309796655     2.367174150781     1.007825032230
         H            0.485438331226     0.960690203345     1.316174150781     1.007825032230
         H            0.293438331226    -0.732309796655     0.788174150781     1.007825032230
         H            1.821438331226    -1.481309796655     2.535174150781     1.007825032230
         H            2.645008331226    -0.231385796655     1.550504150781     1.007825032230
         H            1.985866331226     0.157798203345     3.182124150781     1.007825032230

  Running in c1 symmetry.

  Rotational constants: A =      0.54500  B =      0.04875  C =      0.04637 [cm^-1]
  Rotational constants: A =  16338.57077  B =   1461.60415  C =   1390.04520 [MHz]
  Nuclear repulsion =  122.663871065347450

  Charge       = 0
  Multiplicity = 1
  Electrons    = 36
  Nalpha       = 18
  Nbeta        = 18

  ==> Algorithm <==

  SCF Algorithm Type is PK.
  DIIS enabled.
  MOM disabled.
  Fractional occupation disabled.
  Guess Type is SAD.
  Energy threshold   = 1.00e-06
  Density threshold  = 1.00e-10
  Integral threshold = 0.00e+00

  ==> Primary Basis <==

  Basis Set: CC-PVDZ
    Blend: CC-PVDZ
    Number of shells: 60
    Number of basis function: 116
    Number of Cartesian functions: 120
    Spherical Harmonics?: true
    Max angular momentum: 2

  ==> Pre-Iterations <==

   -------------------------------------------------------
    Irrep   Nso     Nmo     Nalpha   Nbeta   Ndocc  Nsocc
   -------------------------------------------------------
     A        116     116       0       0       0       0
   -------------------------------------------------------
    Total     116     116      18      18      18       0
   -------------------------------------------------------

  ==> Integral Setup <==

  Using integral reordering PK algorithm.
  Sizing the integral batches needed.
  Building batch lookup table.
   Calculation information:
      Number of atoms:                  16
      Number of AO shells:              60
      Number of primitives:            148
      Number of atomic orbitals:       120
      Number of basis functions:       116

      Integral cutoff                 1.00e-12
      Number of threads:                 1

	Batch   1 pq = [       0,    6786] index = [             0,23028291] size =     23028291
  Task number: 3
  Buffer size: 11059200
  Buffer per thread: 2
  We computed 1440414 shell quartets total.
  Whereas there are 1675365 unique shell quartets.

  ==> DiskJK: Disk-Based J/K Matrices <==

    J tasked:                  Yes
    K tasked:                  Yes
    wK tasked:                  No
    Memory [MiB]:              375
    Schwarz Cutoff:          1E-12

    OpenMP threads:              1

  Minimum eigenvalue in the overlap matrix is 7.1280507096E-03.
  Using Symmetric Orthogonalization.

  SCF Guess: Superposition of Atomic Densities via on-the-fly atomic UHF.

  ==> Iterations <==

                        Total Energy        Delta E     RMS |[F,P]|

   @RHF iter SAD:  -157.38423565436671   -1.57384e+02   0.00000e+00
   @RHF iter   1:  -158.30493060356534   -9.20695e-01   4.24125e-03 DIIS
   @RHF iter   2:  -158.43986095328074   -1.34930e-01   1.80670e-03 DIIS
   @RHF iter   3:  -158.46351981856100   -2.36589e-02   3.50537e-04 DIIS
   @RHF iter   4:  -158.46535924603307   -1.83943e-03   3.85908e-05 DIIS
   @RHF iter   5:  -158.46538265897425   -2.34129e-05   6.44820e-06 DIIS
   @RHF iter   6:  -158.46538326939933   -6.10425e-07   1.19699e-06 DIIS
   @RHF iter   7:  -158.46538328305712   -1.36578e-08   3.23477e-07 DIIS
   @RHF iter   8:  -158.46538328406069   -1.00357e-09   4.63548e-08 DIIS
   @RHF iter   9:  -158.46538328409588   -3.51861e-11   1.10241e-08 DIIS
   @RHF iter  10:  -158.46538328409764   -1.76215e-12   3.24825e-09 DIIS
   @RHF iter  11:  -158.46538328409741    2.27374e-13   8.61477e-10 DIIS
   @RHF iter  12:  -158.46538328409781   -3.97904e-13   1.77556e-10 DIIS
   @RHF iter  13:  -158.46538328409778    2.84217e-14   2.70808e-11 DIIS
  Energy and wave function converged.

  ==> Post-Iterations <==

    Orbital Energies [Eh]
    ---------------------

    Doubly Occupied:

       1A    -11.218280     2A    -11.218038     3A    -11.215300
       4A    -11.214316     5A     -1.022145     6A     -1.018234
       7A     -0.838220     8A     -0.833122     9A     -0.604131
      10A     -0.602804    11A     -0.597266    12A     -0.593778
      13A     -0.504239    14A     -0.498368    15A     -0.490058
      16A     -0.487810    17A     -0.481072    18A     -0.478732

    Virtual:

      19A      0.173977    20A      0.196351    21A      0.227034
      22A      0.235427    23A      0.238364    24A      0.256084
      25A      0.266857    26A      0.273266    27A      0.280683
      28A      0.289426    29A      0.312009    30A      0.360951
      31A      0.396689    32A      0.403761    33A      0.576131
      34A      0.591795    35A      0.598505    36A      0.603964
      37A      0.615959    38A      0.640075    39A      0.655319
      40A      0.675219    41A      0.682861    42A      0.824857
      43A      0.844636    44A      0.851701    45A      0.888019
      46A      0.890005    47A      0.892733    48A      0.897932
      49A      0.901657    50A      0.906731    51A      0.914496
      52A      0.922174    53A      0.938294    54A      0.957812
      55A      0.976056    56A      0.992771    57A      1.119781
      58A      1.126512    59A      1.141737    60A      1.164963
      61A      1.231840    62A      1.257345    63A      1.470641
      64A      1.479921    65A      1.482292    66A      1.494825
      67A      1.556257    68A      1.579963    69A      1.679762
      70A      1.682401    71A      1.694927    72A      1.707656
      73A      1.857871    74A      1.863196    75A      1.866258
      76A      1.884221    77A      1.904207    78A      1.918335
      79A      1.938202    80A      1.944594    81A      1.948624
      82A      1.953281    83A      1.955585    84A      1.961409
      85A      1.969526    86A      1.972879    87A      1.975911
      88A      2.012079    89A      2.087476    90A      2.106056
      91A      2.115601    92A      2.147736    93A      2.295377
      94A      2.298686    95A      2.314289    96A      2.317970
      97A      2.449752    98A      2.457287    99A      2.465162
     100A      2.490464   101A      2.560480   102A      2.566432
     103A      2.576713   104A      2.590830   105A      2.761540
     106A      2.764373   107A      2.787179   108A      2.813730
     109A      2.847421   110A      2.853340   111A      2.857496
     112A      2.860447   113A      2.942614   114A      2.951723
     115A      2.974412   116A      2.994722

    Final Occupation by Irrep:
              A
    DOCC [    18 ]

  @RHF Final Energy:  -158.46538328409778

   => Energetics <=

    Nuclear Repulsion Energy =            122.6638710653474504
    One-Electron Energy =                -454.4266806445339171
    Two-Electron Energy =                 173.2974262950886839
    Total Energy =                       -158.4653832840977827

Computation Completed

Properties will be evaluated at   0.000000,   0.000000,   0.000000 [a0]

Properties computed using the SCF density matrix

  Nuclear Dipole Moment: [e a0]
     X:    -0.0531      Y:     0.0362      Z:     0.0480

  Electronic Dipole Moment: [e a0]
     X:     0.0550      Y:    -0.0372      Z:    -0.0416

  Dipole Moment: [e a0]
     X:     0.0019      Y:    -0.0011      Z:     0.0064     Total:     0.0068

  Dipole Moment: [D]
     X:     0.0048      Y:    -0.0027      Z:     0.0164     Total:     0.0173

*** tstop() called on ds3 at Sun Apr 26 22:45:07 2020
Module time:
	user time   =       7.37 seconds =       0.12 minutes
	system time =       2.78 seconds =       0.05 minutes
	total time  =         20 seconds =       0.33 minutes
Total time:
	user time   =       7.37 seconds =       0.12 minutes
	system time =       2.78 seconds =       0.05 minutes
	total time  =         20 seconds =       0.33 minutes
                                     G D M A

                                 by Anthony Stone

                           version 2.2.06, 22 June 2011

               Distributed Multipoles from Gaussian wavefunctions

Starting at 22:45:7 on 26 Apr 2020

Using SCF density matrix from file ./SSI/SSI-019VAL-138VAL-2-dimer.test.18746.fchk

                         Distributed Multipole Analysis

Standard DMA

Positions and radii in angstrom
Multipole moments in atomic units, ea_0^k for rank k

C          x = -0.398562  y =  0.201690  z = -1.936826 angstrom
           Maximum rank =  0   Radius =  0.650 angstrom
                   Q00  =  -0.233944

C          x = -1.922562  y =  0.305690  z = -1.970826 angstrom
           Maximum rank =  0   Radius =  0.650 angstrom
                   Q00  =  -0.237261

H          x = -0.001562  y =  0.899690  z = -1.199826 angstrom
           Maximum rank =  0   Radius =  0.325 angstrom
                   Q00  =   0.080767

H          x = -0.137562  y = -0.803310  z = -1.646826 angstrom
           Maximum rank =  0   Radius =  0.325 angstrom
                   Q00  =   0.077570

H          x =  0.024438  y =  0.451690  z = -2.907826 angstrom
           Maximum rank =  0   Radius =  0.325 angstrom
                   Q00  =   0.079529

H          x = -2.179562  y =  1.349690  z = -2.155826 angstrom
           Maximum rank =  0   Radius =  0.325 angstrom
                   Q00  =   0.075378

H          x = -2.343390  y = -0.311620  z = -2.778186 angstrom
           Maximum rank =  0   Radius =  0.325 angstrom
                   Q00  =   0.079087

H          x = -2.349589  y =  0.015254  z = -0.999596 angstrom
           Maximum rank =  0   Radius =  0.325 angstrom
                   Q00  =   0.079258

C          x =  0.494438  y = -0.082310  z =  1.639174 angstrom
           Maximum rank =  0   Radius =  0.650 angstrom
                   Q00  =  -0.226507

C          x =  1.831438  y = -0.428310  z =  2.264174 angstrom
           Maximum rank =  0   Radius =  0.650 angstrom
                   Q00  =  -0.241093

H          x = -0.300562  y = -0.236310  z =  2.367174 angstrom
           Maximum rank =  0   Radius =  0.325 angstrom
                   Q00  =   0.076325

H          x =  0.485438  y =  0.960690  z =  1.316174 angstrom
           Maximum rank =  0   Radius =  0.325 angstrom
                   Q00  =   0.076705

H          x =  0.293438  y = -0.732310  z =  0.788174 angstrom
           Maximum rank =  0   Radius =  0.325 angstrom
                   Q00  =   0.081689

H          x =  1.821438  y = -1.481310  z =  2.535174 angstrom
           Maximum rank =  0   Radius =  0.325 angstrom
                   Q00  =   0.077507

H          x =  2.645008  y = -0.231386  z =  1.550504 angstrom
           Maximum rank =  0   Radius =  0.325 angstrom
                   Q00  =   0.077989

H          x =  1.985866  y =  0.157798  z =  3.182124 angstrom
           Maximum rank =  0   Radius =  0.325 angstrom
                   Q00  =   0.077001

Total multipoles referred to origin at
           x =   0.000000,  y =    0.000000,  z =    0.000000 angstrom
                   Q00  =  -0.000000

Finished at 22:45:7 on 26 Apr 2020

  DMA results are available in the Python driver through the
	  variable('DMA DISTRIBUTED MULTIPOLES')
  and
	  variable('DMA TOTAL MULTIPOLES')
  commands.

    Psi4 stopped on: Sunday, 26 April 2020 10:45PM
    Psi4 wall time for execution: 0:00:19.46

*** Psi4 exiting successfully. Buy a developer a beer!
