                               Psi4 1.3.2 release

  ==> Input File <==

--------------------------------------------------------------------------
import numpy as np
set {scf_type pk
basis cc-pvdz
d_convergence 10
gdma_switch   0
gdma_limit    0
gdma_origin   [ 0.0,  0.0,  0.0 ]
}
molecule test {
    units Angstrom
    0 1
    --
    0 1
    C                1.187055120171407     1.825155873218882     0.549750264300508
    C                2.024055120171407     3.083155873218882     0.647750264300508
    C                0.176055120171407     1.934155873218882    -0.550249735699492
    C               -1.167944879828593     2.097155873218882    -0.501249735699492
    C               -0.554944879828593     2.109155873218882    -2.614249735699492
    N                0.544055120171407     1.988155873218882    -1.878249735699492
    N               -1.602944879828593     2.189155873218882    -1.806249735699492
    H                1.838055120171407     0.978155873218882     0.331750264300508
    H                0.681055120171407     1.631155873218882     1.495750264300508
    H                2.348055120171407     3.352155873218882    -0.358249735699492
    H               -1.775944879828593     2.129155873218882     0.393750264300508
    H               -0.581944879828593     2.179155873218881    -3.693249735699492
    H               -2.563944879828592     2.242155873218882    -2.118249735699492
    H                2.917675120171407     2.924035873218882     1.269140264300508
    H                1.428255120171407     3.925215873218881     1.029780264300508
    C               -1.830944879828593    -1.630844126781118    -0.687249735699492
    C                0.536055120171407    -1.700844126781118     0.066750264300508
    C               -0.787944879828593    -2.020844126781118     0.309750264300508
    C                1.540055120171407    -2.077844126781118     0.950750264300508
    C                1.231055120171407    -2.799844126781118     2.081750264300508
    C               -1.106944879828593    -2.745844126781118     1.443750264300508
    C               -0.086944879828593    -3.119844126781119     2.340750264300508
    H                0.798055120171407    -1.142844126781118    -0.821249735699492
    H                2.566055120171407    -1.811844126781118     0.735750264300508
    H               -1.708944879828593    -0.569844126781119    -0.897249735699492
    H               -2.826944879828593    -1.774844126781118    -0.267249735699492
    H                2.008055120171407    -3.113844126781118     2.764750264300508
    H               -2.131944879828593    -3.024844126781118     1.645750264300508
    H               -0.336944879828593    -3.677844126781118     3.232750264300508
    H               -1.742044879828593    -2.191004126781118    -1.629759735699492

}
e, wfn = energy('scf', return_wfn=True)
gdma(wfn)
dmavals = variable('DMA DISTRIBUTED MULTIPOLES')
charges = np.array(dmavals)
print(charges)
np.save('SSI-050HIE-065PHE-1-dimer.npy', np.array(charges))--------------------------------------------------------------------------

*** tstart() called on ds3
*** at Sun Apr 26 18:09:46 2020

   => Loading Basis Set <=

    Name: CC-PVDZ
    Role: ORBITAL
    Keyword: BASIS
    atoms 1-5, 16-22  entry C          line   138 file /theoryfs2/ds/metcalf/miniconda2/envs/tf2gpu/share/psi4/basis/cc-pvdz.gbs
    atoms 6-7         entry N          line   168 file /theoryfs2/ds/metcalf/miniconda2/envs/tf2gpu/share/psi4/basis/cc-pvdz.gbs
    atoms 8-15, 23-30 entry H          line    22 file /theoryfs2/ds/metcalf/miniconda2/envs/tf2gpu/share/psi4/basis/cc-pvdz.gbs

         ---------------------------------------------------------
                                   SCF
               by Justin Turney, Rob Parrish, Andy Simmonett
                          and Daniel G. A. Smith
                              RHF Reference
                        1 Threads,    500 MiB Core
         ---------------------------------------------------------

  ==> Geometry <==

    Molecular point group: c1
    Full point group: C1

    Geometry (in Angstrom), charge = 0, multiplicity = 1:

       Center              X                  Y                   Z               Mass
    ------------   -----------------  -----------------  -----------------  -----------------
         C            1.187055120171     1.825155873219     0.549750264301    12.000000000000
         C            2.024055120171     3.083155873219     0.647750264301    12.000000000000
         C            0.176055120171     1.934155873219    -0.550249735699    12.000000000000
         C           -1.167944879829     2.097155873219    -0.501249735699    12.000000000000
         C           -0.554944879829     2.109155873219    -2.614249735699    12.000000000000
         N            0.544055120171     1.988155873219    -1.878249735699    14.003074004430
         N           -1.602944879829     2.189155873219    -1.806249735699    14.003074004430
         H            1.838055120171     0.978155873219     0.331750264301     1.007825032230
         H            0.681055120171     1.631155873219     1.495750264301     1.007825032230
         H            2.348055120171     3.352155873219    -0.358249735699     1.007825032230
         H           -1.775944879829     2.129155873219     0.393750264301     1.007825032230
         H           -0.581944879829     2.179155873219    -3.693249735699     1.007825032230
         H           -2.563944879829     2.242155873219    -2.118249735699     1.007825032230
         H            2.917675120171     2.924035873219     1.269140264301     1.007825032230
         H            1.428255120171     3.925215873219     1.029780264301     1.007825032230
         C           -1.830944879829    -1.630844126781    -0.687249735699    12.000000000000
         C            0.536055120171    -1.700844126781     0.066750264301    12.000000000000
         C           -0.787944879829    -2.020844126781     0.309750264301    12.000000000000
         C            1.540055120171    -2.077844126781     0.950750264301    12.000000000000
         C            1.231055120171    -2.799844126781     2.081750264301    12.000000000000
         C           -1.106944879829    -2.745844126781     1.443750264301    12.000000000000
         C           -0.086944879829    -3.119844126781     2.340750264301    12.000000000000
         H            0.798055120171    -1.142844126781    -0.821249735699     1.007825032230
         H            2.566055120171    -1.811844126781     0.735750264301     1.007825032230
         H           -1.708944879829    -0.569844126781    -0.897249735699     1.007825032230
         H           -2.826944879829    -1.774844126781    -0.267249735699     1.007825032230
         H            2.008055120171    -3.113844126781     2.764750264301     1.007825032230
         H           -2.131944879829    -3.024844126781     1.645750264301     1.007825032230
         H           -0.336944879829    -3.677844126781     3.232750264301     1.007825032230
         H           -1.742044879829    -2.191004126781    -1.629759735699     1.007825032230

  Running in c1 symmetry.

  Rotational constants: A =      0.03435  B =      0.01296  C =      0.01051 [cm^-1]
  Rotational constants: A =   1029.77941  B =    388.63365  C =    315.21093 [MHz]
  Nuclear repulsion =  831.182484329778504

  Charge       = 0
  Multiplicity = 1
  Electrons    = 102
  Nalpha       = 51
  Nbeta        = 51

  ==> Algorithm <==

  SCF Algorithm Type is PK.
  DIIS enabled.
  MOM disabled.
  Fractional occupation disabled.
  Guess Type is SAD.
  Energy threshold   = 1.00e-06
  Density threshold  = 1.00e-10
  Integral threshold = 0.00e+00

  ==> Primary Basis <==

  Basis Set: CC-PVDZ
    Blend: CC-PVDZ
    Number of shells: 132
    Number of basis function: 276
    Number of Cartesian functions: 290
    Spherical Harmonics?: true
    Max angular momentum: 2

  ==> Pre-Iterations <==

   -------------------------------------------------------
    Irrep   Nso     Nmo     Nalpha   Nbeta   Ndocc  Nsocc
   -------------------------------------------------------
     A        276     276       0       0       0       0
   -------------------------------------------------------
    Total     276     276      51      51      51       0
   -------------------------------------------------------

  ==> Integral Setup <==

  Using integral reordering PK algorithm.
  Sizing the integral batches needed.
  Building batch lookup table.
   Calculation information:
      Number of atoms:                  30
      Number of AO shells:             132
      Number of primitives:            388
      Number of atomic orbitals:       290
      Number of basis functions:       276

      Integral cutoff                 1.00e-12
      Number of threads:                 1

	Batch   1 pq = [       0,    9405] index = [             0,44231715] size =     44231715
	Batch   2 pq = [    9405,   13301] index = [      44231715,88464951] size =     44233236
	Batch   3 pq = [   13301,   16290] index = [      88464951,132690195] size =     44225244
	Batch   4 pq = [   16290,   18810] index = [     132690195,176917455] size =     44227260
	Batch   5 pq = [   18810,   21030] index = [     176917455,221140965] size =     44223510
	Batch   6 pq = [   21030,   23037] index = [     221140965,265363203] size =     44222238
	Batch   7 pq = [   23037,   24883] index = [     265363203,309594286] size =     44231083
	Batch   8 pq = [   24883,   26601] index = [     309594286,353819901] size =     44225615
	Batch   9 pq = [   26601,   28214] index = [     353819901,398029005] size =     44209104
	Batch  10 pq = [   28214,   29740] index = [     398029005,442248670] size =     44219665
	Batch  11 pq = [   29740,   31191] index = [     442248670,486454836] size =     44206166
	Batch  12 pq = [   31191,   32578] index = [     486454836,530679331] size =     44224495
	Batch  13 pq = [   32578,   33908] index = [     530679331,574893186] size =     44213855
	Batch  14 pq = [   33908,   35188] index = [     574893186,619115266] size =     44222080
	Batch  15 pq = [   35188,   36423] index = [     619115266,663335676] size =     44220410
	Batch  16 pq = [   36423,   37617] index = [     663335676,707538153] size =     44202477
	Batch  17 pq = [   37617,   38226] index = [     707538153,730632651] size =     23094498
  Task number: 67
  Buffer size: 11059200
  Buffer per thread: 2
  We computed 40935388 shell quartets total.
  Whereas there are 38531031 unique shell quartets.
     6.24 percent of shell quartets recomputed by reordering.

  ==> DiskJK: Disk-Based J/K Matrices <==

    J tasked:                  Yes
    K tasked:                  Yes
    wK tasked:                  No
    Memory [MiB]:              375
    Schwarz Cutoff:          1E-12

    OpenMP threads:              1

  Minimum eigenvalue in the overlap matrix is 2.9967897666E-04.
  Using Symmetric Orthogonalization.

  SCF Guess: Superposition of Atomic Densities via on-the-fly atomic UHF.

  ==> Iterations <==

                        Total Energy        Delta E     RMS |[F,P]|

   @RHF iter SAD:  -571.87271423804054   -5.71873e+02   0.00000e+00
   @RHF iter   1:  -572.35092456505220   -4.78210e-01   2.47872e-03 DIIS
   @RHF iter   2:  -572.60660566962406   -2.55681e-01   1.22944e-03 DIIS
   @RHF iter   3:  -572.66242550789366   -5.58198e-02   3.33092e-04 DIIS
   @RHF iter   4:  -572.66753393350734   -5.10843e-03   1.37856e-04 DIIS
   @RHF iter   5:  -572.66832847797616   -7.94544e-04   1.87909e-05 DIIS
   @RHF iter   6:  -572.66835417973300   -2.57018e-05   7.80165e-06 DIIS
   @RHF iter   7:  -572.66835803983315   -3.86010e-06   2.53292e-06 DIIS
   @RHF iter   8:  -572.66835874054959   -7.00716e-07   1.10980e-06 DIIS
   @RHF iter   9:  -572.66835889979302   -1.59243e-07   4.44632e-07 DIIS
   @RHF iter  10:  -572.66835892538222   -2.55892e-08   1.43655e-07 DIIS
   @RHF iter  11:  -572.66835892858751   -3.20529e-09   6.03760e-08 DIIS
   @RHF iter  12:  -572.66835892899269   -4.05180e-10   2.63616e-08 DIIS
   @RHF iter  13:  -572.66835892908261   -8.99263e-11   8.43919e-09 DIIS
   @RHF iter  14:  -572.66835892909251   -9.89075e-12   3.52216e-09 DIIS
   @RHF iter  15:  -572.66835892908853    3.97904e-12   1.37232e-09 DIIS
   @RHF iter  16:  -572.66835892909410   -5.57066e-12   5.70067e-10 DIIS
   @RHF iter  17:  -572.66835892909148    2.61480e-12   2.49069e-10 DIIS
   @RHF iter  18:  -572.66835892908819    3.29692e-12   8.16665e-11 DIIS
  Energy and wave function converged.

  ==> Post-Iterations <==

    Orbital Energies [Eh]
    ---------------------

    Doubly Occupied:

       1A    -15.623484     2A    -15.530954     3A    -11.296078
       4A    -11.251570     5A    -11.239012     6A    -11.231256
       7A    -11.230282     8A    -11.227270     9A    -11.226186
      10A    -11.223400    11A    -11.221541    12A    -11.219996
      13A    -11.219050    14A    -11.208172    15A     -1.345644
      16A     -1.157817    17A     -1.150816    18A     -1.051561
      19A     -1.044114    20A     -1.003958    21A     -0.986592
      22A     -0.927682    23A     -0.854146    24A     -0.822163
      25A     -0.821056    26A     -0.788676    27A     -0.762234
      28A     -0.736654    29A     -0.686735    30A     -0.628180
      31A     -0.624275    32A     -0.623524    33A     -0.610035
      34A     -0.600828    35A     -0.582523    36A     -0.574195
      37A     -0.570595    38A     -0.560497    39A     -0.557956
      40A     -0.530578    41A     -0.513253    42A     -0.488153
      43A     -0.481077    44A     -0.480154    45A     -0.475882
      46A     -0.474124    47A     -0.412698    48A     -0.379904
      49A     -0.324817    50A     -0.319566    51A     -0.312535

    Virtual:

      52A      0.140411    53A      0.149131    54A      0.169139
      55A      0.183405    56A      0.186859    57A      0.201144
      58A      0.208550    59A      0.221609    60A      0.223964
      61A      0.229393    62A      0.243135    63A      0.248710
      64A      0.258802    65A      0.271482    66A      0.278195
      67A      0.280725    68A      0.292743    69A      0.299643
      70A      0.308358    71A      0.325518    72A      0.373529
      73A      0.385628    74A      0.390310    75A      0.401147
      76A      0.414126    77A      0.440717    78A      0.460106
      79A      0.469608    80A      0.482055    81A      0.485977
      82A      0.503434    83A      0.510301    84A      0.568058
      85A      0.582019    86A      0.604769    87A      0.610047
      88A      0.619327    89A      0.638770    90A      0.654561
      91A      0.668084    92A      0.680961    93A      0.688508
      94A      0.694871    95A      0.705026    96A      0.714700
      97A      0.722585    98A      0.730926    99A      0.748176
     100A      0.750825   101A      0.757086   102A      0.759314
     103A      0.770275   104A      0.776359   105A      0.792319
     106A      0.801229   107A      0.813399   108A      0.826528
     109A      0.830351   110A      0.856659   111A      0.864096
     112A      0.870822   113A      0.879696   114A      0.889195
     115A      0.893322   116A      0.897198   117A      0.906361
     118A      0.909352   119A      0.910869   120A      0.915480
     121A      0.919822   122A      0.932140   123A      0.942742
     124A      0.943440   125A      0.960325   126A      0.973334
     127A      0.983846   128A      0.989510   129A      0.999436
     130A      1.012241   131A      1.018929   132A      1.044386
     133A      1.058205   134A      1.076904   135A      1.091562
     136A      1.102194   137A      1.125266   138A      1.134470
     139A      1.142295   140A      1.145873   141A      1.156012
     142A      1.164943   143A      1.185900   144A      1.203316
     145A      1.214267   146A      1.233172   147A      1.251449
     148A      1.257652   149A      1.264880   150A      1.275176
     151A      1.286556   152A      1.303554   153A      1.313058
     154A      1.315927   155A      1.325339   156A      1.334929
     157A      1.344537   158A      1.358889   159A      1.409716
     160A      1.424755   161A      1.437890   162A      1.449502
     163A      1.455245   164A      1.505391   165A      1.520705
     166A      1.540535   167A      1.555223   168A      1.560808
     169A      1.569555   170A      1.611948   171A      1.635067
     172A      1.682146   173A      1.689869   174A      1.698051
     175A      1.701266   176A      1.741861   177A      1.751937
     178A      1.757447   179A      1.768124   180A      1.772802
     181A      1.778914   182A      1.799775   183A      1.820917
     184A      1.840873   185A      1.851433   186A      1.874894
     187A      1.878911   188A      1.884414   189A      1.904704
     190A      1.908484   191A      1.916176   192A      1.926874
     193A      1.930814   194A      1.935734   195A      1.944975
     196A      1.953691   197A      1.958217   198A      1.969416
     199A      1.974371   200A      1.990720   201A      1.993914
     202A      1.997247   203A      2.009480   204A      2.015388
     205A      2.024100   206A      2.031210   207A      2.039920
     208A      2.043363   209A      2.065852   210A      2.073315
     211A      2.092830   212A      2.104770   213A      2.126078
     214A      2.127925   215A      2.144441   216A      2.160410
     217A      2.174555   218A      2.179850   219A      2.190844
     220A      2.199426   221A      2.213678   222A      2.239570
     223A      2.258716   224A      2.265653   225A      2.277424
     226A      2.289604   227A      2.306098   228A      2.312247
     229A      2.326467   230A      2.339445   231A      2.363070
     232A      2.379121   233A      2.399768   234A      2.446383
     235A      2.458283   236A      2.468539   237A      2.490800
     238A      2.504341   239A      2.515426   240A      2.534545
     241A      2.557291   242A      2.573999   243A      2.596759
     244A      2.611138   245A      2.646447   246A      2.689884
     247A      2.741712   248A      2.744943   249A      2.765221
     250A      2.769404   251A      2.779078   252A      2.788953
     253A      2.800707   254A      2.809787   255A      2.824858
     256A      2.851791   257A      2.865722   258A      2.879135
     259A      2.889821   260A      2.914654   261A      2.921165
     262A      2.940343   263A      2.958706   264A      2.998422
     265A      3.022577   266A      3.027077   267A      3.054383
     268A      3.095080   269A      3.172625   270A      3.184138
     271A      3.222753   272A      3.263969   273A      3.315378
     274A      3.481370   275A      3.806807   276A      3.993985

    Final Occupation by Irrep:
              A
    DOCC [    51 ]

  @RHF Final Energy:  -572.66835892908819

   => Energetics <=

    Nuclear Repulsion Energy =            831.1824843297785037
    One-Electron Energy =               -2425.2747979934015348
    Two-Electron Energy =                1021.4239547345347319
    Total Energy =                       -572.6683589290881855

Computation Completed

Properties will be evaluated at   0.000000,   0.000000,   0.000000 [a0]

Properties computed using the SCF density matrix

  Nuclear Dipole Moment: [e a0]
     X:     0.8624      Y:     1.9137      Z:     2.9299

  Electronic Dipole Moment: [e a0]
     X:    -2.2513      Y:    -1.6881      Z:    -3.1305

  Dipole Moment: [e a0]
     X:    -1.3890      Y:     0.2256      Z:    -0.2006     Total:     1.4214

  Dipole Moment: [D]
     X:    -3.5304      Y:     0.5735      Z:    -0.5100     Total:     3.6128

*** tstop() called on ds3 at Sun Apr 26 18:18:42 2020
Module time:
	user time   =     329.84 seconds =       5.50 minutes
	system time =     112.87 seconds =       1.88 minutes
	total time  =        536 seconds =       8.93 minutes
Total time:
	user time   =     329.84 seconds =       5.50 minutes
	system time =     112.87 seconds =       1.88 minutes
	total time  =        536 seconds =       8.93 minutes
                                     G D M A

                                 by Anthony Stone

                           version 2.2.06, 22 June 2011

               Distributed Multipoles from Gaussian wavefunctions

Starting at 18:18:42 on 26 Apr 2020

Using SCF density matrix from file ./SSI/SSI-050HIE-065PHE-1-dimer.test.3671.fchk

                         Distributed Multipole Analysis

Standard DMA

Positions and radii in angstrom
Multipole moments in atomic units, ea_0^k for rank k

C          x =  1.187055  y =  1.825156  z =  0.549750 angstrom
           Maximum rank =  0   Radius =  0.650 angstrom
                   Q00  =  -0.026657

C          x =  2.024055  y =  3.083156  z =  0.647750 angstrom
           Maximum rank =  0   Radius =  0.650 angstrom
                   Q00  =  -0.231002

C          x =  0.176055  y =  1.934156  z = -0.550250 angstrom
           Maximum rank =  0   Radius =  0.650 angstrom
                   Q00  =   0.225322

C          x = -1.167945  y =  2.097156  z = -0.501250 angstrom
           Maximum rank =  0   Radius =  0.650 angstrom
                   Q00  =  -0.001880

C          x = -0.554945  y =  2.109156  z = -2.614250 angstrom
           Maximum rank =  0   Radius =  0.650 angstrom
                   Q00  =   0.464028

N          x =  0.544055  y =  1.988156  z = -1.878250 angstrom
           Maximum rank =  0   Radius =  0.650 angstrom
                   Q00  =  -0.789602

N          x = -1.602945  y =  2.189156  z = -1.806250 angstrom
           Maximum rank =  0   Radius =  0.650 angstrom
                   Q00  =  -0.476252

H          x =  1.838055  y =  0.978156  z =  0.331750 angstrom
           Maximum rank =  0   Radius =  0.325 angstrom
                   Q00  =   0.085121

H          x =  0.681055  y =  1.631156  z =  1.495750 angstrom
           Maximum rank =  0   Radius =  0.325 angstrom
                   Q00  =   0.064637

H          x =  2.348055  y =  3.352156  z = -0.358250 angstrom
           Maximum rank =  0   Radius =  0.325 angstrom
                   Q00  =   0.094361

H          x = -1.775945  y =  2.129156  z =  0.393750 angstrom
           Maximum rank =  0   Radius =  0.325 angstrom
                   Q00  =   0.104510

H          x = -0.581945  y =  2.179156  z = -3.693250 angstrom
           Maximum rank =  0   Radius =  0.325 angstrom
                   Q00  =   0.124286

H          x = -2.563945  y =  2.242156  z = -2.118250 angstrom
           Maximum rank =  0   Radius =  0.325 angstrom
                   Q00  =   0.220305

H          x =  2.917675  y =  2.924036  z =  1.269140 angstrom
           Maximum rank =  0   Radius =  0.325 angstrom
                   Q00  =   0.077555

H          x =  1.428255  y =  3.925216  z =  1.029780 angstrom
           Maximum rank =  0   Radius =  0.325 angstrom
                   Q00  =   0.071617

C          x = -1.830945  y = -1.630844  z = -0.687250 angstrom
           Maximum rank =  0   Radius =  0.650 angstrom
                   Q00  =  -0.213886

C          x =  0.536055  y = -1.700844  z =  0.066750 angstrom
           Maximum rank =  0   Radius =  0.650 angstrom
                   Q00  =   0.012163

C          x = -0.787945  y = -2.020844  z =  0.309750 angstrom
           Maximum rank =  0   Radius =  0.650 angstrom
                   Q00  =  -0.094258

C          x =  1.540055  y = -2.077844  z =  0.950750 angstrom
           Maximum rank =  0   Radius =  0.650 angstrom
                   Q00  =  -0.077816

C          x =  1.231055  y = -2.799844  z =  2.081750 angstrom
           Maximum rank =  0   Radius =  0.650 angstrom
                   Q00  =  -0.074147

C          x = -1.106945  y = -2.745844  z =  1.443750 angstrom
           Maximum rank =  0   Radius =  0.650 angstrom
                   Q00  =  -0.084109

C          x = -0.086945  y = -3.119844  z =  2.340750 angstrom
           Maximum rank =  0   Radius =  0.650 angstrom
                   Q00  =  -0.071373

H          x =  0.798055  y = -1.142844  z = -0.821250 angstrom
           Maximum rank =  0   Radius =  0.325 angstrom
                   Q00  =   0.058528

H          x =  2.566055  y = -1.811844  z =  0.735750 angstrom
           Maximum rank =  0   Radius =  0.325 angstrom
                   Q00  =   0.061825

H          x = -1.708945  y = -0.569844  z = -0.897250 angstrom
           Maximum rank =  0   Radius =  0.325 angstrom
                   Q00  =   0.110078

H          x = -2.826945  y = -1.774844  z = -0.267250 angstrom
           Maximum rank =  0   Radius =  0.325 angstrom
                   Q00  =   0.089941

H          x =  2.008055  y = -3.113844  z =  2.764750 angstrom
           Maximum rank =  0   Radius =  0.325 angstrom
                   Q00  =   0.057437

H          x = -2.131945  y = -3.024844  z =  1.645750 angstrom
           Maximum rank =  0   Radius =  0.325 angstrom
                   Q00  =   0.056601

H          x = -0.336945  y = -3.677844  z =  3.232750 angstrom
           Maximum rank =  0   Radius =  0.325 angstrom
                   Q00  =   0.061568

H          x = -1.742045  y = -2.191004  z = -1.629760 angstrom
           Maximum rank =  0   Radius =  0.325 angstrom
                   Q00  =   0.101099

Total multipoles referred to origin at
           x =   0.000000,  y =    0.000000,  z =    0.000000 angstrom
                   Q00  =  -0.000000

Finished at 18:18:42 on 26 Apr 2020

  DMA results are available in the Python driver through the
	  variable('DMA DISTRIBUTED MULTIPOLES')
  and
	  variable('DMA TOTAL MULTIPOLES')
  commands.

    Psi4 stopped on: Sunday, 26 April 2020 06:18PM
    Psi4 wall time for execution: 0:08:56.07

*** Psi4 exiting successfully. Buy a developer a beer!
