                               Psi4 1.3.2 release

  ==> Input File <==

--------------------------------------------------------------------------
import numpy as np
set {scf_type pk
basis cc-pvdz
d_convergence 10
gdma_switch   0
gdma_limit    0
gdma_origin   [ 0.0,  0.0,  0.0 ]
}
molecule test {
    units Angstrom
    0 1
    --
    0 1
    C               -0.138730576545421    -3.204615704187058     0.142866404728206
    C               -1.288730576545421    -3.368615704187059    -0.847133595271794
    H               -0.461730576545421    -3.456615704187059     1.151866404728206
    H                0.672269423454579    -3.878615704187059    -0.132133595271794
    H                0.233269423454579    -2.182615704187059     0.114866404728206
    H               -1.629730576545421    -4.402615704187059    -0.795133595271794
    H               -2.134292576545421    -2.709365704187058    -0.601347595271794
    H               -0.942633576545421    -3.182975704187059    -1.874632595271794
    C               -1.482730576545421     1.937384295812941    -1.015133595271794
    C               -0.286730576545421     0.447384295812941     0.735866404728206
    C               -0.320730576545421     1.392384295812942    -0.239133595271794
    C                1.751269423454579     1.238384295812941     0.480866404728206
    N                1.022269423454579     0.361384295812941     1.160866404728206
    N                0.960269423454579     1.882384295812941    -0.365133595271794
    H               -1.129730576545421    -0.119615704187059     1.102866404728206
    H                1.382269423454579    -0.265615704187059     1.872866404728206
    H               -2.201730576545420     1.132384295812941    -1.167133595271794
    H               -1.143730576545421     2.264384295812941    -1.996133595271794
    H                2.816269423454579     1.397384295812941     0.599866404728206
    H               -1.974562576545421     2.775374295812941    -0.499503595271794

}
e, wfn = energy('scf', return_wfn=True)
gdma(wfn)
dmavals = variable('DMA DISTRIBUTED MULTIPOLES')
charges = np.array(dmavals)
print(charges)
np.save('SSI-126LEU-130HIE-2-dimer.npy', np.array(charges))--------------------------------------------------------------------------

*** tstart() called on ds3
*** at Tue Apr 28 02:05:09 2020

   => Loading Basis Set <=

    Name: CC-PVDZ
    Role: ORBITAL
    Keyword: BASIS
    atoms 1-2, 9-12  entry C          line   138 file /theoryfs2/ds/metcalf/miniconda2/envs/tf2gpu/share/psi4/basis/cc-pvdz.gbs
    atoms 3-8, 15-20 entry H          line    22 file /theoryfs2/ds/metcalf/miniconda2/envs/tf2gpu/share/psi4/basis/cc-pvdz.gbs
    atoms 13-14      entry N          line   168 file /theoryfs2/ds/metcalf/miniconda2/envs/tf2gpu/share/psi4/basis/cc-pvdz.gbs

         ---------------------------------------------------------
                                   SCF
               by Justin Turney, Rob Parrish, Andy Simmonett
                          and Daniel G. A. Smith
                              RHF Reference
                        1 Threads,    500 MiB Core
         ---------------------------------------------------------

  ==> Geometry <==

    Molecular point group: c1
    Full point group: C1

    Geometry (in Angstrom), charge = 0, multiplicity = 1:

       Center              X                  Y                   Z               Mass
    ------------   -----------------  -----------------  -----------------  -----------------
         C           -0.138730576545    -3.204615704187     0.142866404728    12.000000000000
         C           -1.288730576545    -3.368615704187    -0.847133595272    12.000000000000
         H           -0.461730576545    -3.456615704187     1.151866404728     1.007825032230
         H            0.672269423455    -3.878615704187    -0.132133595272     1.007825032230
         H            0.233269423455    -2.182615704187     0.114866404728     1.007825032230
         H           -1.629730576545    -4.402615704187    -0.795133595272     1.007825032230
         H           -2.134292576545    -2.709365704187    -0.601347595272     1.007825032230
         H           -0.942633576545    -3.182975704187    -1.874632595272     1.007825032230
         C           -1.482730576545     1.937384295813    -1.015133595272    12.000000000000
         C           -0.286730576545     0.447384295813     0.735866404728    12.000000000000
         C           -0.320730576545     1.392384295813    -0.239133595272    12.000000000000
         C            1.751269423455     1.238384295813     0.480866404728    12.000000000000
         N            1.022269423455     0.361384295813     1.160866404728    14.003074004430
         N            0.960269423455     1.882384295813    -0.365133595272    14.003074004430
         H           -1.129730576545    -0.119615704187     1.102866404728     1.007825032230
         H            1.382269423455    -0.265615704187     1.872866404728     1.007825032230
         H           -2.201730576545     1.132384295813    -1.167133595272     1.007825032230
         H           -1.143730576545     2.264384295813    -1.996133595272     1.007825032230
         H            2.816269423455     1.397384295813     0.599866404728     1.007825032230
         H           -1.974562576545     2.775374295813    -0.499503595272     1.007825032230

  Running in c1 symmetry.

  Rotational constants: A =      0.08740  B =      0.03157  C =      0.02524 [cm^-1]
  Rotational constants: A =   2620.32275  B =    946.46586  C =    756.76964 [MHz]
  Nuclear repulsion =  354.382203954634747

  Charge       = 0
  Multiplicity = 1
  Electrons    = 62
  Nalpha       = 31
  Nbeta        = 31

  ==> Algorithm <==

  SCF Algorithm Type is PK.
  DIIS enabled.
  MOM disabled.
  Fractional occupation disabled.
  Guess Type is SAD.
  Energy threshold   = 1.00e-06
  Density threshold  = 1.00e-10
  Integral threshold = 0.00e+00

  ==> Primary Basis <==

  Basis Set: CC-PVDZ
    Blend: CC-PVDZ
    Number of shells: 84
    Number of basis function: 172
    Number of Cartesian functions: 180
    Spherical Harmonics?: true
    Max angular momentum: 2

  ==> Pre-Iterations <==

   -------------------------------------------------------
    Irrep   Nso     Nmo     Nalpha   Nbeta   Ndocc  Nsocc
   -------------------------------------------------------
     A        172     172       0       0       0       0
   -------------------------------------------------------
    Total     172     172      31      31      31       0
   -------------------------------------------------------

  ==> Integral Setup <==

  Using integral reordering PK algorithm.
  Sizing the integral batches needed.
  Building batch lookup table.
   Calculation information:
      Number of atoms:                  20
      Number of AO shells:              84
      Number of primitives:            236
      Number of atomic orbitals:       180
      Number of basis functions:       172

      Integral cutoff                 1.00e-12
      Number of threads:                 1

	Batch   1 pq = [       0,    9405] index = [             0,44231715] size =     44231715
	Batch   2 pq = [    9405,   13301] index = [      44231715,88464951] size =     44233236
	Batch   3 pq = [   13301,   14878] index = [      88464951,110684881] size =     22219930
  Task number: 11
  Buffer size: 11059200
  Buffer per thread: 2
  We computed 5427143 shell quartets total.
  Whereas there are 6374235 unique shell quartets.

  ==> DiskJK: Disk-Based J/K Matrices <==

    J tasked:                  Yes
    K tasked:                  Yes
    wK tasked:                  No
    Memory [MiB]:              375
    Schwarz Cutoff:          1E-12

    OpenMP threads:              1

  Minimum eigenvalue in the overlap matrix is 1.1491799676E-03.
  Using Symmetric Orthogonalization.

  SCF Guess: Superposition of Atomic Densities via on-the-fly atomic UHF.

  ==> Iterations <==

                        Total Energy        Delta E     RMS |[F,P]|

   @RHF iter SAD:  -342.21976101509176   -3.42220e+02   0.00000e+00
   @RHF iter   1:  -342.88787101804007   -6.68110e-01   3.37085e-03 DIIS
   @RHF iter   2:  -343.05994143411846   -1.72070e-01   1.71714e-03 DIIS
   @RHF iter   3:  -343.10117591251270   -4.12345e-02   4.33432e-04 DIIS
   @RHF iter   4:  -343.10464331975010   -3.46741e-03   1.81742e-04 DIIS
   @RHF iter   5:  -343.10520486961707   -5.61550e-04   2.67737e-05 DIIS
   @RHF iter   6:  -343.10522618932379   -2.13197e-05   1.16422e-05 DIIS
   @RHF iter   7:  -343.10522979577240   -3.60645e-06   4.20172e-06 DIIS
   @RHF iter   8:  -343.10523060765735   -8.11885e-07   1.66401e-06 DIIS
   @RHF iter   9:  -343.10523078157780   -1.73920e-07   5.97487e-07 DIIS
   @RHF iter  10:  -343.10523079808468   -1.65069e-08   1.85614e-07 DIIS
   @RHF iter  11:  -343.10523079993499   -1.85031e-09   8.21727e-08 DIIS
   @RHF iter  12:  -343.10523080019817   -2.63185e-10   3.22712e-08 DIIS
   @RHF iter  13:  -343.10523080024524   -4.70664e-11   8.67547e-09 DIIS
   @RHF iter  14:  -343.10523080024950   -4.26326e-12   3.18148e-09 DIIS
   @RHF iter  15:  -343.10523080024905    4.54747e-13   1.31215e-09 DIIS
   @RHF iter  16:  -343.10523080024848    5.68434e-13   4.13051e-10 DIIS
   @RHF iter  17:  -343.10523080024780    6.82121e-13   1.20093e-10 DIIS
   @RHF iter  18:  -343.10523080024961   -1.81899e-12   4.51261e-11 DIIS
  Energy and wave function converged.

  ==> Post-Iterations <==

    Orbital Energies [Eh]
    ---------------------

    Doubly Occupied:

       1A    -15.620989     2A    -15.526966     3A    -11.291844
       4A    -11.249610     5A    -11.240916     6A    -11.223126
       7A    -11.221020     8A    -11.218620     9A     -1.341873
      10A     -1.153390    11A     -1.031052    12A     -1.021067
      13A     -0.940848    14A     -0.839543    15A     -0.817393
      16A     -0.761906    17A     -0.741003    18A     -0.609715
      19A     -0.608254    20A     -0.601355    21A     -0.598819
      22A     -0.593080    23A     -0.553316    24A     -0.540740
      25A     -0.519904    26A     -0.503962    27A     -0.489100
      28A     -0.486323    29A     -0.409305    30A     -0.378075
      31A     -0.309366

    Virtual:

      32A      0.162090    33A      0.175897    34A      0.190163
      35A      0.208904    36A      0.224337    37A      0.227155
      38A      0.233674    39A      0.243643    40A      0.259663
      41A      0.272180    42A      0.279283    43A      0.298651
      44A      0.304277    45A      0.306544    46A      0.377966
      47A      0.388635    48A      0.398350    49A      0.418854
      50A      0.480622    51A      0.483359    52A      0.593505
      53A      0.595440    54A      0.602449    55A      0.610085
      56A      0.627517    57A      0.659709    58A      0.672839
      59A      0.675557    60A      0.697494    61A      0.704814
      62A      0.711212    63A      0.743004    64A      0.764510
      65A      0.807375    66A      0.815619    67A      0.836833
      68A      0.850560    69A      0.874663    70A      0.882695
      71A      0.887079    72A      0.891370    73A      0.899819
      74A      0.911887    75A      0.921376    76A      0.929320
      77A      0.935148    78A      0.952247    79A      0.964621
      80A      0.976993    81A      0.985715    82A      1.031417
      83A      1.075465    84A      1.098296    85A      1.111868
      86A      1.121261    87A      1.131120    88A      1.142946
      89A      1.154062    90A      1.173202    91A      1.238039
      92A      1.275839    93A      1.298346    94A      1.314697
      95A      1.333058    96A      1.339044    97A      1.420307
      98A      1.446868    99A      1.470905   100A      1.477043
     101A      1.488317   102A      1.530163   103A      1.566160
     104A      1.575497   105A      1.617915   106A      1.633929
     107A      1.681612   108A      1.691475   109A      1.694592
     110A      1.729353   111A      1.774163   112A      1.813673
     113A      1.829894   114A      1.849616   115A      1.871415
     116A      1.879136   117A      1.890123   118A      1.899469
     119A      1.923510   120A      1.935151   121A      1.940219
     122A      1.946835   123A      1.951386   124A      1.959409
     125A      1.961655   126A      1.968210   127A      1.977892
     128A      1.991253   129A      2.047228   130A      2.056928
     131A      2.091740   132A      2.095379   133A      2.123119
     134A      2.148185   135A      2.205099   136A      2.232735
     137A      2.242776   138A      2.283392   139A      2.308284
     140A      2.317168   141A      2.344493   142A      2.373606
     143A      2.431866   144A      2.450152   145A      2.459194
     146A      2.470819   147A      2.496750   148A      2.557385
     149A      2.565367   150A      2.574635   151A      2.612609
     152A      2.695730   153A      2.724704   154A      2.752502
     155A      2.759767   156A      2.782828   157A      2.790899
     158A      2.797902   159A      2.846538   160A      2.850894
     161A      2.858142   162A      2.860087   163A      2.893156
     164A      2.923777   165A      2.950768   166A      2.967859
     167A      2.976847   168A      3.073125   169A      3.163083
     170A      3.234842   171A      3.476845   172A      3.800573

    Final Occupation by Irrep:
              A
    DOCC [    31 ]

  @RHF Final Energy:  -343.10523080024961

   => Energetics <=

    Nuclear Repulsion Energy =            354.3822039546347469
    One-Electron Energy =               -1166.0899057867757165
    Two-Electron Energy =                 468.6024710318913549
    Total Energy =                       -343.1052308002496147

Computation Completed

Properties will be evaluated at   0.000000,   0.000000,   0.000000 [a0]

Properties computed using the SCF density matrix

  Nuclear Dipole Moment: [e a0]
     X:    -6.1125      Y:   -11.8454      Z:    -2.0869

  Electronic Dipole Moment: [e a0]
     X:     6.2061      Y:    10.9391      Z:     3.0308

  Dipole Moment: [e a0]
     X:     0.0936      Y:    -0.9063      Z:     0.9438     Total:     1.3118

  Dipole Moment: [D]
     X:     0.2380      Y:    -2.3036      Z:     2.3989     Total:     3.3344

*** tstop() called on ds3 at Tue Apr 28 02:06:00 2020
Module time:
	user time   =      36.25 seconds =       0.60 minutes
	system time =      16.60 seconds =       0.28 minutes
	total time  =         51 seconds =       0.85 minutes
Total time:
	user time   =      36.25 seconds =       0.60 minutes
	system time =      16.60 seconds =       0.28 minutes
	total time  =         51 seconds =       0.85 minutes
                                     G D M A

                                 by Anthony Stone

                           version 2.2.06, 22 June 2011

               Distributed Multipoles from Gaussian wavefunctions

Starting at 2:6:0 on 28 Apr 2020

Using SCF density matrix from file ./SSI/SSI-126LEU-130HIE-2-dimer.test.10447.fchk

                         Distributed Multipole Analysis

Standard DMA

Positions and radii in angstrom
Multipole moments in atomic units, ea_0^k for rank k

C          x = -0.138731  y = -3.204616  z =  0.142866 angstrom
           Maximum rank =  0   Radius =  0.650 angstrom
                   Q00  =  -0.244039

C          x = -1.288731  y = -3.368616  z = -0.847134 angstrom
           Maximum rank =  0   Radius =  0.650 angstrom
                   Q00  =  -0.232357

H          x = -0.461731  y = -3.456616  z =  1.151866 angstrom
           Maximum rank =  0   Radius =  0.325 angstrom
                   Q00  =   0.072023

H          x =  0.672269  y = -3.878616  z = -0.132134 angstrom
           Maximum rank =  0   Radius =  0.325 angstrom
                   Q00  =   0.078934

H          x =  0.233269  y = -2.182616  z =  0.114866 angstrom
           Maximum rank =  0   Radius =  0.325 angstrom
                   Q00  =   0.085705

H          x = -1.629731  y = -4.402616  z = -0.795134 angstrom
           Maximum rank =  0   Radius =  0.325 angstrom
                   Q00  =   0.075286

H          x = -2.134293  y = -2.709366  z = -0.601348 angstrom
           Maximum rank =  0   Radius =  0.325 angstrom
                   Q00  =   0.077280

H          x = -0.942634  y = -3.182976  z = -1.874633 angstrom
           Maximum rank =  0   Radius =  0.325 angstrom
                   Q00  =   0.083664

C          x = -1.482731  y =  1.937384  z = -1.015134 angstrom
           Maximum rank =  0   Radius =  0.650 angstrom
                   Q00  =  -0.198122

C          x = -0.286731  y =  0.447384  z =  0.735866 angstrom
           Maximum rank =  0   Radius =  0.650 angstrom
                   Q00  =  -0.004786

C          x = -0.320731  y =  1.392384  z = -0.239134 angstrom
           Maximum rank =  0   Radius =  0.650 angstrom
                   Q00  =   0.229586

C          x =  1.751269  y =  1.238384  z =  0.480866 angstrom
           Maximum rank =  0   Radius =  0.650 angstrom
                   Q00  =   0.465471

N          x =  1.022269  y =  0.361384  z =  1.160866 angstrom
           Maximum rank =  0   Radius =  0.650 angstrom
                   Q00  =  -0.480263

N          x =  0.960269  y =  1.882384  z = -0.365134 angstrom
           Maximum rank =  0   Radius =  0.650 angstrom
                   Q00  =  -0.771112

H          x = -1.129731  y = -0.119616  z =  1.102866 angstrom
           Maximum rank =  0   Radius =  0.325 angstrom
                   Q00  =   0.100311

H          x =  1.382269  y = -0.265616  z =  1.872866 angstrom
           Maximum rank =  0   Radius =  0.325 angstrom
                   Q00  =   0.221908

H          x = -2.201731  y =  1.132384  z = -1.167134 angstrom
           Maximum rank =  0   Radius =  0.325 angstrom
                   Q00  =   0.092522

H          x = -1.143731  y =  2.264384  z = -1.996134 angstrom
           Maximum rank =  0   Radius =  0.325 angstrom
                   Q00  =   0.119977

H          x =  2.816269  y =  1.397384  z =  0.599866 angstrom
           Maximum rank =  0   Radius =  0.325 angstrom
                   Q00  =   0.123600

H          x = -1.974563  y =  2.775374  z = -0.499504 angstrom
           Maximum rank =  0   Radius =  0.325 angstrom
                   Q00  =   0.104411

Total multipoles referred to origin at
           x =   0.000000,  y =    0.000000,  z =    0.000000 angstrom
                   Q00  =  -0.000000

Finished at 2:6:0 on 28 Apr 2020

  DMA results are available in the Python driver through the
	  variable('DMA DISTRIBUTED MULTIPOLES')
  and
	  variable('DMA TOTAL MULTIPOLES')
  commands.

    Psi4 stopped on: Tuesday, 28 April 2020 02:06AM
    Psi4 wall time for execution: 0:00:51.75

*** Psi4 exiting successfully. Buy a developer a beer!
