                               Psi4 1.3.2 release

  ==> Input File <==

--------------------------------------------------------------------------
import numpy as np
set {scf_type pk
basis cc-pvdz
d_convergence 10
gdma_switch   0
gdma_limit    0
gdma_origin   [ 0.0,  0.0,  0.0 ]
}
molecule test {
    units Angstrom
    0 1
    --
    0 1
    C               -0.515627138946401     2.625850152829457     1.297024103103408
    C                0.382372861053599     3.099850152829457     2.432024103103408
    C                0.003372861053599     3.162850152829457    -0.029975896896592
    H               -0.515627138946401     1.539850152829457     1.282024103103408
    H               -1.535627138946401     2.980850152829457     1.455024103103408
    H                0.484372861053599     4.185850152829457     2.394024103103408
    H                1.371372861053599     2.668850152829457     2.268024103103409
    H               -0.054627138946401     4.253850152829457    -0.015975896896592
    H                1.047372861053599     2.866850152829458    -0.158975896896592
    H                0.027437861053599     2.807550152829457     3.431314103103408
    H               -0.586319138946401     2.776480152829458    -0.874355896896592
    C               -2.764627138946401    -0.627149847170543    -1.260975896896592
    C               -0.950627138946401    -0.907149847170543     0.471024103103408
    C               -1.335627138946401    -0.932149847170543    -0.867975896896592
    C                0.362372861053599    -1.183149847170543     0.841024103103408
    C               -0.378627138946401    -1.234149847170543    -1.835975896896592
    C                1.306372861053599    -1.484149847170543    -0.134975896896592
    C                0.936372861053599    -1.510149847170543    -1.474975896896592
    O                2.592372861053599    -1.754149847170543     0.225024103103408
    H               -1.678627138946401    -0.659149847170543     1.231024103103408
    H                0.656372861053599    -1.160149847170543     1.881024103103408
    H               -2.765627138946401    -0.118149847170543    -2.225975896896592
    H               -3.171627138946401     0.069850152829457    -0.532975896896592
    H               -0.661627138946401    -1.257149847170543    -2.881975896896592
    H                1.668372861053599    -1.741149847170543    -2.237975896896592
    H                3.161372861053599    -1.894149847170543    -0.540975896896592
    H               -3.413801138946401    -1.512319847170543    -1.331985896896592

}
e, wfn = energy('scf', return_wfn=True)
gdma(wfn)
dmavals = variable('DMA DISTRIBUTED MULTIPOLES')
charges = np.array(dmavals)
print(charges)
np.save('SSI-023LYS-064TYR-2-dimer.npy', np.array(charges))--------------------------------------------------------------------------

*** tstart() called on ds3
*** at Sun Apr 26 23:17:34 2020

   => Loading Basis Set <=

    Name: CC-PVDZ
    Role: ORBITAL
    Keyword: BASIS
    atoms 1-3, 12-18  entry C          line   138 file /theoryfs2/ds/metcalf/miniconda2/envs/tf2gpu/share/psi4/basis/cc-pvdz.gbs
    atoms 4-11, 20-27 entry H          line    22 file /theoryfs2/ds/metcalf/miniconda2/envs/tf2gpu/share/psi4/basis/cc-pvdz.gbs
    atoms 19          entry O          line   198 file /theoryfs2/ds/metcalf/miniconda2/envs/tf2gpu/share/psi4/basis/cc-pvdz.gbs

         ---------------------------------------------------------
                                   SCF
               by Justin Turney, Rob Parrish, Andy Simmonett
                          and Daniel G. A. Smith
                              RHF Reference
                        1 Threads,    500 MiB Core
         ---------------------------------------------------------

  ==> Geometry <==

    Molecular point group: c1
    Full point group: C1

    Geometry (in Angstrom), charge = 0, multiplicity = 1:

       Center              X                  Y                   Z               Mass
    ------------   -----------------  -----------------  -----------------  -----------------
         C           -0.515627138946     2.625850152829     1.297024103103    12.000000000000
         C            0.382372861054     3.099850152829     2.432024103103    12.000000000000
         C            0.003372861054     3.162850152829    -0.029975896897    12.000000000000
         H           -0.515627138946     1.539850152829     1.282024103103     1.007825032230
         H           -1.535627138946     2.980850152829     1.455024103103     1.007825032230
         H            0.484372861054     4.185850152829     2.394024103103     1.007825032230
         H            1.371372861054     2.668850152829     2.268024103103     1.007825032230
         H           -0.054627138946     4.253850152829    -0.015975896897     1.007825032230
         H            1.047372861054     2.866850152829    -0.158975896897     1.007825032230
         H            0.027437861054     2.807550152829     3.431314103103     1.007825032230
         H           -0.586319138946     2.776480152829    -0.874355896897     1.007825032230
         C           -2.764627138946    -0.627149847171    -1.260975896897    12.000000000000
         C           -0.950627138946    -0.907149847171     0.471024103103    12.000000000000
         C           -1.335627138946    -0.932149847171    -0.867975896897    12.000000000000
         C            0.362372861054    -1.183149847171     0.841024103103    12.000000000000
         C           -0.378627138946    -1.234149847171    -1.835975896897    12.000000000000
         C            1.306372861054    -1.484149847171    -0.134975896897    12.000000000000
         C            0.936372861054    -1.510149847171    -1.474975896897    12.000000000000
         O            2.592372861054    -1.754149847171     0.225024103103    15.994914619570
         H           -1.678627138946    -0.659149847171     1.231024103103     1.007825032230
         H            0.656372861054    -1.160149847171     1.881024103103     1.007825032230
         H           -2.765627138946    -0.118149847171    -2.225975896897     1.007825032230
         H           -3.171627138946     0.069850152829    -0.532975896897     1.007825032230
         H           -0.661627138946    -1.257149847171    -2.881975896897     1.007825032230
         H            1.668372861054    -1.741149847171    -2.237975896897     1.007825032230
         H            3.161372861054    -1.894149847171    -0.540975896897     1.007825032230
         H           -3.413801138946    -1.512319847171    -1.331985896897     1.007825032230

  Running in c1 symmetry.

  Rotational constants: A =      0.03664  B =      0.02137  C =      0.01615 [cm^-1]
  Rotational constants: A =   1098.50486  B =    640.53467  C =    484.15864 [MHz]
  Nuclear repulsion =  587.205037785642958

  Charge       = 0
  Multiplicity = 1
  Electrons    = 84
  Nalpha       = 42
  Nbeta        = 42

  ==> Algorithm <==

  SCF Algorithm Type is PK.
  DIIS enabled.
  MOM disabled.
  Fractional occupation disabled.
  Guess Type is SAD.
  Energy threshold   = 1.00e-06
  Density threshold  = 1.00e-10
  Integral threshold = 0.00e+00

  ==> Primary Basis <==

  Basis Set: CC-PVDZ
    Blend: CC-PVDZ
    Number of shells: 114
    Number of basis function: 234
    Number of Cartesian functions: 245
    Spherical Harmonics?: true
    Max angular momentum: 2

  ==> Pre-Iterations <==

   -------------------------------------------------------
    Irrep   Nso     Nmo     Nalpha   Nbeta   Ndocc  Nsocc
   -------------------------------------------------------
     A        234     234       0       0       0       0
   -------------------------------------------------------
    Total     234     234      42      42      42       0
   -------------------------------------------------------

  ==> Integral Setup <==

  Using integral reordering PK algorithm.
  Sizing the integral batches needed.
  Building batch lookup table.
   Calculation information:
      Number of atoms:                  27
      Number of AO shells:             114
      Number of primitives:            322
      Number of atomic orbitals:       245
      Number of basis functions:       234

      Integral cutoff                 1.00e-12
      Number of threads:                 1

	Batch   1 pq = [       0,    9405] index = [             0,44231715] size =     44231715
	Batch   2 pq = [    9405,   13301] index = [      44231715,88464951] size =     44233236
	Batch   3 pq = [   13301,   16290] index = [      88464951,132690195] size =     44225244
	Batch   4 pq = [   16290,   18810] index = [     132690195,176917455] size =     44227260
	Batch   5 pq = [   18810,   21030] index = [     176917455,221140965] size =     44223510
	Batch   6 pq = [   21030,   23037] index = [     221140965,265363203] size =     44222238
	Batch   7 pq = [   23037,   24883] index = [     265363203,309594286] size =     44231083
	Batch   8 pq = [   24883,   26601] index = [     309594286,353819901] size =     44225615
	Batch   9 pq = [   26601,   27495] index = [     353819901,378001260] size =     24181359
  Task number: 35
  Buffer size: 11059200
  Buffer per thread: 2
  We computed 21010715 shell quartets total.
  Whereas there are 21487290 unique shell quartets.

  ==> DiskJK: Disk-Based J/K Matrices <==

    J tasked:                  Yes
    K tasked:                  Yes
    wK tasked:                  No
    Memory [MiB]:              375
    Schwarz Cutoff:          1E-12

    OpenMP threads:              1

  Minimum eigenvalue in the overlap matrix is 3.2094949780E-04.
  Using Symmetric Orthogonalization.

  SCF Guess: Superposition of Atomic Densities via on-the-fly atomic UHF.

  ==> Iterations <==

                        Total Energy        Delta E     RMS |[F,P]|

   @RHF iter SAD:  -461.73321499575434   -4.61733e+02   0.00000e+00
   @RHF iter   1:  -462.60409178537481   -8.70877e-01   2.83623e-03 DIIS
   @RHF iter   2:  -462.84809100114126   -2.43999e-01   1.21788e-03 DIIS
   @RHF iter   3:  -462.88908145616392   -4.09905e-02   2.69266e-04 DIIS
   @RHF iter   4:  -462.89236775406556   -3.28630e-03   1.03375e-04 DIIS
   @RHF iter   5:  -462.89270938587293   -3.41632e-04   2.08037e-05 DIIS
   @RHF iter   6:  -462.89272969350287   -2.03076e-05   6.53284e-06 DIIS
   @RHF iter   7:  -462.89273184960183   -2.15610e-06   1.98312e-06 DIIS
   @RHF iter   8:  -462.89273214408308   -2.94481e-07   7.85804e-07 DIIS
   @RHF iter   9:  -462.89273219973734   -5.56543e-08   3.67146e-07 DIIS
   @RHF iter  10:  -462.89273221277443   -1.30371e-08   1.61927e-07 DIIS
   @RHF iter  11:  -462.89273221707958   -4.30515e-09   6.36224e-08 DIIS
   @RHF iter  12:  -462.89273221768167   -6.02085e-10   2.73873e-08 DIIS
   @RHF iter  13:  -462.89273221775085   -6.91784e-11   8.21196e-09 DIIS
   @RHF iter  14:  -462.89273221775431   -3.46745e-12   1.97043e-09 DIIS
   @RHF iter  15:  -462.89273221775176    2.55795e-12   6.57718e-10 DIIS
   @RHF iter  16:  -462.89273221775397   -2.21689e-12   1.83529e-10 DIIS
   @RHF iter  17:  -462.89273221775278    1.19371e-12   6.46106e-11 DIIS
  Energy and wave function converged.

  ==> Post-Iterations <==

    Orbital Energies [Eh]
    ---------------------

    Doubly Occupied:

       1A    -20.583969     2A    -11.300464     3A    -11.240187
       4A    -11.238897     5A    -11.234150     6A    -11.234025
       7A    -11.230975     8A    -11.228577     9A    -11.210231
      10A    -11.209665    11A    -11.209252    12A     -1.400433
      13A     -1.152263    14A     -1.050571    15A     -1.037583
      16A     -1.019446    17A     -0.927090    18A     -0.914861
      19A     -0.845517    20A     -0.803680    21A     -0.791173
      22A     -0.733152    23A     -0.669042    24A     -0.641832
      25A     -0.623335    26A     -0.608082    27A     -0.592716
      28A     -0.587713    29A     -0.586485    30A     -0.571404
      31A     -0.566973    32A     -0.537762    33A     -0.527241
      34A     -0.521869    35A     -0.497942    36A     -0.485875
      37A     -0.474296    38A     -0.465081    39A     -0.463887
      40A     -0.459305    41A     -0.339057    42A     -0.303036

    Virtual:

      43A      0.128518    44A      0.153818    45A      0.173269
      46A      0.178856    47A      0.195250    48A      0.208073
      49A      0.218419    50A      0.235692    51A      0.243579
      52A      0.257778    53A      0.262069    54A      0.265930
      55A      0.276343    56A      0.283300    57A      0.293250
      58A      0.305010    59A      0.317470    60A      0.331697
      61A      0.369076    62A      0.375076    63A      0.382537
      64A      0.425961    65A      0.430093    66A      0.455740
      67A      0.485315    68A      0.497804    69A      0.506794
      70A      0.585015    71A      0.602826    72A      0.607398
      73A      0.610771    74A      0.616331    75A      0.628401
      76A      0.646037    77A      0.660932    78A      0.672844
      79A      0.686839    80A      0.695058    81A      0.718734
      82A      0.726563    83A      0.735488    84A      0.762567
      85A      0.764932    86A      0.772142    87A      0.787000
      88A      0.801380    89A      0.820008    90A      0.827723
      91A      0.838126    92A      0.847881    93A      0.863992
      94A      0.870230    95A      0.878596    96A      0.882373
      97A      0.892591    98A      0.893738    99A      0.901562
     100A      0.906063   101A      0.908736   102A      0.914133
     103A      0.919750   104A      0.925778   105A      0.926658
     106A      0.939220   107A      0.953995   108A      0.963202
     109A      0.977311   110A      0.993430   111A      1.003418
     112A      1.015518   113A      1.040518   114A      1.091488
     115A      1.128521   116A      1.130228   117A      1.138968
     118A      1.142878   119A      1.148623   120A      1.172183
     121A      1.198932   122A      1.245448   123A      1.247604
     124A      1.266732   125A      1.284698   126A      1.292517
     127A      1.301895   128A      1.307542   129A      1.327468
     130A      1.358248   131A      1.363260   132A      1.380201
     133A      1.402126   134A      1.469877   135A      1.486592
     136A      1.497277   137A      1.504764   138A      1.530984
     139A      1.552462   140A      1.560293   141A      1.613172
     142A      1.618572   143A      1.623976   144A      1.686231
     145A      1.690404   146A      1.693987   147A      1.703933
     148A      1.714333   149A      1.739166   150A      1.746508
     151A      1.781819   152A      1.800737   153A      1.805785
     154A      1.856514   155A      1.865768   156A      1.876848
     157A      1.886385   158A      1.890727   159A      1.895541
     160A      1.906018   161A      1.915491   162A      1.920161
     163A      1.933461   164A      1.939148   165A      1.951183
     166A      1.954869   167A      1.965370   168A      1.971403
     169A      1.978496   170A      1.985105   171A      1.992947
     172A      1.996377   173A      2.020439   174A      2.038541
     175A      2.041505   176A      2.045420   177A      2.051702
     178A      2.061751   179A      2.069833   180A      2.076429
     181A      2.133167   182A      2.145858   183A      2.147853
     184A      2.155988   185A      2.163612   186A      2.200627
     187A      2.229946   188A      2.259866   189A      2.274205
     190A      2.296488   191A      2.305739   192A      2.307157
     193A      2.324348   194A      2.330109   195A      2.346411
     196A      2.366498   197A      2.426082   198A      2.450084
     199A      2.473689   200A      2.491981   201A      2.510320
     202A      2.531717   203A      2.537781   204A      2.549443
     205A      2.589509   206A      2.597486   207A      2.626234
     208A      2.639855   209A      2.647882   210A      2.750511
     211A      2.765848   212A      2.773377   213A      2.777572
     214A      2.792828   215A      2.796349   216A      2.806781
     217A      2.834256   218A      2.845933   219A      2.900050
     220A      2.924725   221A      2.965378   222A      2.970979
     223A      2.987080   224A      3.019285   225A      3.082058
     226A      3.103181   227A      3.118134   228A      3.248922
     229A      3.279566   230A      3.346439   231A      3.572852
     232A      3.672422   233A      3.971735   234A      4.189883

    Final Occupation by Irrep:
              A
    DOCC [    42 ]

  @RHF Final Energy:  -462.89273221775278

   => Energetics <=

    Nuclear Repulsion Energy =            587.2050377856429577
    One-Electron Energy =               -1791.9573557514254389
    Two-Electron Energy =                 741.8595857480296445
    Total Energy =                       -462.8927322177527230

Computation Completed

Properties will be evaluated at   0.000000,   0.000000,   0.000000 [a0]

Properties computed using the SCF density matrix

  Nuclear Dipole Moment: [e a0]
     X:    -5.5813      Y:    14.8109      Z:     2.9459

  Electronic Dipole Moment: [e a0]
     X:     5.5463      Y:   -14.9133      Z:    -3.5554

  Dipole Moment: [e a0]
     X:    -0.0350      Y:    -0.1024      Z:    -0.6095     Total:     0.6190

  Dipole Moment: [D]
     X:    -0.0890      Y:    -0.2603      Z:    -1.5492     Total:     1.5734

*** tstop() called on ds3 at Sun Apr 26 23:20:59 2020
Module time:
	user time   =     147.98 seconds =       2.47 minutes
	system time =      55.29 seconds =       0.92 minutes
	total time  =        205 seconds =       3.42 minutes
Total time:
	user time   =     147.98 seconds =       2.47 minutes
	system time =      55.29 seconds =       0.92 minutes
	total time  =        205 seconds =       3.42 minutes
                                     G D M A

                                 by Anthony Stone

                           version 2.2.06, 22 June 2011

               Distributed Multipoles from Gaussian wavefunctions

Starting at 23:20:59 on 26 Apr 2020

Using SCF density matrix from file ./SSI/SSI-023LYS-064TYR-2-dimer.test.27808.fchk

                         Distributed Multipole Analysis

Standard DMA

Positions and radii in angstrom
Multipole moments in atomic units, ea_0^k for rank k

C          x = -0.515627  y =  2.625850  z =  1.297024 angstrom
           Maximum rank =  0   Radius =  0.650 angstrom
                   Q00  =  -0.077742

C          x =  0.382373  y =  3.099850  z =  2.432024 angstrom
           Maximum rank =  0   Radius =  0.650 angstrom
                   Q00  =  -0.249110

C          x =  0.003373  y =  3.162850  z = -0.029976 angstrom
           Maximum rank =  0   Radius =  0.650 angstrom
                   Q00  =  -0.240880

H          x = -0.515627  y =  1.539850  z =  1.282024 angstrom
           Maximum rank =  0   Radius =  0.325 angstrom
                   Q00  =   0.070379

H          x = -1.535627  y =  2.980850  z =  1.455024 angstrom
           Maximum rank =  0   Radius =  0.325 angstrom
                   Q00  =   0.040174

H          x =  0.484373  y =  4.185850  z =  2.394024 angstrom
           Maximum rank =  0   Radius =  0.325 angstrom
                   Q00  =   0.071650

H          x =  1.371373  y =  2.668850  z =  2.268024 angstrom
           Maximum rank =  0   Radius =  0.325 angstrom
                   Q00  =   0.074183

H          x = -0.054627  y =  4.253850  z = -0.015976 angstrom
           Maximum rank =  0   Radius =  0.325 angstrom
                   Q00  =   0.071395

H          x =  1.047373  y =  2.866850  z = -0.158976 angstrom
           Maximum rank =  0   Radius =  0.325 angstrom
                   Q00  =   0.076037

H          x =  0.027438  y =  2.807550  z =  3.431314 angstrom
           Maximum rank =  0   Radius =  0.325 angstrom
                   Q00  =   0.080910

H          x = -0.586319  y =  2.776480  z = -0.874356 angstrom
           Maximum rank =  0   Radius =  0.325 angstrom
                   Q00  =   0.083290

C          x = -2.764627  y = -0.627150  z = -1.260976 angstrom
           Maximum rank =  0   Radius =  0.650 angstrom
                   Q00  =  -0.193139

C          x = -0.950627  y = -0.907150  z =  0.471024 angstrom
           Maximum rank =  0   Radius =  0.650 angstrom
                   Q00  =   0.029491

C          x = -1.335627  y = -0.932150  z = -0.867976 angstrom
           Maximum rank =  0   Radius =  0.650 angstrom
                   Q00  =  -0.139441

C          x =  0.362373  y = -1.183150  z =  0.841024 angstrom
           Maximum rank =  0   Radius =  0.650 angstrom
                   Q00  =  -0.114842

C          x = -0.378627  y = -1.234150  z = -1.835976 angstrom
           Maximum rank =  0   Radius =  0.650 angstrom
                   Q00  =  -0.022885

C          x =  1.306373  y = -1.484150  z = -0.134976 angstrom
           Maximum rank =  0   Radius =  0.650 angstrom
                   Q00  =   0.329207

C          x =  0.936373  y = -1.510150  z = -1.474976 angstrom
           Maximum rank =  0   Radius =  0.650 angstrom
                   Q00  =  -0.198756

O          x =  2.592373  y = -1.754150  z =  0.225024 angstrom
           Maximum rank =  0   Radius =  0.650 angstrom
                   Q00  =  -0.676489

H          x = -1.678627  y = -0.659150  z =  1.231024 angstrom
           Maximum rank =  0   Radius =  0.325 angstrom
                   Q00  =   0.064608

H          x =  0.656373  y = -1.160150  z =  1.881024 angstrom
           Maximum rank =  0   Radius =  0.325 angstrom
                   Q00  =   0.081123

H          x = -2.765627  y = -0.118150  z = -2.225976 angstrom
           Maximum rank =  0   Radius =  0.325 angstrom
                   Q00  =   0.094939

H          x = -3.171627  y =  0.069850  z = -0.532976 angstrom
           Maximum rank =  0   Radius =  0.325 angstrom
                   Q00  =   0.097028

H          x = -0.661627  y = -1.257150  z = -2.881976 angstrom
           Maximum rank =  0   Radius =  0.325 angstrom
                   Q00  =   0.069007

H          x =  1.668373  y = -1.741150  z = -2.237976 angstrom
           Maximum rank =  0   Radius =  0.325 angstrom
                   Q00  =   0.071669

H          x =  3.161373  y = -1.894150  z = -0.540976 angstrom
           Maximum rank =  0   Radius =  0.325 angstrom
                   Q00  =   0.407092

H          x = -3.413801  y = -1.512320  z = -1.331986 angstrom
           Maximum rank =  0   Radius =  0.325 angstrom
                   Q00  =   0.101098

Total multipoles referred to origin at
           x =   0.000000,  y =    0.000000,  z =    0.000000 angstrom
                   Q00  =  -0.000000

Finished at 23:20:59 on 26 Apr 2020

  DMA results are available in the Python driver through the
	  variable('DMA DISTRIBUTED MULTIPOLES')
  and
	  variable('DMA TOTAL MULTIPOLES')
  commands.

    Psi4 stopped on: Sunday, 26 April 2020 11:20PM
    Psi4 wall time for execution: 0:03:25.24

*** Psi4 exiting successfully. Buy a developer a beer!
