                               Psi4 1.3.2 release

  ==> Input File <==

--------------------------------------------------------------------------
import numpy as np
set {scf_type pk
basis cc-pvdz
d_convergence 10
gdma_switch   0
gdma_limit    0
gdma_origin   [ 0.0,  0.0,  0.0 ]
}
molecule test {
    units Angstrom
    0 1
    --
    0 1
    C               -0.522718214590140    -2.533774517242438    -1.854004468939813
    C               -0.962718214590140    -3.955774517242439    -2.182004468939813
    H               -1.058718214590140    -2.173774517242439    -0.977004468939813
    H                0.544281785409860    -2.527774517242439    -1.639004468939813
    H               -0.716718214590140    -1.870774517242438    -2.696004468939813
    H               -0.465718214590140    -4.270774517242439    -3.096004468939813
    H               -2.053790214590140    -3.996555517242439    -2.315794468939813
    H               -0.661968214590140    -4.627953517242439    -1.364864468939813
    C               -1.079718214590140     1.627225482757562    -1.326004468939813
    C               -0.643718214590140     0.199225482757561     0.720995531060187
    C               -0.282718214590140     1.282225482757561    -0.092004468939813
    C                0.129281785409860    -0.135774517242439     1.831995531060187
    C                0.843281785409860     2.037225482757562     0.236995531060187
    C                1.265281785409860     0.624225482757561     2.148995531060187
    C                1.621281785409860     1.714225482757562     1.346995531060187
    H               -1.514718214590140    -0.392774517242439     0.480995531060187
    H               -0.147718214590140    -0.976774517242439     2.450995531060187
    H               -1.526718214590140     0.709225482757561    -1.707004468939813
    H               -0.395718214590140     1.987225482757561    -2.093004468939813
    H                1.129281785409860     2.873225482757562    -0.385004468939813
    H                1.862281785409860     0.366225482757561     3.009995531060187
    H                2.499281785409860     2.298225482757561     1.585995531060187
    H               -1.869530214590140     2.374713482757561    -1.160294468939813

}
e, wfn = energy('scf', return_wfn=True)
gdma(wfn)
dmavals = variable('DMA DISTRIBUTED MULTIPOLES')
charges = np.array(dmavals)
print(charges)
np.save('SSI-038VAL-082PHE-1-dimer.npy', np.array(charges))--------------------------------------------------------------------------

*** tstart() called on ds3
*** at Mon Apr 27 17:03:38 2020

   => Loading Basis Set <=

    Name: CC-PVDZ
    Role: ORBITAL
    Keyword: BASIS
    atoms 1-2, 9-15  entry C          line   138 file /theoryfs2/ds/metcalf/miniconda2/envs/tf2gpu/share/psi4/basis/cc-pvdz.gbs
    atoms 3-8, 16-23 entry H          line    22 file /theoryfs2/ds/metcalf/miniconda2/envs/tf2gpu/share/psi4/basis/cc-pvdz.gbs

         ---------------------------------------------------------
                                   SCF
               by Justin Turney, Rob Parrish, Andy Simmonett
                          and Daniel G. A. Smith
                              RHF Reference
                        1 Threads,    500 MiB Core
         ---------------------------------------------------------

  ==> Geometry <==

    Molecular point group: c1
    Full point group: C1

    Geometry (in Angstrom), charge = 0, multiplicity = 1:

       Center              X                  Y                   Z               Mass
    ------------   -----------------  -----------------  -----------------  -----------------
         C           -0.522718214590    -2.533774517242    -1.854004468940    12.000000000000
         C           -0.962718214590    -3.955774517242    -2.182004468940    12.000000000000
         H           -1.058718214590    -2.173774517242    -0.977004468940     1.007825032230
         H            0.544281785410    -2.527774517242    -1.639004468940     1.007825032230
         H           -0.716718214590    -1.870774517242    -2.696004468940     1.007825032230
         H           -0.465718214590    -4.270774517242    -3.096004468940     1.007825032230
         H           -2.053790214590    -3.996555517242    -2.315794468940     1.007825032230
         H           -0.661968214590    -4.627953517242    -1.364864468940     1.007825032230
         C           -1.079718214590     1.627225482758    -1.326004468940    12.000000000000
         C           -0.643718214590     0.199225482758     0.720995531060    12.000000000000
         C           -0.282718214590     1.282225482758    -0.092004468940    12.000000000000
         C            0.129281785410    -0.135774517242     1.831995531060    12.000000000000
         C            0.843281785410     2.037225482758     0.236995531060    12.000000000000
         C            1.265281785410     0.624225482758     2.148995531060    12.000000000000
         C            1.621281785410     1.714225482758     1.346995531060    12.000000000000
         H           -1.514718214590    -0.392774517242     0.480995531060     1.007825032230
         H           -0.147718214590    -0.976774517242     2.450995531060     1.007825032230
         H           -1.526718214590     0.709225482758    -1.707004468940     1.007825032230
         H           -0.395718214590     1.987225482758    -2.093004468940     1.007825032230
         H            1.129281785410     2.873225482758    -0.385004468940     1.007825032230
         H            1.862281785410     0.366225482758     3.009995531060     1.007825032230
         H            2.499281785410     2.298225482758     1.585995531060     1.007825032230
         H           -1.869530214590     2.374713482758    -1.160294468940     1.007825032230

  Running in c1 symmetry.

  Rotational constants: A =      0.07294  B =      0.02287  C =      0.01927 [cm^-1]
  Rotational constants: A =   2186.62903  B =    685.58824  C =    577.83733 [MHz]
  Nuclear repulsion =  402.747100742082978

  Charge       = 0
  Multiplicity = 1
  Electrons    = 68
  Nalpha       = 34
  Nbeta        = 34

  ==> Algorithm <==

  SCF Algorithm Type is PK.
  DIIS enabled.
  MOM disabled.
  Fractional occupation disabled.
  Guess Type is SAD.
  Energy threshold   = 1.00e-06
  Density threshold  = 1.00e-10
  Integral threshold = 0.00e+00

  ==> Primary Basis <==

  Basis Set: CC-PVDZ
    Blend: CC-PVDZ
    Number of shells: 96
    Number of basis function: 196
    Number of Cartesian functions: 205
    Spherical Harmonics?: true
    Max angular momentum: 2

  ==> Pre-Iterations <==

   -------------------------------------------------------
    Irrep   Nso     Nmo     Nalpha   Nbeta   Ndocc  Nsocc
   -------------------------------------------------------
     A        196     196       0       0       0       0
   -------------------------------------------------------
    Total     196     196      34      34      34       0
   -------------------------------------------------------

  ==> Integral Setup <==

  Using integral reordering PK algorithm.
  Sizing the integral batches needed.
  Building batch lookup table.
   Calculation information:
      Number of atoms:                  23
      Number of AO shells:              96
      Number of primitives:            268
      Number of atomic orbitals:       205
      Number of basis functions:       196

      Integral cutoff                 1.00e-12
      Number of threads:                 1

	Batch   1 pq = [       0,    9405] index = [             0,44231715] size =     44231715
	Batch   2 pq = [    9405,   13301] index = [      44231715,88464951] size =     44233236
	Batch   3 pq = [   13301,   16290] index = [      88464951,132690195] size =     44225244
	Batch   4 pq = [   16290,   18810] index = [     132690195,176917455] size =     44227260
	Batch   5 pq = [   18810,   19306] index = [     176917455,186370471] size =      9453016
  Task number: 17
  Buffer size: 11059200
  Buffer per thread: 2
  We computed 9075504 shell quartets total.
  Whereas there are 10841496 unique shell quartets.

  ==> DiskJK: Disk-Based J/K Matrices <==

    J tasked:                  Yes
    K tasked:                  Yes
    wK tasked:                  No
    Memory [MiB]:              375
    Schwarz Cutoff:          1E-12

    OpenMP threads:              1

  Minimum eigenvalue in the overlap matrix is 3.1956431805E-04.
  Using Symmetric Orthogonalization.

  SCF Guess: Superposition of Atomic Densities via on-the-fly atomic UHF.

  ==> Iterations <==

                        Total Energy        Delta E     RMS |[F,P]|

   @RHF iter SAD:  -347.81807030698826   -3.47818e+02   0.00000e+00
   @RHF iter   1:  -348.76813999552633   -9.50070e-01   2.88501e-03 DIIS
   @RHF iter   2:  -348.95990803312753   -1.91768e-01   1.19021e-03 DIIS
   @RHF iter   3:  -348.98965498886474   -2.97470e-02   2.58061e-04 DIIS
   @RHF iter   4:  -348.99212120398641   -2.46622e-03   5.44673e-05 DIIS
   @RHF iter   5:  -348.99219790537410   -7.67014e-05   1.87084e-05 DIIS
   @RHF iter   6:  -348.99220644823697   -8.54286e-06   4.91744e-06 DIIS
   @RHF iter   7:  -348.99220714787270   -6.99636e-07   1.25917e-06 DIIS
   @RHF iter   8:  -348.99220720558117   -5.77085e-08   3.60474e-07 DIIS
   @RHF iter   9:  -348.99220721484517   -9.26400e-09   1.77959e-07 DIIS
   @RHF iter  10:  -348.99220721735708   -2.51191e-09   8.53408e-08 DIIS
   @RHF iter  11:  -348.99220721826271   -9.05629e-10   3.06590e-08 DIIS
   @RHF iter  12:  -348.99220721835144   -8.87326e-11   1.36233e-08 DIIS
   @RHF iter  13:  -348.99220721836087   -9.43601e-12   4.46005e-09 DIIS
   @RHF iter  14:  -348.99220721836252   -1.64846e-12   1.20597e-09 DIIS
   @RHF iter  15:  -348.99220721836303   -5.11591e-13   3.73883e-10 DIIS
   @RHF iter  16:  -348.99220721836144    1.59162e-12   1.09644e-10 DIIS
   @RHF iter  17:  -348.99220721836110    3.41061e-13   4.54443e-11 DIIS
  Energy and wave function converged.

  ==> Post-Iterations <==

    Orbital Energies [Eh]
    ---------------------

    Doubly Occupied:

       1A    -11.241064     2A    -11.236619     3A    -11.236117
       4A    -11.232725     5A    -11.231571     6A    -11.230008
       7A    -11.228262     8A    -11.217398     9A    -11.213687
      10A     -1.148805    11A     -1.040892    12A     -1.018488
      13A     -1.010470    14A     -0.929130    15A     -0.834664
      16A     -0.822572    17A     -0.794805    18A     -0.689217
      19A     -0.630908    20A     -0.628501    21A     -0.599384
      22A     -0.597225    23A     -0.582364    24A     -0.576417
      25A     -0.559891    26A     -0.533287    27A     -0.498532
      28A     -0.488510    29A     -0.485612    30A     -0.482677
      31A     -0.481538    32A     -0.478711    33A     -0.331315
      34A     -0.319457

    Virtual:

      35A      0.136396    36A      0.138873    37A      0.174656
      38A      0.195490    39A      0.200422    40A      0.218359
      41A      0.237072    42A      0.246679    43A      0.251450
      44A      0.258523    45A      0.264137    46A      0.274606
      47A      0.283860    48A      0.287567    49A      0.310789
      50A      0.336985    51A      0.371297    52A      0.378248
      53A      0.399932    54A      0.452805    55A      0.461139
      56A      0.481794    57A      0.490633    58A      0.559820
      59A      0.582124    60A      0.597284    61A      0.601356
      62A      0.605912    63A      0.661793    64A      0.670359
      65A      0.678044    66A      0.680277    67A      0.699519
      68A      0.714556    69A      0.720589    70A      0.738509
      71A      0.739958    72A      0.745312    73A      0.762650
      74A      0.772203    75A      0.781906    76A      0.793880
      77A      0.829723    78A      0.852881    79A      0.864317
      80A      0.869889    81A      0.875136    82A      0.890180
      83A      0.893487    84A      0.896034    85A      0.898958
      86A      0.905919    87A      0.910645    88A      0.914626
      89A      0.923680    90A      0.939627    91A      0.957439
      92A      0.980453    93A      0.988745    94A      1.005772
      95A      1.010994    96A      1.054995    97A      1.113896
      98A      1.126578    99A      1.135837   100A      1.140031
     101A      1.151749   102A      1.155026   103A      1.185342
     104A      1.230571   105A      1.238804   106A      1.242440
     107A      1.255826   108A      1.261860   109A      1.296685
     110A      1.304179   111A      1.323842   112A      1.328984
     113A      1.413616   114A      1.479015   115A      1.481829
     116A      1.513522   117A      1.520697   118A      1.554428
     119A      1.584091   120A      1.600751   121A      1.679769
     122A      1.682487   123A      1.694917   124A      1.702625
     125A      1.733057   126A      1.751590   127A      1.754523
     128A      1.790183   129A      1.806539   130A      1.849443
     131A      1.865614   132A      1.870058   133A      1.880520
     134A      1.886830   135A      1.907707   136A      1.909964
     137A      1.922427   138A      1.925727   139A      1.939880
     140A      1.945412   141A      1.950976   142A      1.951462
     143A      1.956974   144A      1.963683   145A      1.978947
     146A      1.987053   147A      1.996814   148A      2.001250
     149A      2.046890   150A      2.061824   151A      2.071144
     152A      2.109342   153A      2.114038   154A      2.118287
     155A      2.144105   156A      2.153317   157A      2.154969
     158A      2.168575   159A      2.173782   160A      2.255562
     161A      2.275824   162A      2.292754   163A      2.299419
     164A      2.301445   165A      2.315015   166A      2.319029
     167A      2.321502   168A      2.462088   169A      2.465390
     170A      2.473484   171A      2.475305   172A      2.489188
     173A      2.542526   174A      2.568172   175A      2.581921
     176A      2.618547   177A      2.737668   178A      2.749734
     179A      2.766505   180A      2.776198   181A      2.783240
     182A      2.797336   183A      2.807604   184A      2.846838
     185A      2.852957   186A      2.860297   187A      2.873259
     188A      2.949180   189A      2.972471   190A      2.974944
     191A      3.002093   192A      3.022973   193A      3.145855
     194A      3.190458   195A      3.288561   196A      3.951236

    Final Occupation by Irrep:
              A
    DOCC [    34 ]

  @RHF Final Energy:  -348.99220721836110

   => Energetics <=

    Nuclear Repulsion Energy =            402.7471007420829778
    One-Electron Energy =               -1268.2169766652291401
    Two-Electron Energy =                 516.4776687047850601
    Total Energy =                       -348.9922072183611590

Computation Completed

Properties will be evaluated at   0.000000,   0.000000,   0.000000 [a0]

Properties computed using the SCF density matrix

  Nuclear Dipole Moment: [e a0]
     X:    -4.1025      Y:    -9.5887      Z:    -9.2866

  Electronic Dipole Moment: [e a0]
     X:     4.0755      Y:     9.6247      Z:     9.1864

  Dipole Moment: [e a0]
     X:    -0.0271      Y:     0.0360      Z:    -0.1002     Total:     0.1098

  Dipole Moment: [D]
     X:    -0.0688      Y:     0.0915      Z:    -0.2546     Total:     0.2792

*** tstop() called on ds3 at Mon Apr 27 17:05:23 2020
Module time:
	user time   =      63.33 seconds =       1.06 minutes
	system time =      27.43 seconds =       0.46 minutes
	total time  =        105 seconds =       1.75 minutes
Total time:
	user time   =      63.33 seconds =       1.06 minutes
	system time =      27.43 seconds =       0.46 minutes
	total time  =        105 seconds =       1.75 minutes
                                     G D M A

                                 by Anthony Stone

                           version 2.2.06, 22 June 2011

               Distributed Multipoles from Gaussian wavefunctions

Starting at 17:5:23 on 27 Apr 2020

Using SCF density matrix from file ./SSI/SSI-038VAL-082PHE-1-dimer.test.4875.fchk

                         Distributed Multipole Analysis

Standard DMA

Positions and radii in angstrom
Multipole moments in atomic units, ea_0^k for rank k

C          x = -0.522718  y = -2.533775  z = -1.854004 angstrom
           Maximum rank =  0   Radius =  0.650 angstrom
                   Q00  =  -0.237251

C          x = -0.962718  y = -3.955775  z = -2.182004 angstrom
           Maximum rank =  0   Radius =  0.650 angstrom
                   Q00  =  -0.230876

H          x = -1.058718  y = -2.173775  z = -0.977004 angstrom
           Maximum rank =  0   Radius =  0.325 angstrom
                   Q00  =   0.075534

H          x =  0.544282  y = -2.527775  z = -1.639004 angstrom
           Maximum rank =  0   Radius =  0.325 angstrom
                   Q00  =   0.083693

H          x = -0.716718  y = -1.870775  z = -2.696004 angstrom
           Maximum rank =  0   Radius =  0.325 angstrom
                   Q00  =   0.076159

H          x = -0.465718  y = -4.270775  z = -3.096004 angstrom
           Maximum rank =  0   Radius =  0.325 angstrom
                   Q00  =   0.079187

H          x = -2.053790  y = -3.996556  z = -2.315794 angstrom
           Maximum rank =  0   Radius =  0.325 angstrom
                   Q00  =   0.076439

H          x = -0.661968  y = -4.627954  z = -1.364864 angstrom
           Maximum rank =  0   Radius =  0.325 angstrom
                   Q00  =   0.077244

C          x = -1.079718  y =  1.627225  z = -1.326004 angstrom
           Maximum rank =  0   Radius =  0.650 angstrom
                   Q00  =  -0.202806

C          x = -0.643718  y =  0.199225  z =  0.720996 angstrom
           Maximum rank =  0   Radius =  0.650 angstrom
                   Q00  =  -0.055013

C          x = -0.282718  y =  1.282225  z = -0.092004 angstrom
           Maximum rank =  0   Radius =  0.650 angstrom
                   Q00  =  -0.101863

C          x =  0.129282  y = -0.135775  z =  1.831996 angstrom
           Maximum rank =  0   Radius =  0.650 angstrom
                   Q00  =  -0.072169

C          x =  0.843282  y =  2.037225  z =  0.236996 angstrom
           Maximum rank =  0   Radius =  0.650 angstrom
                   Q00  =  -0.013948

C          x =  1.265282  y =  0.624225  z =  2.148996 angstrom
           Maximum rank =  0   Radius =  0.650 angstrom
                   Q00  =  -0.090551

C          x =  1.621282  y =  1.714225  z =  1.346996 angstrom
           Maximum rank =  0   Radius =  0.650 angstrom
                   Q00  =  -0.076444

H          x = -1.514718  y = -0.392775  z =  0.480996 angstrom
           Maximum rank =  0   Radius =  0.325 angstrom
                   Q00  =   0.059282

H          x = -0.147718  y = -0.976775  z =  2.450996 angstrom
           Maximum rank =  0   Radius =  0.325 angstrom
                   Q00  =   0.066304

H          x = -1.526718  y =  0.709225  z = -1.707004 angstrom
           Maximum rank =  0   Radius =  0.325 angstrom
                   Q00  =   0.098699

H          x = -0.395718  y =  1.987225  z = -2.093004 angstrom
           Maximum rank =  0   Radius =  0.325 angstrom
                   Q00  =   0.098671

H          x =  1.129282  y =  2.873225  z = -0.385004 angstrom
           Maximum rank =  0   Radius =  0.325 angstrom
                   Q00  =   0.056082

H          x =  1.862282  y =  0.366225  z =  3.009996 angstrom
           Maximum rank =  0   Radius =  0.325 angstrom
                   Q00  =   0.062937

H          x =  2.499282  y =  2.298225  z =  1.585996 angstrom
           Maximum rank =  0   Radius =  0.325 angstrom
                   Q00  =   0.066033

H          x = -1.869530  y =  2.374713  z = -1.160294 angstrom
           Maximum rank =  0   Radius =  0.325 angstrom
                   Q00  =   0.104657

Total multipoles referred to origin at
           x =   0.000000,  y =    0.000000,  z =    0.000000 angstrom
                   Q00  =  -0.000000

Finished at 17:5:23 on 27 Apr 2020

  DMA results are available in the Python driver through the
	  variable('DMA DISTRIBUTED MULTIPOLES')
  and
	  variable('DMA TOTAL MULTIPOLES')
  commands.

    Psi4 stopped on: Monday, 27 April 2020 05:05PM
    Psi4 wall time for execution: 0:01:45.19

*** Psi4 exiting successfully. Buy a developer a beer!
