                               Psi4 1.3.2 release

  ==> Input File <==

--------------------------------------------------------------------------
import numpy as np
set {scf_type pk
basis cc-pvdz
d_convergence 10
gdma_switch   0
gdma_limit    0
gdma_origin   [ 0.0,  0.0,  0.0 ]
}
molecule test {
    units Angstrom
    0 1
    --
    0 1
    C                0.060821678270071     1.301834257199603    -2.597835553994850
    C                0.297821678270071     1.767834257199603    -4.014835553994850
    C                1.216821678270071     0.563834257199603    -1.991835553994850
    C                2.209821678270071     1.221834257199603    -1.279835553994850
    C                1.242821678270071    -0.818165742800397    -2.091835553994851
    C                3.281821678270072     0.498834257199603    -0.741835553994850
    C                2.263821678270071    -1.554165742800397    -1.525835553994850
    C                3.287821678270071    -0.914165742800397    -0.809835553994850
    H               -0.151178321729929     2.173834257199602    -1.979835553994850
    H               -0.818178321729929     0.661834257199603    -2.552835553994850
    H                1.122821678270071     2.479834257199603    -4.051835553994851
    H                2.184821678270072     2.298834257199602    -1.190835553994850
    H                0.456821678270071    -1.334165742800397    -2.622835553994850
    H                4.085821678270071     1.007834257199603    -0.233835553994850
    H                2.268821678270072    -2.631165742800398    -1.625835553994851
    H                4.091821678270071    -1.486165742800397    -0.366835553994850
    H               -0.635575321729929     2.214474257199603    -4.388043553994850
    H                0.528776678270071     0.898864257199603    -4.648518553994850
    C               -1.731178321729929     2.492834257199602     0.905164446005150
    C               -0.686178321729929     0.165834257199603     1.000164446005150
    C               -1.719178321729929     1.049834257199603     1.379164446005150
    C               -0.639178321729929    -1.158165742800398     1.493164446005149
    C               -1.658178321729929    -1.585165742800397     2.346164446005150
    C               -2.687178321729928     0.600834257199603     2.298164446005150
    C               -2.630178321729928    -0.709165742800397     2.784164446005150
    O               -1.617178321729929    -2.841165742800397     2.842164446005150
    H                0.094821678270071     0.511834257199603     0.341164446005150
    H                0.157821678270071    -1.824165742800397     1.193164446005150
    H               -2.710178321729929     2.939834257199603     1.083164446005150
    H               -1.547178321729929     2.503834257199603    -0.167835553994850
    H               -3.500178321729928     1.249834257199603     2.577164446005150
    H               -0.879178321729929    -3.348165742800397     2.488164446005150
    H               -3.259178321729928    -1.127165742800397     3.529164446005150
    H               -0.953013321729929     3.079824257199603     1.414974446005150

}
e, wfn = energy('scf', return_wfn=True)
gdma(wfn)
dmavals = variable('DMA DISTRIBUTED MULTIPOLES')
charges = np.array(dmavals)
print(charges)
np.save('SSI-155PHE-277TYR-1-dimer.npy', np.array(charges))--------------------------------------------------------------------------

*** tstart() called on ds3
*** at Tue Apr 28 17:32:27 2020

   => Loading Basis Set <=

    Name: CC-PVDZ
    Role: ORBITAL
    Keyword: BASIS
    atoms 1-8, 19-25  entry C          line   138 file /theoryfs2/ds/metcalf/miniconda2/envs/tf2gpu/share/psi4/basis/cc-pvdz.gbs
    atoms 9-18, 27-34 entry H          line    22 file /theoryfs2/ds/metcalf/miniconda2/envs/tf2gpu/share/psi4/basis/cc-pvdz.gbs
    atoms 26          entry O          line   198 file /theoryfs2/ds/metcalf/miniconda2/envs/tf2gpu/share/psi4/basis/cc-pvdz.gbs

         ---------------------------------------------------------
                                   SCF
               by Justin Turney, Rob Parrish, Andy Simmonett
                          and Daniel G. A. Smith
                              RHF Reference
                        1 Threads,    500 MiB Core
         ---------------------------------------------------------

  ==> Geometry <==

    Molecular point group: c1
    Full point group: C1

    Geometry (in Angstrom), charge = 0, multiplicity = 1:

       Center              X                  Y                   Z               Mass
    ------------   -----------------  -----------------  -----------------  -----------------
         C            0.060821678270     1.301834257200    -2.597835553995    12.000000000000
         C            0.297821678270     1.767834257200    -4.014835553995    12.000000000000
         C            1.216821678270     0.563834257200    -1.991835553995    12.000000000000
         C            2.209821678270     1.221834257200    -1.279835553995    12.000000000000
         C            1.242821678270    -0.818165742800    -2.091835553995    12.000000000000
         C            3.281821678270     0.498834257200    -0.741835553995    12.000000000000
         C            2.263821678270    -1.554165742800    -1.525835553995    12.000000000000
         C            3.287821678270    -0.914165742800    -0.809835553995    12.000000000000
         H           -0.151178321730     2.173834257200    -1.979835553995     1.007825032230
         H           -0.818178321730     0.661834257200    -2.552835553995     1.007825032230
         H            1.122821678270     2.479834257200    -4.051835553995     1.007825032230
         H            2.184821678270     2.298834257200    -1.190835553995     1.007825032230
         H            0.456821678270    -1.334165742800    -2.622835553995     1.007825032230
         H            4.085821678270     1.007834257200    -0.233835553995     1.007825032230
         H            2.268821678270    -2.631165742800    -1.625835553995     1.007825032230
         H            4.091821678270    -1.486165742800    -0.366835553995     1.007825032230
         H           -0.635575321730     2.214474257200    -4.388043553995     1.007825032230
         H            0.528776678270     0.898864257200    -4.648518553995     1.007825032230
         C           -1.731178321730     2.492834257200     0.905164446005    12.000000000000
         C           -0.686178321730     0.165834257200     1.000164446005    12.000000000000
         C           -1.719178321730     1.049834257200     1.379164446005    12.000000000000
         C           -0.639178321730    -1.158165742800     1.493164446005    12.000000000000
         C           -1.658178321730    -1.585165742800     2.346164446005    12.000000000000
         C           -2.687178321730     0.600834257200     2.298164446005    12.000000000000
         C           -2.630178321730    -0.709165742800     2.784164446005    12.000000000000
         O           -1.617178321730    -2.841165742800     2.842164446005    15.994914619570
         H            0.094821678270     0.511834257200     0.341164446005     1.007825032230
         H            0.157821678270    -1.824165742800     1.193164446005     1.007825032230
         H           -2.710178321730     2.939834257200     1.083164446005     1.007825032230
         H           -1.547178321730     2.503834257200    -0.167835553995     1.007825032230
         H           -3.500178321730     1.249834257200     2.577164446005     1.007825032230
         H           -0.879178321730    -3.348165742800     2.488164446005     1.007825032230
         H           -3.259178321730    -1.127165742800     3.529164446005     1.007825032230
         H           -0.953013321730     3.079824257200     1.414974446005     1.007825032230

  Running in c1 symmetry.

  Rotational constants: A =      0.02322  B =      0.00984  C =      0.00799 [cm^-1]
  Rotational constants: A =    696.12115  B =    295.12737  C =    239.60044 [MHz]
  Nuclear repulsion = 1007.280946062185990

  Charge       = 0
  Multiplicity = 1
  Electrons    = 116
  Nalpha       = 58
  Nbeta        = 58

  ==> Algorithm <==

  SCF Algorithm Type is PK.
  DIIS enabled.
  MOM disabled.
  Fractional occupation disabled.
  Guess Type is SAD.
  Energy threshold   = 1.00e-06
  Density threshold  = 1.00e-10
  Integral threshold = 0.00e+00

  ==> Primary Basis <==

  Basis Set: CC-PVDZ
    Blend: CC-PVDZ
    Number of shells: 150
    Number of basis function: 314
    Number of Cartesian functions: 330
    Spherical Harmonics?: true
    Max angular momentum: 2

  ==> Pre-Iterations <==

   -------------------------------------------------------
    Irrep   Nso     Nmo     Nalpha   Nbeta   Ndocc  Nsocc
   -------------------------------------------------------
     A        314     314       0       0       0       0
   -------------------------------------------------------
    Total     314     314      58      58      58       0
   -------------------------------------------------------

  ==> Integral Setup <==

  Using integral reordering PK algorithm.
  Sizing the integral batches needed.
  Building batch lookup table.
   Calculation information:
      Number of atoms:                  34
      Number of AO shells:             150
      Number of primitives:            442
      Number of atomic orbitals:       330
      Number of basis functions:       314

      Integral cutoff                 1.00e-12
      Number of threads:                 1

	Batch   1 pq = [       0,    9405] index = [             0,44231715] size =     44231715
	Batch   2 pq = [    9405,   13301] index = [      44231715,88464951] size =     44233236
	Batch   3 pq = [   13301,   16290] index = [      88464951,132690195] size =     44225244
	Batch   4 pq = [   16290,   18810] index = [     132690195,176917455] size =     44227260
	Batch   5 pq = [   18810,   21030] index = [     176917455,221140965] size =     44223510
	Batch   6 pq = [   21030,   23037] index = [     221140965,265363203] size =     44222238
	Batch   7 pq = [   23037,   24883] index = [     265363203,309594286] size =     44231083
	Batch   8 pq = [   24883,   26601] index = [     309594286,353819901] size =     44225615
	Batch   9 pq = [   26601,   28214] index = [     353819901,398029005] size =     44209104
	Batch  10 pq = [   28214,   29740] index = [     398029005,442248670] size =     44219665
	Batch  11 pq = [   29740,   31191] index = [     442248670,486454836] size =     44206166
	Batch  12 pq = [   31191,   32578] index = [     486454836,530679331] size =     44224495
	Batch  13 pq = [   32578,   33908] index = [     530679331,574893186] size =     44213855
	Batch  14 pq = [   33908,   35188] index = [     574893186,619115266] size =     44222080
	Batch  15 pq = [   35188,   36423] index = [     619115266,663335676] size =     44220410
	Batch  16 pq = [   36423,   37617] index = [     663335676,707538153] size =     44202477
	Batch  17 pq = [   37617,   38775] index = [     707538153,751769700] size =     44231547
	Batch  18 pq = [   38775,   39899] index = [     751769700,795985050] size =     44215350
	Batch  19 pq = [   39899,   40992] index = [     795985050,840192528] size =     44207478
	Batch  20 pq = [   40992,   42057] index = [     840192528,884416653] size =     44224125
	Batch  21 pq = [   42057,   43095] index = [     884416653,928611060] size =     44194407
	Batch  22 pq = [   43095,   44109] index = [     928611060,972823995] size =     44212935
	Batch  23 pq = [   44109,   45100] index = [     972823995,1017027550] size =     44203555
	Batch  24 pq = [   45100,   46070] index = [    1017027550,1061245485] size =     44217935
	Batch  25 pq = [   46070,   47020] index = [    1061245485,1105463710] size =     44218225
	Batch  26 pq = [   47020,   47951] index = [    1105463710,1149673176] size =     44209466
	Batch  27 pq = [   47951,   48864] index = [    1149673176,1193869680] size =     44196504
	Batch  28 pq = [   48864,   49455] index = [    1193869680,1222923240] size =     29053560
  Task number: 111
  Buffer size: 11059200
  Buffer per thread: 2
  We computed 69185219 shell quartets total.
  Whereas there are 64133475 unique shell quartets.
     7.88 percent of shell quartets recomputed by reordering.

  ==> DiskJK: Disk-Based J/K Matrices <==

    J tasked:                  Yes
    K tasked:                  Yes
    wK tasked:                  No
    Memory [MiB]:              375
    Schwarz Cutoff:          1E-12

    OpenMP threads:              1

  Minimum eigenvalue in the overlap matrix is 3.2309180214E-04.
  Using Symmetric Orthogonalization.

  SCF Guess: Superposition of Atomic Densities via on-the-fly atomic UHF.

  ==> Iterations <==

                        Total Energy        Delta E     RMS |[F,P]|

   @RHF iter SAD:  -652.19741646755620   -6.52197e+02   0.00000e+00
   @RHF iter   1:  -653.06947813506270   -8.72062e-01   2.25798e-03 DIIS
   @RHF iter   2:  -653.36441465799828   -2.94937e-01   9.24033e-04 DIIS
   @RHF iter   3:  -653.40790637809812   -4.34917e-02   2.22774e-04 DIIS
   @RHF iter   4:  -653.41176073719839   -3.85436e-03   8.56623e-05 DIIS
   @RHF iter   5:  -653.41218360201981   -4.22865e-04   1.73422e-05 DIIS
   @RHF iter   6:  -653.41220815194663   -2.45499e-05   5.14047e-06 DIIS
   @RHF iter   7:  -653.41221066664389   -2.51470e-06   1.83408e-06 DIIS
   @RHF iter   8:  -653.41221108619209   -4.19548e-07   7.31417e-07 DIIS
   @RHF iter   9:  -653.41221118513477   -9.89427e-08   3.46962e-07 DIIS
   @RHF iter  10:  -653.41221121153580   -2.64010e-08   1.60080e-07 DIIS
   @RHF iter  11:  -653.41221121901572   -7.47991e-09   6.07882e-08 DIIS
   @RHF iter  12:  -653.41221121989531   -8.79595e-10   2.51826e-08 DIIS
   @RHF iter  13:  -653.41221122000195   -1.06638e-10   6.45395e-09 DIIS
   @RHF iter  14:  -653.41221122000502   -3.06954e-12   2.18874e-09 DIIS
   @RHF iter  15:  -653.41221122000877   -3.75167e-12   6.26640e-10 DIIS
   @RHF iter  16:  -653.41221122000525    3.52429e-12   2.87924e-10 DIIS
   @RHF iter  17:  -653.41221122000729   -2.04636e-12   1.24801e-10 DIIS
   @RHF iter  18:  -653.41221122000843   -1.13687e-12   5.85614e-11 DIIS
  Energy and wave function converged.

  ==> Post-Iterations <==

    Orbital Energies [Eh]
    ---------------------

    Doubly Occupied:

       1A    -20.577440     2A    -11.289492     3A    -11.245671
       4A    -11.242576     5A    -11.241450     6A    -11.240491
       7A    -11.237501     8A    -11.235546     9A    -11.232835
      10A    -11.232324    11A    -11.230498    12A    -11.229607
      13A    -11.227115    14A    -11.225754    15A    -11.225658
      16A    -11.219629    17A     -1.399885    18A     -1.160375
      19A     -1.137306    20A     -1.069496    21A     -1.029309
      22A     -1.018188    23A     -1.006502    24A     -0.987903
      25A     -0.920674    26A     -0.865575    27A     -0.840501
      28A     -0.830332    29A     -0.792478    30A     -0.790990
      31A     -0.726510    32A     -0.695855    33A     -0.656597
      34A     -0.646258    35A     -0.642056    36A     -0.639693
      37A     -0.601975    38A     -0.596917    39A     -0.591350
      40A     -0.583753    41A     -0.582675    42A     -0.579030
      43A     -0.567790    44A     -0.562087    45A     -0.548296
      46A     -0.525111    47A     -0.521980    48A     -0.501048
      49A     -0.491988    50A     -0.487390    51A     -0.480304
      52A     -0.475486    53A     -0.470276    54A     -0.456516
      55A     -0.339971    56A     -0.328948    57A     -0.324013
      58A     -0.293519

    Virtual:

      59A      0.125857    60A      0.129631    61A      0.136528
      62A      0.162527    63A      0.173994    64A      0.181522
      65A      0.196155    66A      0.202075    67A      0.208058
      68A      0.222635    69A      0.235796    70A      0.238058
      71A      0.243430    72A      0.255688    73A      0.258908
      74A      0.264910    75A      0.276358    76A      0.291559
      77A      0.293203    78A      0.298516    79A      0.311480
      80A      0.331192    81A      0.352529    82A      0.371026
      83A      0.376297    84A      0.398002    85A      0.418853
      86A      0.434738    87A      0.442958    88A      0.457271
      89A      0.463657    90A      0.479955    91A      0.486286
      92A      0.490502    93A      0.509014    94A      0.511114
      95A      0.567071    96A      0.597858    97A      0.609212
      98A      0.616624    99A      0.620870   100A      0.637929
     101A      0.650327   102A      0.653895   103A      0.663577
     104A      0.674171   105A      0.687903   106A      0.698341
     107A      0.705700   108A      0.710099   109A      0.714721
     110A      0.724631   111A      0.730840   112A      0.736167
     113A      0.737861   114A      0.748829   115A      0.755804
     116A      0.763137   117A      0.768699   118A      0.775438
     119A      0.782681   120A      0.795840   121A      0.799212
     122A      0.810208   123A      0.818241   124A      0.825779
     125A      0.842817   126A      0.846196   127A      0.852800
     128A      0.858266   129A      0.875878   130A      0.881952
     131A      0.884873   132A      0.889976   133A      0.890942
     134A      0.895293   135A      0.899980   136A      0.904662
     137A      0.911244   138A      0.922579   139A      0.925312
     140A      0.933398   141A      0.940252   142A      0.943853
     143A      0.953751   144A      0.960471   145A      0.973551
     146A      0.980688   147A      0.996776   148A      1.004414
     149A      1.023925   150A      1.026351   151A      1.038859
     152A      1.060606   153A      1.083891   154A      1.093088
     155A      1.114910   156A      1.127399   157A      1.132072
     158A      1.144314   159A      1.157948   160A      1.165150
     161A      1.177089   162A      1.189675   163A      1.209517
     164A      1.216501   165A      1.226187   166A      1.233541
     167A      1.240488   168A      1.255217   169A      1.265671
     170A      1.268758   171A      1.274468   172A      1.284685
     173A      1.292901   174A      1.294952   175A      1.303153
     176A      1.314256   177A      1.318595   178A      1.326091
     179A      1.368762   180A      1.374996   181A      1.385083
     182A      1.402396   183A      1.410213   184A      1.436954
     185A      1.457415   186A      1.493007   187A      1.507284
     188A      1.525425   189A      1.529658   190A      1.556030
     191A      1.586364   192A      1.611693   193A      1.619804
     194A      1.626772   195A      1.638383   196A      1.671028
     197A      1.679838   198A      1.695212   199A      1.708011
     200A      1.718214   201A      1.734038   202A      1.742661
     203A      1.753852   204A      1.758230   205A      1.769420
     206A      1.788036   207A      1.805512   208A      1.817408
     209A      1.846682   210A      1.851383   211A      1.858578
     212A      1.865401   213A      1.872660   214A      1.885223
     215A      1.889905   216A      1.895079   217A      1.903039
     218A      1.909209   219A      1.915810   220A      1.921445
     221A      1.926037   222A      1.928288   223A      1.939826
     224A      1.941341   225A      1.943053   226A      1.948915
     227A      1.954385   228A      1.965225   229A      1.968270
     230A      1.983868   231A      1.991580   232A      1.999687
     233A      2.007726   234A      2.010413   235A      2.032506
     236A      2.038659   237A      2.044352   238A      2.048996
     239A      2.061582   240A      2.068542   241A      2.083058
     242A      2.097575   243A      2.108043   244A      2.121327
     245A      2.132738   246A      2.142761   247A      2.150951
     248A      2.159428   249A      2.165922   250A      2.174193
     251A      2.190769   252A      2.196401   253A      2.211827
     254A      2.233146   255A      2.240510   256A      2.261862
     257A      2.265975   258A      2.270895   259A      2.298841
     260A      2.306927   261A      2.317591   262A      2.334084
     263A      2.336015   264A      2.353149   265A      2.382894
     266A      2.398106   267A      2.406036   268A      2.446235
     269A      2.471097   270A      2.474281   271A      2.496123
     272A      2.504124   273A      2.510249   274A      2.525921
     275A      2.527069   276A      2.548190   277A      2.549750
     278A      2.576676   279A      2.620532   280A      2.639044
     281A      2.656605   282A      2.745494   283A      2.756940
     284A      2.761031   285A      2.770767   286A      2.775460
     287A      2.784100   288A      2.797565   289A      2.813149
     290A      2.840709   291A      2.847366   292A      2.865252
     293A      2.873221   294A      2.891789   295A      2.921011
     296A      2.936158   297A      2.970452   298A      2.992559
     299A      3.015100   300A      3.033339   301A      3.039055
     302A      3.078919   303A      3.104636   304A      3.189295
     305A      3.196102   306A      3.257015   307A      3.300618
     308A      3.309318   309A      3.358688   310A      3.591186
     311A      3.676182   312A      3.947659   313A      3.972992
     314A      4.194090

    Final Occupation by Irrep:
              A
    DOCC [    58 ]

  @RHF Final Energy:  -653.41221122000843

   => Energetics <=

    Nuclear Repulsion Energy =           1007.2809460621859898
    One-Electron Energy =               -2885.5853302688465192
    Two-Electron Energy =                1224.8921729866519854
    Total Energy =                       -653.4122112200084302

Computation Completed

Properties will be evaluated at   0.000000,   0.000000,   0.000000 [a0]

Properties computed using the SCF density matrix

  Nuclear Dipole Moment: [e a0]
     X:     0.4971      Y:     9.6139      Z:   -10.4880

  Electronic Dipole Moment: [e a0]
     X:     0.0142      Y:    -9.5146      Z:     9.9757

  Dipole Moment: [e a0]
     X:     0.5113      Y:     0.0993      Z:    -0.5123     Total:     0.7306

  Dipole Moment: [D]
     X:     1.2995      Y:     0.2524      Z:    -1.3022     Total:     1.8569

*** tstop() called on ds3 at Tue Apr 28 17:57:53 2020
Module time:
	user time   =     581.92 seconds =       9.70 minutes
	system time =     218.28 seconds =       3.64 minutes
	total time  =       1526 seconds =      25.43 minutes
Total time:
	user time   =     581.92 seconds =       9.70 minutes
	system time =     218.28 seconds =       3.64 minutes
	total time  =       1526 seconds =      25.43 minutes
                                     G D M A

                                 by Anthony Stone

                           version 2.2.06, 22 June 2011

               Distributed Multipoles from Gaussian wavefunctions

Starting at 17:57:53 on 28 Apr 2020

Using SCF density matrix from file ./SSI/SSI-155PHE-277TYR-1-dimer.test.31833.fchk

                         Distributed Multipole Analysis

Standard DMA

Positions and radii in angstrom
Multipole moments in atomic units, ea_0^k for rank k

C          x =  0.060822  y =  1.301834  z = -2.597836 angstrom
           Maximum rank =  0   Radius =  0.650 angstrom
                   Q00  =  -0.014637

C          x =  0.297822  y =  1.767834  z = -4.014836 angstrom
           Maximum rank =  0   Radius =  0.650 angstrom
                   Q00  =  -0.238578

C          x =  1.216822  y =  0.563834  z = -1.991836 angstrom
           Maximum rank =  0   Radius =  0.650 angstrom
                   Q00  =  -0.129100

C          x =  2.209822  y =  1.221834  z = -1.279836 angstrom
           Maximum rank =  0   Radius =  0.650 angstrom
                   Q00  =  -0.094689

C          x =  1.242822  y = -0.818166  z = -2.091836 angstrom
           Maximum rank =  0   Radius =  0.650 angstrom
                   Q00  =   0.023687

C          x =  3.281822  y =  0.498834  z = -0.741836 angstrom
           Maximum rank =  0   Radius =  0.650 angstrom
                   Q00  =  -0.063515

C          x =  2.263822  y = -1.554166  z = -1.525836 angstrom
           Maximum rank =  0   Radius =  0.650 angstrom
                   Q00  =  -0.090614

C          x =  3.287822  y = -0.914166  z = -0.809836 angstrom
           Maximum rank =  0   Radius =  0.650 angstrom
                   Q00  =  -0.088609

H          x = -0.151178  y =  2.173834  z = -1.979836 angstrom
           Maximum rank =  0   Radius =  0.325 angstrom
                   Q00  =   0.060794

H          x = -0.818178  y =  0.661834  z = -2.552836 angstrom
           Maximum rank =  0   Radius =  0.325 angstrom
                   Q00  =   0.070095

H          x =  1.122822  y =  2.479834  z = -4.051836 angstrom
           Maximum rank =  0   Radius =  0.325 angstrom
                   Q00  =   0.085695

H          x =  2.184822  y =  2.298834  z = -1.190836 angstrom
           Maximum rank =  0   Radius =  0.325 angstrom
                   Q00  =   0.060188

H          x =  0.456822  y = -1.334166  z = -2.622836 angstrom
           Maximum rank =  0   Radius =  0.325 angstrom
                   Q00  =   0.056650

H          x =  4.085822  y =  1.007834  z = -0.233836 angstrom
           Maximum rank =  0   Radius =  0.325 angstrom
                   Q00  =   0.070883

H          x =  2.268822  y = -2.631166  z = -1.625836 angstrom
           Maximum rank =  0   Radius =  0.325 angstrom
                   Q00  =   0.063970

H          x =  4.091822  y = -1.486166  z = -0.366836 angstrom
           Maximum rank =  0   Radius =  0.325 angstrom
                   Q00  =   0.069727

H          x = -0.635575  y =  2.214474  z = -4.388044 angstrom
           Maximum rank =  0   Radius =  0.325 angstrom
                   Q00  =   0.081707

H          x =  0.528777  y =  0.898864  z = -4.648519 angstrom
           Maximum rank =  0   Radius =  0.325 angstrom
                   Q00  =   0.080320

C          x = -1.731178  y =  2.492834  z =  0.905164 angstrom
           Maximum rank =  0   Radius =  0.650 angstrom
                   Q00  =  -0.196540

C          x = -0.686178  y =  0.165834  z =  1.000164 angstrom
           Maximum rank =  0   Radius =  0.650 angstrom
                   Q00  =  -0.067912

C          x = -1.719178  y =  1.049834  z =  1.379164 angstrom
           Maximum rank =  0   Radius =  0.650 angstrom
                   Q00  =  -0.152014

C          x = -0.639178  y = -1.158166  z =  1.493164 angstrom
           Maximum rank =  0   Radius =  0.650 angstrom
                   Q00  =  -0.187430

C          x = -1.658178  y = -1.585166  z =  2.346164 angstrom
           Maximum rank =  0   Radius =  0.650 angstrom
                   Q00  =   0.349854

C          x = -2.687178  y =  0.600834  z =  2.298164 angstrom
           Maximum rank =  0   Radius =  0.650 angstrom
                   Q00  =  -0.058873

C          x = -2.630178  y = -0.709166  z =  2.784164 angstrom
           Maximum rank =  0   Radius =  0.650 angstrom
                   Q00  =  -0.020811

O          x = -1.617178  y = -2.841166  z =  2.842164 angstrom
           Maximum rank =  0   Radius =  0.650 angstrom
                   Q00  =  -0.669966

H          x =  0.094822  y =  0.511834  z =  0.341164 angstrom
           Maximum rank =  0   Radius =  0.325 angstrom
                   Q00  =   0.085389

H          x =  0.157822  y = -1.824166  z =  1.193164 angstrom
           Maximum rank =  0   Radius =  0.325 angstrom
                   Q00  =   0.072375

H          x = -2.710178  y =  2.939834  z =  1.083164 angstrom
           Maximum rank =  0   Radius =  0.325 angstrom
                   Q00  =   0.098272

H          x = -1.547178  y =  2.503834  z = -0.167836 angstrom
           Maximum rank =  0   Radius =  0.325 angstrom
                   Q00  =   0.095654

H          x = -3.500178  y =  1.249834  z =  2.577164 angstrom
           Maximum rank =  0   Radius =  0.325 angstrom
                   Q00  =   0.065384

H          x = -0.879178  y = -3.348166  z =  2.488164 angstrom
           Maximum rank =  0   Radius =  0.325 angstrom
                   Q00  =   0.405945

H          x = -3.259178  y = -1.127166  z =  3.529164 angstrom
           Maximum rank =  0   Radius =  0.325 angstrom
                   Q00  =   0.078086

H          x = -0.953013  y =  3.079824  z =  1.414974 angstrom
           Maximum rank =  0   Radius =  0.325 angstrom
                   Q00  =   0.098612

Total multipoles referred to origin at
           x =   0.000000,  y =    0.000000,  z =    0.000000 angstrom
                   Q00  =  -0.000000

Finished at 17:57:53 on 28 Apr 2020

  DMA results are available in the Python driver through the
	  variable('DMA DISTRIBUTED MULTIPOLES')
  and
	  variable('DMA TOTAL MULTIPOLES')
  commands.

    Psi4 stopped on: Tuesday, 28 April 2020 05:57PM
    Psi4 wall time for execution: 0:25:26.66

*** Psi4 exiting successfully. Buy a developer a beer!
