                               Psi4 1.3.2 release

  ==> Input File <==

--------------------------------------------------------------------------
import numpy as np
set {scf_type pk
basis cc-pvdz
d_convergence 10
gdma_switch   0
gdma_limit    0
gdma_origin   [ 0.0,  0.0,  0.0 ]
}
molecule test {
    units Angstrom
    -1 1
    --
    -1 1
    C                0.925671626671244     3.788971064981786     1.844792494371111
    C                0.159671626671244     3.979971064981787     0.553792494371112
    O                0.753671626671244     4.478971064981787    -0.418207505628889
    O               -1.042328373328756     3.632971064981787     0.528792494371112
    H                1.294671626671244     2.761971064981787     1.885792494371112
    H                0.286671626671244     3.923971064981786     2.709792494371112
    H                1.789161626671244     4.466704064981787     1.915902494371111
    C                0.810671626671244    -4.097028935018213     1.338792494371112
    C               -0.759328373328756    -1.557028935018214    -0.933207505628888
    C                0.223671626671244    -1.917028935018213     0.022792494371112
    C                0.008671626671244    -3.293028935018213     0.363792494371111
    C               -1.058328373328756    -3.705028935018213    -0.373207505628888
    C                0.080671626671244     0.653971064981787    -1.046207505628889
    C               -0.842328373328756    -0.281028935018213    -1.471207505628888
    C                1.065671626671244     0.327971064981787    -0.106207505628888
    C                1.152671626671244    -0.954028935018213     0.423792494371111
    N               -1.524328373328756    -2.671028935018214    -1.152207505628889
    H                0.024671626671244     1.662971064981787    -1.425207505628889
    H               -1.607328373328756    -0.028028935018213    -2.191207505628888
    H                1.777671626671244     1.083971064981787     0.194792494371112
    H                1.940671626671244    -1.223028935018213     1.101792494371112
    H               -2.317328373328756    -2.741028935018213    -1.781207505628889
    H               -1.478328373328756    -4.706028935018213    -0.343207505628889
    H                0.155671626671244    -4.811028935018213     1.842792494371112
    H                1.186671626671244    -3.411028935018213     2.098792494371112
    H                1.663881626671244    -4.626958935018213     0.890227494371111

}
e, wfn = energy('scf', return_wfn=True)
gdma(wfn)
dmavals = variable('DMA DISTRIBUTED MULTIPOLES')
charges = np.array(dmavals)
print(charges)
np.save('SSI-017GLU-036TRP-1-dimer.npy', np.array(charges))--------------------------------------------------------------------------

*** tstart() called on ds3
*** at Tue Apr 28 00:14:03 2020

   => Loading Basis Set <=

    Name: CC-PVDZ
    Role: ORBITAL
    Keyword: BASIS
    atoms 1-2, 8-16  entry C          line   138 file /theoryfs2/ds/metcalf/miniconda2/envs/tf2gpu/share/psi4/basis/cc-pvdz.gbs
    atoms 3-4        entry O          line   198 file /theoryfs2/ds/metcalf/miniconda2/envs/tf2gpu/share/psi4/basis/cc-pvdz.gbs
    atoms 5-7, 18-26 entry H          line    22 file /theoryfs2/ds/metcalf/miniconda2/envs/tf2gpu/share/psi4/basis/cc-pvdz.gbs
    atoms 17         entry N          line   168 file /theoryfs2/ds/metcalf/miniconda2/envs/tf2gpu/share/psi4/basis/cc-pvdz.gbs

         ---------------------------------------------------------
                                   SCF
               by Justin Turney, Rob Parrish, Andy Simmonett
                          and Daniel G. A. Smith
                              RHF Reference
                        1 Threads,    500 MiB Core
         ---------------------------------------------------------

  ==> Geometry <==

    Molecular point group: c1
    Full point group: C1

    Geometry (in Angstrom), charge = -1, multiplicity = 1:

       Center              X                  Y                   Z               Mass
    ------------   -----------------  -----------------  -----------------  -----------------
         C            0.925671626671     3.788971064982     1.844792494371    12.000000000000
         C            0.159671626671     3.979971064982     0.553792494371    12.000000000000
         O            0.753671626671     4.478971064982    -0.418207505629    15.994914619570
         O           -1.042328373329     3.632971064982     0.528792494371    15.994914619570
         H            1.294671626671     2.761971064982     1.885792494371     1.007825032230
         H            0.286671626671     3.923971064982     2.709792494371     1.007825032230
         H            1.789161626671     4.466704064982     1.915902494371     1.007825032230
         C            0.810671626671    -4.097028935018     1.338792494371    12.000000000000
         C           -0.759328373329    -1.557028935018    -0.933207505629    12.000000000000
         C            0.223671626671    -1.917028935018     0.022792494371    12.000000000000
         C            0.008671626671    -3.293028935018     0.363792494371    12.000000000000
         C           -1.058328373329    -3.705028935018    -0.373207505629    12.000000000000
         C            0.080671626671     0.653971064982    -1.046207505629    12.000000000000
         C           -0.842328373329    -0.281028935018    -1.471207505629    12.000000000000
         C            1.065671626671     0.327971064982    -0.106207505629    12.000000000000
         C            1.152671626671    -0.954028935018     0.423792494371    12.000000000000
         N           -1.524328373329    -2.671028935018    -1.152207505629    14.003074004430
         H            0.024671626671     1.662971064982    -1.425207505629     1.007825032230
         H           -1.607328373329    -0.028028935018    -2.191207505629     1.007825032230
         H            1.777671626671     1.083971064982     0.194792494371     1.007825032230
         H            1.940671626671    -1.223028935018     1.101792494371     1.007825032230
         H           -2.317328373329    -2.741028935018    -1.781207505629     1.007825032230
         H           -1.478328373329    -4.706028935018    -0.343207505629     1.007825032230
         H            0.155671626671    -4.811028935018     1.842792494371     1.007825032230
         H            1.186671626671    -3.411028935018     2.098792494371     1.007825032230
         H            1.663881626671    -4.626958935018     0.890227494371     1.007825032230

  Running in c1 symmetry.

  Rotational constants: A =      0.05160  B =      0.00932  C =      0.00847 [cm^-1]
  Rotational constants: A =   1546.98852  B =    279.44655  C =    254.06672 [MHz]
  Nuclear repulsion =  799.891598880980496

  Charge       = -1
  Multiplicity = 1
  Electrons    = 102
  Nalpha       = 51
  Nbeta        = 51

  ==> Algorithm <==

  SCF Algorithm Type is PK.
  DIIS enabled.
  MOM disabled.
  Fractional occupation disabled.
  Guess Type is SAD.
  Energy threshold   = 1.00e-06
  Density threshold  = 1.00e-10
  Integral threshold = 0.00e+00

  ==> Primary Basis <==

  Basis Set: CC-PVDZ
    Blend: CC-PVDZ
    Number of shells: 120
    Number of basis function: 256
    Number of Cartesian functions: 270
    Spherical Harmonics?: true
    Max angular momentum: 2

  ==> Pre-Iterations <==

   -------------------------------------------------------
    Irrep   Nso     Nmo     Nalpha   Nbeta   Ndocc  Nsocc
   -------------------------------------------------------
     A        256     256       0       0       0       0
   -------------------------------------------------------
    Total     256     256      51      51      51       0
   -------------------------------------------------------

  ==> Integral Setup <==

  Using integral reordering PK algorithm.
  Sizing the integral batches needed.
  Building batch lookup table.
   Calculation information:
      Number of atoms:                  26
      Number of AO shells:             120
      Number of primitives:            368
      Number of atomic orbitals:       270
      Number of basis functions:       256

      Integral cutoff                 1.00e-12
      Number of threads:                 1

	Batch   1 pq = [       0,    9405] index = [             0,44231715] size =     44231715
	Batch   2 pq = [    9405,   13301] index = [      44231715,88464951] size =     44233236
	Batch   3 pq = [   13301,   16290] index = [      88464951,132690195] size =     44225244
	Batch   4 pq = [   16290,   18810] index = [     132690195,176917455] size =     44227260
	Batch   5 pq = [   18810,   21030] index = [     176917455,221140965] size =     44223510
	Batch   6 pq = [   21030,   23037] index = [     221140965,265363203] size =     44222238
	Batch   7 pq = [   23037,   24883] index = [     265363203,309594286] size =     44231083
	Batch   8 pq = [   24883,   26601] index = [     309594286,353819901] size =     44225615
	Batch   9 pq = [   26601,   28214] index = [     353819901,398029005] size =     44209104
	Batch  10 pq = [   28214,   29740] index = [     398029005,442248670] size =     44219665
	Batch  11 pq = [   29740,   31191] index = [     442248670,486454836] size =     44206166
	Batch  12 pq = [   31191,   32578] index = [     486454836,530679331] size =     44224495
	Batch  13 pq = [   32578,   32896] index = [     530679331,541089856] size =     10410525
  Task number: 49
  Buffer size: 11059200
  Buffer per thread: 2
  We computed 22614029 shell quartets total.
  Whereas there are 26357430 unique shell quartets.

  ==> DiskJK: Disk-Based J/K Matrices <==

    J tasked:                  Yes
    K tasked:                  Yes
    wK tasked:                  No
    Memory [MiB]:              375
    Schwarz Cutoff:          1E-12

    OpenMP threads:              1

  Minimum eigenvalue in the overlap matrix is 2.3799142548E-04.
  Using Symmetric Orthogonalization.

  SCF Guess: Superposition of Atomic Densities via on-the-fly atomic UHF.

  ==> Iterations <==

                        Total Energy        Delta E     RMS |[F,P]|

   @RHF iter SAD:  -626.60800241668107   -6.26608e+02   0.00000e+00
   @RHF iter   1:  -627.38467463170662   -7.76672e-01   3.26594e-03 DIIS
   @RHF iter   2:  -627.69133807147773   -3.06663e-01   1.75624e-03 DIIS
   @RHF iter   3:  -627.77186533566487   -8.05273e-02   3.17364e-04 DIIS
   @RHF iter   4:  -627.77636654059404   -4.50120e-03   1.23591e-04 DIIS
   @RHF iter   5:  -627.77701780485791   -6.51264e-04   2.40725e-05 DIIS
   @RHF iter   6:  -627.77705793266978   -4.01278e-05   1.31791e-05 DIIS
   @RHF iter   7:  -627.77706915274564   -1.12201e-05   4.38800e-06 DIIS
   @RHF iter   8:  -627.77707219292904   -3.04018e-06   2.02162e-06 DIIS
   @RHF iter   9:  -627.77707286338068   -6.70452e-07   8.83826e-07 DIIS
   @RHF iter  10:  -627.77707299672443   -1.33344e-07   3.78838e-07 DIIS
   @RHF iter  11:  -627.77707302474005   -2.80156e-08   1.28244e-07 DIIS
   @RHF iter  12:  -627.77707302728049   -2.54045e-09   5.48231e-08 DIIS
   @RHF iter  13:  -627.77707302752992   -2.49429e-10   1.71971e-08 DIIS
   @RHF iter  14:  -627.77707302755039   -2.04636e-11   4.75778e-09 DIIS
   @RHF iter  15:  -627.77707302755027    1.13687e-13   1.73128e-09 DIIS
   @RHF iter  16:  -627.77707302755016    1.13687e-13   6.76947e-10 DIIS
   @RHF iter  17:  -627.77707302754789    2.27374e-12   3.13870e-10 DIIS
   @RHF iter  18:  -627.77707302755016   -2.27374e-12   1.19452e-10 DIIS
   @RHF iter  19:  -627.77707302754459    5.57066e-12   5.24471e-11 DIIS
  Energy and wave function converged.

  ==> Post-Iterations <==

    Orbital Energies [Eh]
    ---------------------

    Doubly Occupied:

       1A    -20.256755     2A    -20.252330     3A    -15.513192
       4A    -11.177499     5A    -11.166466     6A    -11.153288
       7A    -11.133251     8A    -11.129409     9A    -11.123296
      10A    -11.122287    11A    -11.115399    12A    -11.112706
      13A    -11.110940    14A    -11.045554    15A     -1.206004
      16A     -1.147732    17A     -1.033884    18A     -1.028196
      19A     -0.986225    20A     -0.899640    21A     -0.889778
      22A     -0.849218    23A     -0.794984    24A     -0.741380
      25A     -0.705342    26A     -0.662672    27A     -0.626534
      28A     -0.566005    29A     -0.541750    30A     -0.510117
      31A     -0.508838    32A     -0.499027    33A     -0.492448
      34A     -0.478468    35A     -0.472617    36A     -0.453433
      37A     -0.428325    38A     -0.408807    39A     -0.405318
      40A     -0.401370    41A     -0.392015    42A     -0.373829
      43A     -0.359588    44A     -0.339825    45A     -0.300649
      46A     -0.280410    47A     -0.195064    48A     -0.181382
      49A     -0.179405    50A     -0.168492    51A     -0.157274

    Virtual:

      52A      0.223874    53A      0.259215    54A      0.264125
      55A      0.272632    56A      0.297240    57A      0.305469
      58A      0.321628    59A      0.326384    60A      0.348244
      61A      0.367465    62A      0.371678    63A      0.399109
      64A      0.417723    65A      0.421003    66A      0.429406
      67A      0.450886    68A      0.483715    69A      0.487805
      70A      0.513420    71A      0.526986    72A      0.540484
      73A      0.568239    74A      0.579506    75A      0.584877
      76A      0.598768    77A      0.607193    78A      0.684169
      79A      0.699897    80A      0.706483    81A      0.713615
      82A      0.724320    83A      0.743234    84A      0.762328
      85A      0.789441    86A      0.799979    87A      0.809108
      88A      0.817790    89A      0.825586    90A      0.831325
      91A      0.836390    92A      0.846287    93A      0.847918
      94A      0.859900    95A      0.865951    96A      0.874824
      97A      0.885579    98A      0.890671    99A      0.898300
     100A      0.935395   101A      0.945047   102A      0.951249
     103A      0.954979   104A      0.975433   105A      0.980821
     106A      0.999436   107A      1.006512   108A      1.022874
     109A      1.024558   110A      1.036891   111A      1.041219
     112A      1.045280   113A      1.054523   114A      1.061805
     115A      1.069638   116A      1.088073   117A      1.100895
     118A      1.108428   119A      1.119723   120A      1.146559
     121A      1.151825   122A      1.164848   123A      1.193640
     124A      1.216323   125A      1.227116   126A      1.240448
     127A      1.252798   128A      1.263809   129A      1.292558
     130A      1.308145   131A      1.314003   132A      1.321707
     133A      1.331023   134A      1.334022   135A      1.347888
     136A      1.374091   137A      1.380829   138A      1.385324
     139A      1.397040   140A      1.402714   141A      1.425089
     142A      1.437159   143A      1.459058   144A      1.469699
     145A      1.512239   146A      1.536609   147A      1.552045
     148A      1.583479   149A      1.589021   150A      1.600985
     151A      1.620303   152A      1.634537   153A      1.659279
     154A      1.674320   155A      1.678404   156A      1.698360
     157A      1.716654   158A      1.726886   159A      1.742378
     160A      1.763315   161A      1.773952   162A      1.790810
     163A      1.833279   164A      1.849624   165A      1.852369
     166A      1.858958   167A      1.883989   168A      1.888788
     169A      1.911496   170A      1.919141   171A      1.930516
     172A      1.972110   173A      1.982070   174A      1.989786
     175A      1.996872   176A      2.004371   177A      2.026593
     178A      2.041359   179A      2.054933   180A      2.065204
     181A      2.076708   182A      2.081223   183A      2.093613
     184A      2.099352   185A      2.114818   186A      2.119943
     187A      2.146979   188A      2.157784   189A      2.168300
     190A      2.179673   191A      2.183458   192A      2.198805
     193A      2.207638   194A      2.218730   195A      2.224866
     196A      2.243613   197A      2.257027   198A      2.262998
     199A      2.285708   200A      2.293910   201A      2.329290
     202A      2.352982   203A      2.375585   204A      2.396251
     205A      2.407147   206A      2.414765   207A      2.436849
     208A      2.443488   209A      2.453688   210A      2.482931
     211A      2.486142   212A      2.505424   213A      2.545538
     214A      2.559829   215A      2.601262   216A      2.625079
     217A      2.674275   218A      2.689100   219A      2.693867
     220A      2.724867   221A      2.733346   222A      2.765560
     223A      2.775522   224A      2.782044   225A      2.801065
     226A      2.841299   227A      2.877172   228A      2.895265
     229A      2.913373   230A      2.923574   231A      2.927606
     232A      2.938550   233A      2.960380   234A      2.991484
     235A      2.996384   236A      3.019188   237A      3.062833
     238A      3.126861   239A      3.146931   240A      3.181884
     241A      3.226655   242A      3.245483   243A      3.279218
     244A      3.304000   245A      3.309492   246A      3.367932
     247A      3.411644   248A      3.474177   249A      3.642732
     250A      3.808506   251A      3.831908   252A      3.846321
     253A      4.065740   254A      4.075436   255A      4.091831
     256A      4.204207

    Final Occupation by Irrep:
              A
    DOCC [    51 ]

  @RHF Final Energy:  -627.77707302754459

   => Energetics <=

    Nuclear Repulsion Energy =            799.8915988809804958
    One-Electron Energy =               -2457.1805051611013369
    Two-Electron Energy =                1029.5118332525762526
    Total Energy =                       -627.7770730275447022

Computation Completed

Properties will be evaluated at   0.000000,   0.000000,   0.000000 [a0]

Properties computed using the SCF density matrix

  Nuclear Dipole Moment: [e a0]
     X:     4.4249      Y:    -7.1226      Z:     6.4715

  Electronic Dipole Moment: [e a0]
     X:    -4.5586      Y:     0.0011      Z:    -6.7622

  Dipole Moment: [e a0]
     X:    -0.1337      Y:    -7.1215      Z:    -0.2906     Total:     7.1287

  Dipole Moment: [D]
     X:    -0.3399      Y:   -18.1011      Z:    -0.7388     Total:    18.1193

*** tstop() called on ds3 at Tue Apr 28 00:22:37 2020
Module time:
	user time   =     209.74 seconds =       3.50 minutes
	system time =      90.29 seconds =       1.50 minutes
	total time  =        514 seconds =       8.57 minutes
Total time:
	user time   =     209.74 seconds =       3.50 minutes
	system time =      90.29 seconds =       1.50 minutes
	total time  =        514 seconds =       8.57 minutes
                                     G D M A

                                 by Anthony Stone

                           version 2.2.06, 22 June 2011

               Distributed Multipoles from Gaussian wavefunctions

Starting at 0:22:37 on 28 Apr 2020

Using SCF density matrix from file ./SSI/SSI-017GLU-036TRP-1-dimer.test.5002.fchk

                         Distributed Multipole Analysis

Standard DMA

Positions and radii in angstrom
Multipole moments in atomic units, ea_0^k for rank k

C          x =  0.925672  y =  3.788971  z =  1.844792 angstrom
           Maximum rank =  0   Radius =  0.650 angstrom
                   Q00  =  -0.277155

C          x =  0.159672  y =  3.979971  z =  0.553792 angstrom
           Maximum rank =  0   Radius =  0.650 angstrom
                   Q00  =   0.974057

O          x =  0.753672  y =  4.478971  z = -0.418208 angstrom
           Maximum rank =  0   Radius =  0.650 angstrom
                   Q00  =  -0.929372

O          x = -1.042328  y =  3.632971  z =  0.528792 angstrom
           Maximum rank =  0   Radius =  0.650 angstrom
                   Q00  =  -0.938945

H          x =  1.294672  y =  2.761971  z =  1.885792 angstrom
           Maximum rank =  0   Radius =  0.325 angstrom
                   Q00  =   0.069815

H          x =  0.286672  y =  3.923971  z =  2.709792 angstrom
           Maximum rank =  0   Radius =  0.325 angstrom
                   Q00  =   0.058920

H          x =  1.789162  y =  4.466704  z =  1.915902 angstrom
           Maximum rank =  0   Radius =  0.325 angstrom
                   Q00  =   0.046210

C          x =  0.810672  y = -4.097029  z =  1.338792 angstrom
           Maximum rank =  0   Radius =  0.650 angstrom
                   Q00  =  -0.215916

C          x = -0.759328  y = -1.557029  z = -0.933208 angstrom
           Maximum rank =  0   Radius =  0.650 angstrom
                   Q00  =   0.270254

C          x =  0.223672  y = -1.917029  z =  0.022792 angstrom
           Maximum rank =  0   Radius =  0.650 angstrom
                   Q00  =  -0.060506

C          x =  0.008672  y = -3.293029  z =  0.363792 angstrom
           Maximum rank =  0   Radius =  0.650 angstrom
                   Q00  =  -0.120438

C          x = -1.058328  y = -3.705029  z = -0.373208 angstrom
           Maximum rank =  0   Radius =  0.650 angstrom
                   Q00  =   0.052875

C          x =  0.080672  y =  0.653971  z = -1.046208 angstrom
           Maximum rank =  0   Radius =  0.650 angstrom
                   Q00  =   0.017984

C          x = -0.842328  y = -0.281029  z = -1.471208 angstrom
           Maximum rank =  0   Radius =  0.650 angstrom
                   Q00  =  -0.121770

C          x =  1.065672  y =  0.327971  z = -0.106208 angstrom
           Maximum rank =  0   Radius =  0.650 angstrom
                   Q00  =  -0.083995

C          x =  1.152672  y = -0.954029  z =  0.423792 angstrom
           Maximum rank =  0   Radius =  0.650 angstrom
                   Q00  =  -0.110638

N          x = -1.524328  y = -2.671029  z = -1.152208 angstrom
           Maximum rank =  0   Radius =  0.650 angstrom
                   Q00  =  -0.482593

H          x =  0.024672  y =  1.662971  z = -1.425208 angstrom
           Maximum rank =  0   Radius =  0.325 angstrom
                   Q00  =   0.106297

H          x = -1.607328  y = -0.028029  z = -2.191208 angstrom
           Maximum rank =  0   Radius =  0.325 angstrom
                   Q00  =   0.059183

H          x =  1.777672  y =  1.083971  z =  0.194792 angstrom
           Maximum rank =  0   Radius =  0.325 angstrom
                   Q00  =   0.067267

H          x =  1.940672  y = -1.223029  z =  1.101792 angstrom
           Maximum rank =  0   Radius =  0.325 angstrom
                   Q00  =   0.048826

H          x = -2.317328  y = -2.741029  z = -1.781208 angstrom
           Maximum rank =  0   Radius =  0.325 angstrom
                   Q00  =   0.204790

H          x = -1.478328  y = -4.706029  z = -0.343208 angstrom
           Maximum rank =  0   Radius =  0.325 angstrom
                   Q00  =   0.080732

H          x =  0.155672  y = -4.811029  z =  1.842792 angstrom
           Maximum rank =  0   Radius =  0.325 angstrom
                   Q00  =   0.091548

H          x =  1.186672  y = -3.411029  z =  2.098792 angstrom
           Maximum rank =  0   Radius =  0.325 angstrom
                   Q00  =   0.104148

H          x =  1.663882  y = -4.626959  z =  0.890227 angstrom
           Maximum rank =  0   Radius =  0.325 angstrom
                   Q00  =   0.088422

Total multipoles referred to origin at
           x =   0.000000,  y =    0.000000,  z =    0.000000 angstrom
                   Q00  =  -1.000000

Finished at 0:22:37 on 28 Apr 2020

  DMA results are available in the Python driver through the
	  variable('DMA DISTRIBUTED MULTIPOLES')
  and
	  variable('DMA TOTAL MULTIPOLES')
  commands.

    Psi4 stopped on: Tuesday, 28 April 2020 12:22AM
    Psi4 wall time for execution: 0:08:34.15

*** Psi4 exiting successfully. Buy a developer a beer!
