                               Psi4 1.3.2 release

  ==> Input File <==

--------------------------------------------------------------------------
import numpy as np
set {scf_type pk
basis cc-pvdz
d_convergence 10
gdma_switch   0
gdma_limit    0
gdma_origin   [ 0.0,  0.0,  0.0 ]
}
molecule test {
    units Angstrom
    0 1
    --
    0 1
    C               -0.114963684892791    -2.141916081120205    -2.719837559345118
    C                0.326036315107209    -1.233916081120206    -3.873837559345119
    C               -0.154963684892791    -3.619916081120206    -3.126837559345119
    H                0.588036315107209    -2.032916081120206    -1.898837559345119
    H               -1.103963684892791    -1.849916081120206    -2.373837559345119
    H               -0.307963684892791    -1.448916081120206    -4.736837559345119
    H               -0.860963684892791    -3.721916081120205    -3.943837559345118
    H                0.816036315107209    -3.941916081120206    -3.491837559345119
    H                1.373466315107209    -1.427046081120206    -4.148760559345119
    H                0.168066315107209    -0.175306081120206    -3.620085559345119
    H               -0.453023684892791    -4.288215081120206    -2.305537559345119
    C                1.274036315107209     2.167083918879794     3.361162440654881
    C                0.332036315107209    -0.052916081120206     0.426162440654881
    C                1.060036315107209     0.533083918879794     1.463162440654882
    C               -0.977963684892791     0.327083918879794     0.192162440654881
    C                0.484036315107209     1.525083918879795     2.248162440654881
    C               -1.561963684892791     1.303083918879794     0.975162440654881
    C               -0.840963684892791     1.899083918879794     2.005162440654881
    H                0.781036315107209    -0.833916081120206    -0.158837559345119
    H                2.077036315107209     0.215083918879794     1.646162440654881
    H               -1.550963684892791    -0.151916081120206    -0.588837559345119
    H               -2.592963684892791     1.569083918879794     0.829162440654881
    H                1.086036315107209     3.237083918879794     3.342162440654881
    H                2.334036315107209     2.017083918879794     3.162162440654881
    H               -1.308963684892791     2.662083918879794     2.611162440654881
    H                1.034426315107209     1.767253918879794     4.357512440654881

}
e, wfn = energy('scf', return_wfn=True)
gdma(wfn)
dmavals = variable('DMA DISTRIBUTED MULTIPOLES')
charges = np.array(dmavals)
print(charges)
np.save('SSI-141GLN-160PHE-1-dimer.npy', np.array(charges))--------------------------------------------------------------------------

*** tstart() called on ds3
*** at Sun Apr 26 23:17:57 2020

   => Loading Basis Set <=

    Name: CC-PVDZ
    Role: ORBITAL
    Keyword: BASIS
    atoms 1-3, 12-18  entry C          line   138 file /theoryfs2/ds/metcalf/miniconda2/envs/tf2gpu/share/psi4/basis/cc-pvdz.gbs
    atoms 4-11, 19-26 entry H          line    22 file /theoryfs2/ds/metcalf/miniconda2/envs/tf2gpu/share/psi4/basis/cc-pvdz.gbs

         ---------------------------------------------------------
                                   SCF
               by Justin Turney, Rob Parrish, Andy Simmonett
                          and Daniel G. A. Smith
                              RHF Reference
                        1 Threads,    500 MiB Core
         ---------------------------------------------------------

  ==> Geometry <==

    Molecular point group: c1
    Full point group: C1

    Geometry (in Angstrom), charge = 0, multiplicity = 1:

       Center              X                  Y                   Z               Mass
    ------------   -----------------  -----------------  -----------------  -----------------
         C           -0.114963684893    -2.141916081120    -2.719837559345    12.000000000000
         C            0.326036315107    -1.233916081120    -3.873837559345    12.000000000000
         C           -0.154963684893    -3.619916081120    -3.126837559345    12.000000000000
         H            0.588036315107    -2.032916081120    -1.898837559345     1.007825032230
         H           -1.103963684893    -1.849916081120    -2.373837559345     1.007825032230
         H           -0.307963684893    -1.448916081120    -4.736837559345     1.007825032230
         H           -0.860963684893    -3.721916081120    -3.943837559345     1.007825032230
         H            0.816036315107    -3.941916081120    -3.491837559345     1.007825032230
         H            1.373466315107    -1.427046081120    -4.148760559345     1.007825032230
         H            0.168066315107    -0.175306081120    -3.620085559345     1.007825032230
         H           -0.453023684893    -4.288215081120    -2.305537559345     1.007825032230
         C            1.274036315107     2.167083918880     3.361162440655    12.000000000000
         C            0.332036315107    -0.052916081120     0.426162440655    12.000000000000
         C            1.060036315107     0.533083918880     1.463162440655    12.000000000000
         C           -0.977963684893     0.327083918880     0.192162440655    12.000000000000
         C            0.484036315107     1.525083918880     2.248162440655    12.000000000000
         C           -1.561963684893     1.303083918880     0.975162440655    12.000000000000
         C           -0.840963684893     1.899083918880     2.005162440655    12.000000000000
         H            0.781036315107    -0.833916081120    -0.158837559345     1.007825032230
         H            2.077036315107     0.215083918880     1.646162440655     1.007825032230
         H           -1.550963684893    -0.151916081120    -0.588837559345     1.007825032230
         H           -2.592963684893     1.569083918880     0.829162440655     1.007825032230
         H            1.086036315107     3.237083918880     3.342162440655     1.007825032230
         H            2.334036315107     2.017083918880     3.162162440655     1.007825032230
         H           -1.308963684893     2.662083918880     2.611162440655     1.007825032230
         H            1.034426315107     1.767253918880     4.357512440655     1.007825032230

  Running in c1 symmetry.

  Rotational constants: A =      0.09568  B =      0.01314  C =      0.01246 [cm^-1]
  Rotational constants: A =   2868.52379  B =    394.01899  C =    373.67495 [MHz]
  Nuclear repulsion =  471.233179238653861

  Charge       = 0
  Multiplicity = 1
  Electrons    = 76
  Nalpha       = 38
  Nbeta        = 38

  ==> Algorithm <==

  SCF Algorithm Type is PK.
  DIIS enabled.
  MOM disabled.
  Fractional occupation disabled.
  Guess Type is SAD.
  Energy threshold   = 1.00e-06
  Density threshold  = 1.00e-10
  Integral threshold = 0.00e+00

  ==> Primary Basis <==

  Basis Set: CC-PVDZ
    Blend: CC-PVDZ
    Number of shells: 108
    Number of basis function: 220
    Number of Cartesian functions: 230
    Spherical Harmonics?: true
    Max angular momentum: 2

  ==> Pre-Iterations <==

   -------------------------------------------------------
    Irrep   Nso     Nmo     Nalpha   Nbeta   Ndocc  Nsocc
   -------------------------------------------------------
     A        220     220       0       0       0       0
   -------------------------------------------------------
    Total     220     220      38      38      38       0
   -------------------------------------------------------

  ==> Integral Setup <==

  Using integral reordering PK algorithm.
  Sizing the integral batches needed.
  Building batch lookup table.
   Calculation information:
      Number of atoms:                  26
      Number of AO shells:             108
      Number of primitives:            300
      Number of atomic orbitals:       230
      Number of basis functions:       220

      Integral cutoff                 1.00e-12
      Number of threads:                 1

	Batch   1 pq = [       0,    9405] index = [             0,44231715] size =     44231715
	Batch   2 pq = [    9405,   13301] index = [      44231715,88464951] size =     44233236
	Batch   3 pq = [   13301,   16290] index = [      88464951,132690195] size =     44225244
	Batch   4 pq = [   16290,   18810] index = [     132690195,176917455] size =     44227260
	Batch   5 pq = [   18810,   21030] index = [     176917455,221140965] size =     44223510
	Batch   6 pq = [   21030,   23037] index = [     221140965,265363203] size =     44222238
	Batch   7 pq = [   23037,   24310] index = [     265363203,295500205] size =     30137002
  Task number: 27
  Buffer size: 11059200
  Buffer per thread: 2
  We computed 12995396 shell quartets total.
  Whereas there are 17325441 unique shell quartets.

  ==> DiskJK: Disk-Based J/K Matrices <==

    J tasked:                  Yes
    K tasked:                  Yes
    wK tasked:                  No
    Memory [MiB]:              375
    Schwarz Cutoff:          1E-12

    OpenMP threads:              1

  Minimum eigenvalue in the overlap matrix is 2.9912806660E-04.
  Using Symmetric Orthogonalization.

  SCF Guess: Superposition of Atomic Densities via on-the-fly atomic UHF.

  ==> Iterations <==

                        Total Energy        Delta E     RMS |[F,P]|

   @RHF iter SAD:  -386.91268262592439   -3.86913e+02   0.00000e+00
   @RHF iter   1:  -387.77168758134724   -8.59005e-01   2.75172e-03 DIIS
   @RHF iter   2:  -387.99115360209657   -2.19466e-01   1.15054e-03 DIIS
   @RHF iter   3:  -388.02599932392980   -3.48457e-02   2.49323e-04 DIIS
   @RHF iter   4:  -388.02887539086686   -2.87607e-03   4.85883e-05 DIIS
   @RHF iter   5:  -388.02895597843377   -8.05876e-05   1.47219e-05 DIIS
   @RHF iter   6:  -388.02896305637483   -7.07794e-06   4.35638e-06 DIIS
   @RHF iter   7:  -388.02896373389024   -6.77515e-07   1.27503e-06 DIIS
   @RHF iter   8:  -388.02896380228651   -6.83963e-08   3.19170e-07 DIIS
   @RHF iter   9:  -388.02896381257654   -1.02900e-08   1.34531e-07 DIIS
   @RHF iter  10:  -388.02896381508600   -2.50947e-09   6.73509e-08 DIIS
   @RHF iter  11:  -388.02896381579620   -7.10202e-10   2.45237e-08 DIIS
   @RHF iter  12:  -388.02896381589574   -9.95328e-11   7.80900e-09 DIIS
   @RHF iter  13:  -388.02896381590091   -5.17275e-12   3.07156e-09 DIIS
   @RHF iter  14:  -388.02896381590313   -2.21689e-12   7.65783e-10 DIIS
   @RHF iter  15:  -388.02896381590460   -1.47793e-12   3.42848e-10 DIIS
   @RHF iter  16:  -388.02896381590432    2.84217e-13   1.62078e-10 DIIS
   @RHF iter  17:  -388.02896381590045    3.86535e-12   6.84350e-11 DIIS
  Energy and wave function converged.

  ==> Post-Iterations <==

    Orbital Energies [Eh]
    ---------------------

    Doubly Occupied:

       1A    -11.239350     2A    -11.232272     3A    -11.231886
       4A    -11.229257     5A    -11.228791     6A    -11.228083
       7A    -11.227454     8A    -11.222145     9A    -11.219122
      10A    -11.216393    11A     -1.152676    12A     -1.054367
      13A     -1.044488    14A     -1.010495    15A     -0.930944
      16A     -0.924082    17A     -0.825334    18A     -0.800761
      19A     -0.794451    20A     -0.690871    21A     -0.633410
      22A     -0.630837    23A     -0.625624    24A     -0.596087
      25A     -0.581516    26A     -0.576929    27A     -0.561270
      28A     -0.546944    29A     -0.535162    30A     -0.531211
      31A     -0.487640    32A     -0.485765    33A     -0.481306
      34A     -0.474180    35A     -0.472682    36A     -0.465727
      37A     -0.330685    38A     -0.322110

    Virtual:

      39A      0.136447    40A      0.143835    41A      0.173645
      42A      0.190716    43A      0.205462    44A      0.216840
      45A      0.223041    46A      0.231124    47A      0.241175
      48A      0.256642    49A      0.259013    50A      0.265337
      51A      0.277327    52A      0.287779    53A      0.294004
      54A      0.307686    55A      0.338833    56A      0.361806
      57A      0.366490    58A      0.369080    59A      0.396818
      60A      0.418208    61A      0.460970    62A      0.476850
      63A      0.483761    64A      0.501001    65A      0.558949
      66A      0.572932    67A      0.596312    68A      0.606346
      69A      0.610327    70A      0.618837    71A      0.636255
      72A      0.668795    73A      0.688867    74A      0.696762
      75A      0.713504    76A      0.734454    77A      0.737407
      78A      0.744646    79A      0.750167    80A      0.761147
      81A      0.770807    82A      0.779371    83A      0.786165
      84A      0.797706    85A      0.815171    86A      0.833556
      87A      0.852006    88A      0.856979    89A      0.874100
      90A      0.875553    91A      0.877128    92A      0.888876
      93A      0.896235    94A      0.896809    95A      0.902892
      96A      0.909191    97A      0.918202    98A      0.921190
      99A      0.929220   100A      0.933560   101A      0.935260
     102A      0.942738   103A      0.970512   104A      0.974495
     105A      0.998454   106A      1.015174   107A      1.043781
     108A      1.049438   109A      1.117286   110A      1.119105
     111A      1.138236   112A      1.146904   113A      1.158280
     114A      1.183315   115A      1.208238   116A      1.213744
     117A      1.237021   118A      1.246296   119A      1.260570
     120A      1.295829   121A      1.302423   122A      1.312667
     123A      1.330092   124A      1.344405   125A      1.373391
     126A      1.417010   127A      1.466852   128A      1.505111
     129A      1.510596   130A      1.534687   131A      1.542312
     132A      1.560773   133A      1.593779   134A      1.641909
     135A      1.673615   136A      1.677952   137A      1.693420
     138A      1.698215   139A      1.710028   140A      1.737101
     141A      1.750039   142A      1.762204   143A      1.790453
     144A      1.814847   145A      1.862959   146A      1.867859
     147A      1.878440   148A      1.885562   149A      1.889173
     150A      1.892578   151A      1.908396   152A      1.910835
     153A      1.919285   154A      1.922305   155A      1.934709
     156A      1.942161   157A      1.945956   158A      1.957412
     159A      1.959521   160A      1.971956   161A      1.978250
     162A      1.986453   163A      1.994336   164A      2.002570
     165A      2.009283   166A      2.018709   167A      2.031646
     168A      2.055329   169A      2.066874   170A      2.083241
     171A      2.113112   172A      2.121021   173A      2.143309
     174A      2.154041   175A      2.174450   176A      2.177681
     177A      2.198398   178A      2.216808   179A      2.252101
     180A      2.277429   181A      2.287318   182A      2.295733
     183A      2.299583   184A      2.308946   185A      2.322420
     186A      2.332593   187A      2.347036   188A      2.349738
     189A      2.466176   190A      2.476173   191A      2.496677
     192A      2.512573   193A      2.538869   194A      2.547258
     195A      2.584274   196A      2.612594   197A      2.625358
     198A      2.629946   199A      2.749353   200A      2.752545
     201A      2.765362   202A      2.772621   203A      2.775001
     204A      2.789075   205A      2.806628   206A      2.811444
     207A      2.825319   208A      2.850813   209A      2.881865
     210A      2.916253   211A      2.967236   212A      2.971272
     213A      2.989197   214A      3.015338   215A      3.029304
     216A      3.097957   217A      3.161987   218A      3.213383
     219A      3.313463   220A      3.983865

    Final Occupation by Irrep:
              A
    DOCC [    38 ]

  @RHF Final Energy:  -388.02896381590045

   => Energetics <=

    Nuclear Repulsion Energy =            471.2331792386538609
    One-Electron Energy =               -1456.8396707604383664
    Two-Electron Energy =                 597.5775277058841084
    Total Energy =                       -388.0289638159003971

Computation Completed

Properties will be evaluated at   0.000000,   0.000000,   0.000000 [a0]

Properties computed using the SCF density matrix

  Nuclear Dipole Moment: [e a0]
     X:     1.9493      Y:    -7.8788      Z:   -10.6111

  Electronic Dipole Moment: [e a0]
     X:    -1.9084      Y:     7.9126      Z:    10.7136

  Dipole Moment: [e a0]
     X:     0.0410      Y:     0.0338      Z:     0.1024     Total:     0.1154

  Dipole Moment: [D]
     X:     0.1041      Y:     0.0860      Z:     0.2603     Total:     0.2933

*** tstop() called on ds3 at Sun Apr 26 23:20:35 2020
Module time:
	user time   =      92.64 seconds =       1.54 minutes
	system time =      43.50 seconds =       0.72 minutes
	total time  =        158 seconds =       2.63 minutes
Total time:
	user time   =      92.64 seconds =       1.54 minutes
	system time =      43.50 seconds =       0.72 minutes
	total time  =        158 seconds =       2.63 minutes
                                     G D M A

                                 by Anthony Stone

                           version 2.2.06, 22 June 2011

               Distributed Multipoles from Gaussian wavefunctions

Starting at 23:20:35 on 26 Apr 2020

Using SCF density matrix from file ./SSI/SSI-141GLN-160PHE-1-dimer.test.27840.fchk

                         Distributed Multipole Analysis

Standard DMA

Positions and radii in angstrom
Multipole moments in atomic units, ea_0^k for rank k

C          x = -0.114964  y = -2.141916  z = -2.719838 angstrom
           Maximum rank =  0   Radius =  0.650 angstrom
                   Q00  =  -0.087760

C          x =  0.326036  y = -1.233916  z = -3.873838 angstrom
           Maximum rank =  0   Radius =  0.650 angstrom
                   Q00  =  -0.238501

C          x = -0.154964  y = -3.619916  z = -3.126838 angstrom
           Maximum rank =  0   Radius =  0.650 angstrom
                   Q00  =  -0.244627

H          x =  0.588036  y = -2.032916  z = -1.898838 angstrom
           Maximum rank =  0   Radius =  0.325 angstrom
                   Q00  =   0.042226

H          x = -1.103964  y = -1.849916  z = -2.373838 angstrom
           Maximum rank =  0   Radius =  0.325 angstrom
                   Q00  =   0.048594

H          x = -0.307964  y = -1.448916  z = -4.736838 angstrom
           Maximum rank =  0   Radius =  0.325 angstrom
                   Q00  =   0.073504

H          x = -0.860964  y = -3.721916  z = -3.943838 angstrom
           Maximum rank =  0   Radius =  0.325 angstrom
                   Q00  =   0.075910

H          x =  0.816036  y = -3.941916  z = -3.491838 angstrom
           Maximum rank =  0   Radius =  0.325 angstrom
                   Q00  =   0.077148

H          x =  1.373466  y = -1.427046  z = -4.148761 angstrom
           Maximum rank =  0   Radius =  0.325 angstrom
                   Q00  =   0.080373

H          x =  0.168066  y = -0.175306  z = -3.620086 angstrom
           Maximum rank =  0   Radius =  0.325 angstrom
                   Q00  =   0.087980

H          x = -0.453024  y = -4.288215  z = -2.305538 angstrom
           Maximum rank =  0   Radius =  0.325 angstrom
                   Q00  =   0.086301

C          x =  1.274036  y =  2.167084  z =  3.361162 angstrom
           Maximum rank =  0   Radius =  0.650 angstrom
                   Q00  =  -0.202594

C          x =  0.332036  y = -0.052916  z =  0.426162 angstrom
           Maximum rank =  0   Radius =  0.650 angstrom
                   Q00  =  -0.047747

C          x =  1.060036  y =  0.533084  z =  1.463162 angstrom
           Maximum rank =  0   Radius =  0.650 angstrom
                   Q00  =  -0.078459

C          x = -0.977964  y =  0.327084  z =  0.192162 angstrom
           Maximum rank =  0   Radius =  0.650 angstrom
                   Q00  =  -0.085004

C          x =  0.484036  y =  1.525084  z =  2.248162 angstrom
           Maximum rank =  0   Radius =  0.650 angstrom
                   Q00  =  -0.099017

C          x = -1.561964  y =  1.303084  z =  0.975162 angstrom
           Maximum rank =  0   Radius =  0.650 angstrom
                   Q00  =  -0.036274

C          x = -0.840964  y =  1.899084  z =  2.005162 angstrom
           Maximum rank =  0   Radius =  0.650 angstrom
                   Q00  =  -0.045321

H          x =  0.781036  y = -0.833916  z = -0.158838 angstrom
           Maximum rank =  0   Radius =  0.325 angstrom
                   Q00  =   0.061769

H          x =  2.077036  y =  0.215084  z =  1.646162 angstrom
           Maximum rank =  0   Radius =  0.325 angstrom
                   Q00  =   0.055906

H          x = -1.550964  y = -0.151916  z = -0.588838 angstrom
           Maximum rank =  0   Radius =  0.325 angstrom
                   Q00  =   0.056778

H          x = -2.592964  y =  1.569084  z =  0.829162 angstrom
           Maximum rank =  0   Radius =  0.325 angstrom
                   Q00  =   0.061818

H          x =  1.086036  y =  3.237084  z =  3.342162 angstrom
           Maximum rank =  0   Radius =  0.325 angstrom
                   Q00  =   0.099797

H          x =  2.334036  y =  2.017084  z =  3.162162 angstrom
           Maximum rank =  0   Radius =  0.325 angstrom
                   Q00  =   0.096703

H          x = -1.308964  y =  2.662084  z =  2.611162 angstrom
           Maximum rank =  0   Radius =  0.325 angstrom
                   Q00  =   0.055754

H          x =  1.034426  y =  1.767254  z =  4.357512 angstrom
           Maximum rank =  0   Radius =  0.325 angstrom
                   Q00  =   0.104743

Total multipoles referred to origin at
           x =   0.000000,  y =    0.000000,  z =    0.000000 angstrom
                   Q00  =  -0.000000

Finished at 23:20:35 on 26 Apr 2020

  DMA results are available in the Python driver through the
	  variable('DMA DISTRIBUTED MULTIPOLES')
  and
	  variable('DMA TOTAL MULTIPOLES')
  commands.

    Psi4 stopped on: Sunday, 26 April 2020 11:20PM
    Psi4 wall time for execution: 0:02:37.98

*** Psi4 exiting successfully. Buy a developer a beer!
