                               Psi4 1.3.2 release

  ==> Input File <==

--------------------------------------------------------------------------
import numpy as np
set {scf_type pk
basis cc-pvdz
d_convergence 10
gdma_switch   0
gdma_limit    0
gdma_origin   [ 0.0,  0.0,  0.0 ]
}
molecule test {
    units Angstrom
    0 1
    --
    0 1
    C               -0.836115931719914    -0.494985533707953    -2.589120373639347
    C               -0.036115931719914     0.153014466292047    -3.716120373639347
    H               -1.738115931719914    -0.951985533707953    -3.000120373639347
    H               -0.238115931719914    -1.266985533707953    -2.105120373639347
    H               -1.151115931719914     0.247014466292047    -1.865120373639347
    H                0.956884068280086     0.357014466292047    -3.335120373639347
    H               -0.414305931719914     1.078207466292047    -4.175460373639346
    H                0.053384068280086    -0.522617533707953    -4.579550373639346
    C               -0.285115931719914     0.959014466292047     0.804879626360653
    C                0.564884068280086     1.987014466292047     1.546879626360653
    C                0.036884068280086    -0.467985533707953     1.269879626360653
    O               -0.564115931719914    -0.983985533707953     2.223879626360653
    N                1.038884068280086    -1.075985533707953     0.643879626360653
    H               -1.344115931719914     1.160014466292047     0.974879626360654
    H               -0.076115931719914     1.047014466292047    -0.256120373639347
    H                0.277884068280086     1.966014466292047     2.601879626360653
    H                1.287884068280086    -2.007985533707953     0.946879626360654
    H                1.489884068280086    -0.653985533707953    -0.148120373639347
    H                0.411014068280086     3.005579466292047     1.161069626360653
    H                1.618453068280086     1.675537466292047     1.492339626360653

}
e, wfn = energy('scf', return_wfn=True)
gdma(wfn)
dmavals = variable('DMA DISTRIBUTED MULTIPOLES')
charges = np.array(dmavals)
print(charges)
np.save('SSI-120LEU-123ASN-1-dimer.npy', np.array(charges))--------------------------------------------------------------------------

*** tstart() called on ds3
*** at Sun Apr 26 18:06:45 2020

   => Loading Basis Set <=

    Name: CC-PVDZ
    Role: ORBITAL
    Keyword: BASIS
    atoms 1-2, 9-11  entry C          line   138 file /theoryfs2/ds/metcalf/miniconda2/envs/tf2gpu/share/psi4/basis/cc-pvdz.gbs
    atoms 3-8, 14-20 entry H          line    22 file /theoryfs2/ds/metcalf/miniconda2/envs/tf2gpu/share/psi4/basis/cc-pvdz.gbs
    atoms 12         entry O          line   198 file /theoryfs2/ds/metcalf/miniconda2/envs/tf2gpu/share/psi4/basis/cc-pvdz.gbs
    atoms 13         entry N          line   168 file /theoryfs2/ds/metcalf/miniconda2/envs/tf2gpu/share/psi4/basis/cc-pvdz.gbs

         ---------------------------------------------------------
                                   SCF
               by Justin Turney, Rob Parrish, Andy Simmonett
                          and Daniel G. A. Smith
                              RHF Reference
                        1 Threads,    500 MiB Core
         ---------------------------------------------------------

  ==> Geometry <==

    Molecular point group: c1
    Full point group: C1

    Geometry (in Angstrom), charge = 0, multiplicity = 1:

       Center              X                  Y                   Z               Mass
    ------------   -----------------  -----------------  -----------------  -----------------
         C           -0.836115931720    -0.494985533708    -2.589120373639    12.000000000000
         C           -0.036115931720     0.153014466292    -3.716120373639    12.000000000000
         H           -1.738115931720    -0.951985533708    -3.000120373639     1.007825032230
         H           -0.238115931720    -1.266985533708    -2.105120373639     1.007825032230
         H           -1.151115931720     0.247014466292    -1.865120373639     1.007825032230
         H            0.956884068280     0.357014466292    -3.335120373639     1.007825032230
         H           -0.414305931720     1.078207466292    -4.175460373639     1.007825032230
         H            0.053384068280    -0.522617533708    -4.579550373639     1.007825032230
         C           -0.285115931720     0.959014466292     0.804879626361    12.000000000000
         C            0.564884068280     1.987014466292     1.546879626361    12.000000000000
         C            0.036884068280    -0.467985533708     1.269879626361    12.000000000000
         O           -0.564115931720    -0.983985533708     2.223879626361    15.994914619570
         N            1.038884068280    -1.075985533708     0.643879626361    14.003074004430
         H           -1.344115931720     1.160014466292     0.974879626361     1.007825032230
         H           -0.076115931720     1.047014466292    -0.256120373639     1.007825032230
         H            0.277884068280     1.966014466292     2.601879626361     1.007825032230
         H            1.287884068280    -2.007985533708     0.946879626361     1.007825032230
         H            1.489884068280    -0.653985533708    -0.148120373639     1.007825032230
         H            0.411014068280     3.005579466292     1.161069626361     1.007825032230
         H            1.618453068280     1.675537466292     1.492339626361     1.007825032230

  Running in c1 symmetry.

  Rotational constants: A =      0.10098  B =      0.03281  C =      0.02844 [cm^-1]
  Rotational constants: A =   3027.27598  B =    983.65749  C =    852.56234 [MHz]
  Nuclear repulsion =  303.642118747049381

  Charge       = 0
  Multiplicity = 1
  Electrons    = 58
  Nalpha       = 29
  Nbeta        = 29

  ==> Algorithm <==

  SCF Algorithm Type is PK.
  DIIS enabled.
  MOM disabled.
  Fractional occupation disabled.
  Guess Type is SAD.
  Energy threshold   = 1.00e-06
  Density threshold  = 1.00e-10
  Integral threshold = 0.00e+00

  ==> Primary Basis <==

  Basis Set: CC-PVDZ
    Blend: CC-PVDZ
    Number of shells: 81
    Number of basis function: 163
    Number of Cartesian functions: 170
    Spherical Harmonics?: true
    Max angular momentum: 2

  ==> Pre-Iterations <==

   -------------------------------------------------------
    Irrep   Nso     Nmo     Nalpha   Nbeta   Ndocc  Nsocc
   -------------------------------------------------------
     A        163     163       0       0       0       0
   -------------------------------------------------------
    Total     163     163      29      29      29       0
   -------------------------------------------------------

  ==> Integral Setup <==

  Using integral reordering PK algorithm.
  Sizing the integral batches needed.
  Building batch lookup table.
   Calculation information:
      Number of atoms:                  20
      Number of AO shells:              81
      Number of primitives:            219
      Number of atomic orbitals:       170
      Number of basis functions:       163

      Integral cutoff                 1.00e-12
      Number of threads:                 1

	Batch   1 pq = [       0,    9405] index = [             0,44231715] size =     44231715
	Batch   2 pq = [    9405,   13366] index = [      44231715,89331661] size =     45099946
  Task number: 9
  Buffer size: 11059200
  Buffer per thread: 2
  We computed 5019857 shell quartets total.
  Whereas there are 5516181 unique shell quartets.

  ==> DiskJK: Disk-Based J/K Matrices <==

    J tasked:                  Yes
    K tasked:                  Yes
    wK tasked:                  No
    Memory [MiB]:              375
    Schwarz Cutoff:          1E-12

    OpenMP threads:              1

  Minimum eigenvalue in the overlap matrix is 4.2535741471E-03.
  Using Symmetric Orthogonalization.

  SCF Guess: Superposition of Atomic Densities via on-the-fly atomic UHF.

  ==> Iterations <==

                        Total Energy        Delta E     RMS |[F,P]|

   @RHF iter SAD:  -324.91105561035215   -3.24911e+02   0.00000e+00
   @RHF iter   1:  -326.00374333588798   -1.09269e+00   4.10540e-03 DIIS
   @RHF iter   2:  -326.19804398917370   -1.94301e-01   2.28567e-03 DIIS
   @RHF iter   3:  -326.25242660023883   -5.43826e-02   4.95743e-04 DIIS
   @RHF iter   4:  -326.25627970972766   -3.85311e-03   2.04496e-04 DIIS
   @RHF iter   5:  -326.25696676866698   -6.87059e-04   3.01635e-05 DIIS
   @RHF iter   6:  -326.25700004572116   -3.32771e-05   1.26016e-05 DIIS
   @RHF iter   7:  -326.25700473884450   -4.69312e-06   5.30890e-06 DIIS
   @RHF iter   8:  -326.25700580356408   -1.06472e-06   2.04494e-06 DIIS
   @RHF iter   9:  -326.25700596844928   -1.64885e-07   4.88647e-07 DIIS
   @RHF iter  10:  -326.25700597619436   -7.74509e-09   1.54579e-07 DIIS
   @RHF iter  11:  -326.25700597687944   -6.85077e-10   4.11615e-08 DIIS
   @RHF iter  12:  -326.25700597693293   -5.34897e-11   1.07784e-08 DIIS
   @RHF iter  13:  -326.25700597693816   -5.22959e-12   2.46330e-09 DIIS
   @RHF iter  14:  -326.25700597693771    4.54747e-13   9.96984e-10 DIIS
   @RHF iter  15:  -326.25700597693947   -1.76215e-12   4.63064e-10 DIIS
   @RHF iter  16:  -326.25700597693719    2.27374e-12   1.72865e-10 DIIS
   @RHF iter  17:  -326.25700597693782   -6.25278e-13   6.57788e-11 DIIS
  Energy and wave function converged.

  ==> Post-Iterations <==

    Orbital Energies [Eh]
    ---------------------

    Doubly Occupied:

       1A    -20.503990     2A    -15.591305     3A    -11.346721
       4A    -11.240132     5A    -11.235735     6A    -11.228053
       7A    -11.226687     8A     -1.359868     9A     -1.217129
      10A     -1.051667    11A     -1.028430    12A     -0.886361
      13A     -0.851460    14A     -0.792574    15A     -0.728568
      16A     -0.662710    17A     -0.613253    18A     -0.611271
      19A     -0.603044    20A     -0.592364    21A     -0.566294
      22A     -0.530703    23A     -0.521142    24A     -0.504118
      25A     -0.502034    26A     -0.492435    27A     -0.484054
      28A     -0.404510    29A     -0.401857

    Virtual:

      30A      0.144533    31A      0.187890    32A      0.194167
      33A      0.211149    34A      0.222802    35A      0.231671
      36A      0.238222    37A      0.254151    38A      0.261152
      39A      0.264443    40A      0.279274    41A      0.287042
      42A      0.302804    43A      0.339036    44A      0.377369
      45A      0.388092    46A      0.406927    47A      0.462888
      48A      0.543033    49A      0.572338    50A      0.593136
      51A      0.599711    52A      0.616415    53A      0.633235
      54A      0.642145    55A      0.675166    56A      0.696124
      57A      0.714156    58A      0.734776    59A      0.793224
      60A      0.818271    61A      0.844995    62A      0.847351
      63A      0.855731    64A      0.859306    65A      0.878053
      66A      0.884712    67A      0.887977    68A      0.890843
      69A      0.899824    70A      0.907296    71A      0.909437
      72A      0.922292    73A      0.934828    74A      0.955188
      75A      0.981721    76A      0.998381    77A      1.055007
      78A      1.060932    79A      1.079093    80A      1.108578
      81A      1.116620    82A      1.129010    83A      1.138116
      84A      1.240222    85A      1.318361    86A      1.330950
      87A      1.367754    88A      1.381448    89A      1.403649
      90A      1.428716    91A      1.431212    92A      1.451282
      93A      1.474411    94A      1.475734    95A      1.497647
      96A      1.579449    97A      1.648421    98A      1.670476
      99A      1.693071   100A      1.700651   101A      1.751755
     102A      1.795675   103A      1.834761   104A      1.844490
     105A      1.858874   106A      1.867557   107A      1.874094
     108A      1.884282   109A      1.896575   110A      1.902485
     111A      1.928317   112A      1.931032   113A      1.939524
     114A      1.946434   115A      1.949100   116A      1.963525
     117A      1.970202   118A      1.981933   119A      2.005933
     120A      2.018539   121A      2.033566   122A      2.050698
     123A      2.070738   124A      2.109565   125A      2.112851
     126A      2.142505   127A      2.217926   128A      2.275623
     129A      2.296173   130A      2.323135   131A      2.352522
     132A      2.399426   133A      2.420491   134A      2.441794
     135A      2.463600   136A      2.486447   137A      2.529811
     138A      2.547889   139A      2.559334   140A      2.571672
     141A      2.579299   142A      2.608375   143A      2.624189
     144A      2.742675   145A      2.749096   146A      2.759599
     147A      2.784794   148A      2.822408   149A      2.845017
     150A      2.862301   151A      2.883175   152A      2.896209
     153A      2.944296   154A      2.966306   155A      2.979973
     156A      3.015190   157A      3.088419   158A      3.138799
     159A      3.306077   160A      3.485706   161A      3.538528
     162A      3.844758   163A      3.890617

    Final Occupation by Irrep:
              A
    DOCC [    29 ]

  @RHF Final Energy:  -326.25700597693782

   => Energetics <=

    Nuclear Repulsion Energy =            303.6421187470493805
    One-Electron Energy =               -1044.2413130100860599
    Two-Electron Energy =                 414.3421882860988603
    Total Energy =                       -326.2570059769378190

Computation Completed

Properties will be evaluated at   0.000000,   0.000000,   0.000000 [a0]

Properties computed using the SCF density matrix

  Nuclear Dipole Moment: [e a0]
     X:     1.0569      Y:     4.8103      Z:   -11.5105

  Electronic Dipole Moment: [e a0]
     X:    -0.1054      Y:    -4.3593      Z:    10.2245

  Dipole Moment: [e a0]
     X:     0.9515      Y:     0.4510      Z:    -1.2860     Total:     1.6621

  Dipole Moment: [D]
     X:     2.4186      Y:     1.1463      Z:    -3.2687     Total:     4.2246

*** tstop() called on ds3 at Sun Apr 26 18:07:31 2020
Module time:
	user time   =      32.51 seconds =       0.54 minutes
	system time =      14.10 seconds =       0.23 minutes
	total time  =         46 seconds =       0.77 minutes
Total time:
	user time   =      32.51 seconds =       0.54 minutes
	system time =      14.10 seconds =       0.23 minutes
	total time  =         46 seconds =       0.77 minutes
                                     G D M A

                                 by Anthony Stone

                           version 2.2.06, 22 June 2011

               Distributed Multipoles from Gaussian wavefunctions

Starting at 18:7:31 on 26 Apr 2020

Using SCF density matrix from file ./SSI/SSI-120LEU-123ASN-1-dimer.test.20514.fchk

                         Distributed Multipole Analysis

Standard DMA

Positions and radii in angstrom
Multipole moments in atomic units, ea_0^k for rank k

C          x = -0.836116  y = -0.494986  z = -2.589120 angstrom
           Maximum rank =  0   Radius =  0.650 angstrom
                   Q00  =  -0.228846

C          x = -0.036116  y =  0.153014  z = -3.716120 angstrom
           Maximum rank =  0   Radius =  0.650 angstrom
                   Q00  =  -0.246655

H          x = -1.738116  y = -0.951986  z = -3.000120 angstrom
           Maximum rank =  0   Radius =  0.325 angstrom
                   Q00  =   0.085794

H          x = -0.238116  y = -1.266986  z = -2.105120 angstrom
           Maximum rank =  0   Radius =  0.325 angstrom
                   Q00  =   0.073950

H          x = -1.151116  y =  0.247014  z = -1.865120 angstrom
           Maximum rank =  0   Radius =  0.325 angstrom
                   Q00  =   0.081376

H          x =  0.956884  y =  0.357014  z = -3.335120 angstrom
           Maximum rank =  0   Radius =  0.325 angstrom
                   Q00  =   0.065284

H          x = -0.414306  y =  1.078207  z = -4.175460 angstrom
           Maximum rank =  0   Radius =  0.325 angstrom
                   Q00  =   0.085583

H          x =  0.053384  y = -0.522618  z = -4.579550 angstrom
           Maximum rank =  0   Radius =  0.325 angstrom
                   Q00  =   0.079087

C          x = -0.285116  y =  0.959014  z =  0.804880 angstrom
           Maximum rank =  0   Radius =  0.650 angstrom
                   Q00  =  -0.110431

C          x =  0.564884  y =  1.987014  z =  1.546880 angstrom
           Maximum rank =  0   Radius =  0.650 angstrom
                   Q00  =  -0.204401

C          x =  0.036884  y = -0.467986  z =  1.269880 angstrom
           Maximum rank =  0   Radius =  0.650 angstrom
                   Q00  =   0.798328

O          x = -0.564116  y = -0.983986  z =  2.223880 angstrom
           Maximum rank =  0   Radius =  0.650 angstrom
                   Q00  =  -0.793360

N          x =  1.038884  y = -1.075986  z =  0.643880 angstrom
           Maximum rank =  0   Radius =  0.650 angstrom
                   Q00  =  -0.522521

H          x = -1.344116  y =  1.160014  z =  0.974880 angstrom
           Maximum rank =  0   Radius =  0.325 angstrom
                   Q00  =   0.102281

H          x = -0.076116  y =  1.047014  z = -0.256120 angstrom
           Maximum rank =  0   Radius =  0.325 angstrom
                   Q00  =   0.040389

H          x =  0.277884  y =  1.966014  z =  2.601880 angstrom
           Maximum rank =  0   Radius =  0.325 angstrom
                   Q00  =   0.097643

H          x =  1.287884  y = -2.007986  z =  0.946880 angstrom
           Maximum rank =  0   Radius =  0.325 angstrom
                   Q00  =   0.219862

H          x =  1.489884  y = -0.653986  z = -0.148120 angstrom
           Maximum rank =  0   Radius =  0.325 angstrom
                   Q00  =   0.208992

H          x =  0.411014  y =  3.005579  z =  1.161070 angstrom
           Maximum rank =  0   Radius =  0.325 angstrom
                   Q00  =   0.093364

H          x =  1.618453  y =  1.675537  z =  1.492340 angstrom
           Maximum rank =  0   Radius =  0.325 angstrom
                   Q00  =   0.074282

Total multipoles referred to origin at
           x =   0.000000,  y =    0.000000,  z =    0.000000 angstrom
                   Q00  =  -0.000000

Finished at 18:7:31 on 26 Apr 2020

  DMA results are available in the Python driver through the
	  variable('DMA DISTRIBUTED MULTIPOLES')
  and
	  variable('DMA TOTAL MULTIPOLES')
  commands.

    Psi4 stopped on: Sunday, 26 April 2020 06:07PM
    Psi4 wall time for execution: 0:00:45.45

*** Psi4 exiting successfully. Buy a developer a beer!
