                               Psi4 1.3.2 release

  ==> Input File <==

--------------------------------------------------------------------------
import numpy as np
set {scf_type pk
basis cc-pvdz
d_convergence 10
gdma_switch   0
gdma_limit    0
gdma_origin   [ 0.0,  0.0,  0.0 ]
}
molecule test {
    units Angstrom
    0 1
    --
    0 1
    C                1.293273484338860    -2.873092827083648    -1.074983811555064
    C                0.042273484338860    -3.728092827083649    -1.254983811555064
    H                2.157273484338860    -3.500092827083649    -0.862983811555063
    H                1.486273484338860    -2.315092827083649    -1.991983811555063
    H                1.159273484338860    -2.154092827083649    -0.269983811555063
    H               -0.784726515661140    -3.059092827083648    -1.493983811555064
    H               -0.205723515661140    -4.289832827083648    -0.342327811555063
    H                0.180066484338860    -4.416332827083648    -2.101940811555064
    C               -2.465726515661140     1.724907172916352     1.091016188444937
    C                1.487273484338860     0.583907172916351    -0.164983811555063
    C                1.088273484338860     0.370907172916352     1.151016188444937
    C                0.600273484338860     1.157907172916352    -1.067983811555064
    C               -0.195726515661140     0.743907172916351     1.562016188444936
    C               -0.673726515661140     1.534907172916351    -0.653983811555063
    C               -1.081726515661140     1.329907172916352     0.660016188444937
    H                2.479273484338860     0.294907172916351    -0.486983811555063
    H                1.784273484338860    -0.064092827083648     1.850016188444936
    H                0.889273484338860     1.289907172916352    -2.097983811555064
    H               -0.493726515661140     0.595907172916352     2.586016188444937
    H               -1.348726515661140     1.998907172916351    -1.357983811555063
    H               -2.780726515661140     2.595907172916351     0.514016188444937
    H               -2.433726515661140     2.033907172916352     2.137016188444937
    H               -3.213086515661140     0.925957172916351     0.976369088444937

}
e, wfn = energy('scf', return_wfn=True)
gdma(wfn)
dmavals = variable('DMA DISTRIBUTED MULTIPOLES')
charges = np.array(dmavals)
print(charges)
np.save('SSI-102VAL-133PHE-1-dimer.npy', np.array(charges))--------------------------------------------------------------------------

*** tstart() called on ds3
*** at Mon Apr 27 12:09:57 2020

   => Loading Basis Set <=

    Name: CC-PVDZ
    Role: ORBITAL
    Keyword: BASIS
    atoms 1-2, 9-15  entry C          line   138 file /theoryfs2/ds/metcalf/miniconda2/envs/tf2gpu/share/psi4/basis/cc-pvdz.gbs
    atoms 3-8, 16-23 entry H          line    22 file /theoryfs2/ds/metcalf/miniconda2/envs/tf2gpu/share/psi4/basis/cc-pvdz.gbs

         ---------------------------------------------------------
                                   SCF
               by Justin Turney, Rob Parrish, Andy Simmonett
                          and Daniel G. A. Smith
                              RHF Reference
                        1 Threads,    500 MiB Core
         ---------------------------------------------------------

  ==> Geometry <==

    Molecular point group: c1
    Full point group: C1

    Geometry (in Angstrom), charge = 0, multiplicity = 1:

       Center              X                  Y                   Z               Mass
    ------------   -----------------  -----------------  -----------------  -----------------
         C            1.293273484339    -2.873092827084    -1.074983811555    12.000000000000
         C            0.042273484339    -3.728092827084    -1.254983811555    12.000000000000
         H            2.157273484339    -3.500092827084    -0.862983811555     1.007825032230
         H            1.486273484339    -2.315092827084    -1.991983811555     1.007825032230
         H            1.159273484339    -2.154092827084    -0.269983811555     1.007825032230
         H           -0.784726515661    -3.059092827084    -1.493983811555     1.007825032230
         H           -0.205723515661    -4.289832827084    -0.342327811555     1.007825032230
         H            0.180066484339    -4.416332827084    -2.101940811555     1.007825032230
         C           -2.465726515661     1.724907172916     1.091016188445    12.000000000000
         C            1.487273484339     0.583907172916    -0.164983811555    12.000000000000
         C            1.088273484339     0.370907172916     1.151016188445    12.000000000000
         C            0.600273484339     1.157907172916    -1.067983811555    12.000000000000
         C           -0.195726515661     0.743907172916     1.562016188445    12.000000000000
         C           -0.673726515661     1.534907172916    -0.653983811555    12.000000000000
         C           -1.081726515661     1.329907172916     0.660016188445    12.000000000000
         H            2.479273484339     0.294907172916    -0.486983811555     1.007825032230
         H            1.784273484339    -0.064092827084     1.850016188445     1.007825032230
         H            0.889273484339     1.289907172916    -2.097983811555     1.007825032230
         H           -0.493726515661     0.595907172916     2.586016188445     1.007825032230
         H           -1.348726515661     1.998907172916    -1.357983811555     1.007825032230
         H           -2.780726515661     2.595907172916     0.514016188445     1.007825032230
         H           -2.433726515661     2.033907172916     2.137016188445     1.007825032230
         H           -3.213086515661     0.925957172916     0.976369088445     1.007825032230

  Running in c1 symmetry.

  Rotational constants: A =      0.06991  B =      0.02504  C =      0.02311 [cm^-1]
  Rotational constants: A =   2095.91680  B =    750.69126  C =    692.93783 [MHz]
  Nuclear repulsion =  408.848169959547931

  Charge       = 0
  Multiplicity = 1
  Electrons    = 68
  Nalpha       = 34
  Nbeta        = 34

  ==> Algorithm <==

  SCF Algorithm Type is PK.
  DIIS enabled.
  MOM disabled.
  Fractional occupation disabled.
  Guess Type is SAD.
  Energy threshold   = 1.00e-06
  Density threshold  = 1.00e-10
  Integral threshold = 0.00e+00

  ==> Primary Basis <==

  Basis Set: CC-PVDZ
    Blend: CC-PVDZ
    Number of shells: 96
    Number of basis function: 196
    Number of Cartesian functions: 205
    Spherical Harmonics?: true
    Max angular momentum: 2

  ==> Pre-Iterations <==

   -------------------------------------------------------
    Irrep   Nso     Nmo     Nalpha   Nbeta   Ndocc  Nsocc
   -------------------------------------------------------
     A        196     196       0       0       0       0
   -------------------------------------------------------
    Total     196     196      34      34      34       0
   -------------------------------------------------------

  ==> Integral Setup <==

  Using integral reordering PK algorithm.
  Sizing the integral batches needed.
  Building batch lookup table.
   Calculation information:
      Number of atoms:                  23
      Number of AO shells:              96
      Number of primitives:            268
      Number of atomic orbitals:       205
      Number of basis functions:       196

      Integral cutoff                 1.00e-12
      Number of threads:                 1

	Batch   1 pq = [       0,    9405] index = [             0,44231715] size =     44231715
	Batch   2 pq = [    9405,   13301] index = [      44231715,88464951] size =     44233236
	Batch   3 pq = [   13301,   16290] index = [      88464951,132690195] size =     44225244
	Batch   4 pq = [   16290,   18810] index = [     132690195,176917455] size =     44227260
	Batch   5 pq = [   18810,   19306] index = [     176917455,186370471] size =      9453016
  Task number: 17
  Buffer size: 11059200
  Buffer per thread: 2
  We computed 9512117 shell quartets total.
  Whereas there are 10841496 unique shell quartets.

  ==> DiskJK: Disk-Based J/K Matrices <==

    J tasked:                  Yes
    K tasked:                  Yes
    wK tasked:                  No
    Memory [MiB]:              375
    Schwarz Cutoff:          1E-12

    OpenMP threads:              1

  Minimum eigenvalue in the overlap matrix is 3.1199193722E-04.
  Using Symmetric Orthogonalization.

  SCF Guess: Superposition of Atomic Densities via on-the-fly atomic UHF.

  ==> Iterations <==

                        Total Energy        Delta E     RMS |[F,P]|

   @RHF iter SAD:  -347.88108021004359   -3.47881e+02   0.00000e+00
   @RHF iter   1:  -348.76705613398605   -8.85976e-01   2.89895e-03 DIIS
   @RHF iter   2:  -348.95952007356908   -1.92464e-01   1.20747e-03 DIIS
   @RHF iter   3:  -348.98995283339013   -3.04328e-02   2.59893e-04 DIIS
   @RHF iter   4:  -348.99243066290796   -2.47783e-03   5.64500e-05 DIIS
   @RHF iter   5:  -348.99251188778936   -8.12249e-05   1.93332e-05 DIIS
   @RHF iter   6:  -348.99252093557777   -9.04779e-06   5.01867e-06 DIIS
   @RHF iter   7:  -348.99252165156804   -7.15990e-07   1.21057e-06 DIIS
   @RHF iter   8:  -348.99252170197838   -5.04103e-08   3.17349e-07 DIIS
   @RHF iter   9:  -348.99252170851548   -6.53711e-09   1.44237e-07 DIIS
   @RHF iter  10:  -348.99252171004366   -1.52818e-09   6.93936e-08 DIIS
   @RHF iter  11:  -348.99252171062795   -5.84294e-10   2.70488e-08 DIIS
   @RHF iter  12:  -348.99252171070191   -7.39533e-11   1.27455e-08 DIIS
   @RHF iter  13:  -348.99252171071396   -1.20508e-11   4.17751e-09 DIIS
   @RHF iter  14:  -348.99252171071441   -4.54747e-13   1.13754e-09 DIIS
   @RHF iter  15:  -348.99252171071635   -1.93268e-12   4.12049e-10 DIIS
   @RHF iter  16:  -348.99252171071498    1.36424e-12   1.56365e-10 DIIS
   @RHF iter  17:  -348.99252171071487    1.13687e-13   6.56144e-11 DIIS
  Energy and wave function converged.

  ==> Post-Iterations <==

    Orbital Energies [Eh]
    ---------------------

    Doubly Occupied:

       1A    -11.240252     2A    -11.236243     3A    -11.234964
       4A    -11.231775     5A    -11.231401     6A    -11.230418
       7A    -11.229529     8A    -11.212836     9A    -11.207233
      10A     -1.153368    11A     -1.045722    12A     -1.011728
      13A     -1.011259    14A     -0.931738    15A     -0.829952
      16A     -0.826705    17A     -0.795341    18A     -0.691869
      19A     -0.632197    20A     -0.631044    21A     -0.591570
      22A     -0.590334    23A     -0.582906    24A     -0.577768
      25A     -0.563504    26A     -0.534352    27A     -0.497872
      28A     -0.488233    29A     -0.484907    30A     -0.482911
      31A     -0.478216    32A     -0.474138    33A     -0.332192
      34A     -0.322369

    Virtual:

      35A      0.133585    36A      0.140416    37A      0.178383
      38A      0.195211    39A      0.204280    40A      0.215564
      41A      0.235905    42A      0.246632    43A      0.254950
      44A      0.265885    45A      0.269452    46A      0.273661
      47A      0.281710    48A      0.288338    49A      0.296544
      50A      0.318409    51A      0.364284    52A      0.376241
      53A      0.407312    54A      0.452485    55A      0.463672
      56A      0.481394    57A      0.488062    58A      0.561879
      59A      0.586055    60A      0.598767    61A      0.602410
      62A      0.621408    63A      0.638161    64A      0.649602
      65A      0.678015    66A      0.684852    67A      0.694261
      68A      0.706669    69A      0.727392    70A      0.742358
      71A      0.744917    72A      0.756996    73A      0.762276
      74A      0.767684    75A      0.777471    76A      0.834908
      77A      0.839468    78A      0.849337    79A      0.864767
      80A      0.872903    81A      0.880422    82A      0.890315
      83A      0.896103    84A      0.897515    85A      0.902028
      86A      0.903340    87A      0.909153    88A      0.924807
      89A      0.929425    90A      0.938816    91A      0.945239
      92A      0.957141    93A      0.991657    94A      1.002649
      95A      1.041646    96A      1.044361    97A      1.119472
      98A      1.124565    99A      1.135630   100A      1.147677
     101A      1.154189   102A      1.169793   103A      1.207041
     104A      1.230755   105A      1.240384   106A      1.246699
     107A      1.255337   108A      1.285688   109A      1.302501
     110A      1.307304   111A      1.318964   112A      1.345277
     113A      1.412803   114A      1.481847   115A      1.486906
     116A      1.507805   117A      1.517164   118A      1.556859
     119A      1.578139   120A      1.600577   121A      1.675570
     122A      1.687313   123A      1.699877   124A      1.703284
     125A      1.740977   126A      1.748444   127A      1.774445
     128A      1.793884   129A      1.809062   130A      1.857387
     131A      1.868988   132A      1.880249   133A      1.887122
     134A      1.894709   135A      1.904715   136A      1.912124
     137A      1.918887   138A      1.929911   139A      1.942145
     140A      1.944812   141A      1.956434   142A      1.962194
     143A      1.967808   144A      1.973200   145A      1.976980
     146A      1.980165   147A      1.991822   148A      1.999324
     149A      2.044983   150A      2.065902   151A      2.070446
     152A      2.099044   153A      2.105742   154A      2.124240
     155A      2.153576   156A      2.158322   157A      2.167917
     158A      2.172222   159A      2.176671   160A      2.261327
     161A      2.280206   162A      2.291817   163A      2.301367
     164A      2.304194   165A      2.309416   166A      2.327459
     167A      2.336853   168A      2.465380   169A      2.469040
     170A      2.476429   171A      2.481962   172A      2.495365
     173A      2.538562   174A      2.563689   175A      2.583898
     176A      2.619939   177A      2.742279   178A      2.754996
     179A      2.764544   180A      2.768187   181A      2.782615
     182A      2.810947   183A      2.814650   184A      2.850016
     185A      2.860119   186A      2.866418   187A      2.878544
     188A      2.958911   189A      2.980205   190A      2.989483
     191A      3.013464   192A      3.030512   193A      3.155329
     194A      3.201007   195A      3.302926   196A      3.971800

    Final Occupation by Irrep:
              A
    DOCC [    34 ]

  @RHF Final Energy:  -348.99252171071487

   => Energetics <=

    Nuclear Repulsion Energy =            408.8481699595479313
    One-Electron Energy =               -1280.4476921609311830
    Two-Electron Energy =                 522.6070004906683835
    Total Energy =                       -348.9925217107148683

Computation Completed

Properties will be evaluated at   0.000000,   0.000000,   0.000000 [a0]

Properties computed using the SCF density matrix

  Nuclear Dipole Moment: [e a0]
     X:    -1.0544      Y:    -9.4340      Z:    -2.7587

  Electronic Dipole Moment: [e a0]
     X:     0.9296      Y:     9.5497      Z:     2.8161

  Dipole Moment: [e a0]
     X:    -0.1248      Y:     0.1158      Z:     0.0574     Total:     0.1796

  Dipole Moment: [D]
     X:    -0.3171      Y:     0.2943      Z:     0.1459     Total:     0.4566

*** tstop() called on ds3 at Mon Apr 27 12:16:59 2020
Module time:
	user time   =      64.21 seconds =       1.07 minutes
	system time =      29.35 seconds =       0.49 minutes
	total time  =        422 seconds =       7.03 minutes
Total time:
	user time   =      64.21 seconds =       1.07 minutes
	system time =      29.35 seconds =       0.49 minutes
	total time  =        422 seconds =       7.03 minutes
                                     G D M A

                                 by Anthony Stone

                           version 2.2.06, 22 June 2011

               Distributed Multipoles from Gaussian wavefunctions

Starting at 12:16:59 on 27 Apr 2020

Using SCF density matrix from file ./SSI/SSI-102VAL-133PHE-1-dimer.test.3294.fchk

                         Distributed Multipole Analysis

Standard DMA

Positions and radii in angstrom
Multipole moments in atomic units, ea_0^k for rank k

C          x =  1.293273  y = -2.873093  z = -1.074984 angstrom
           Maximum rank =  0   Radius =  0.650 angstrom
                   Q00  =  -0.242526

C          x =  0.042273  y = -3.728093  z = -1.254984 angstrom
           Maximum rank =  0   Radius =  0.650 angstrom
                   Q00  =  -0.229203

H          x =  2.157273  y = -3.500093  z = -0.862984 angstrom
           Maximum rank =  0   Radius =  0.325 angstrom
                   Q00  =   0.070889

H          x =  1.486273  y = -2.315093  z = -1.991984 angstrom
           Maximum rank =  0   Radius =  0.325 angstrom
                   Q00  =   0.073627

H          x =  1.159273  y = -2.154093  z = -0.269984 angstrom
           Maximum rank =  0   Radius =  0.325 angstrom
                   Q00  =   0.094171

H          x = -0.784727  y = -3.059093  z = -1.493984 angstrom
           Maximum rank =  0   Radius =  0.325 angstrom
                   Q00  =   0.078438

H          x = -0.205724  y = -4.289833  z = -0.342328 angstrom
           Maximum rank =  0   Radius =  0.325 angstrom
                   Q00  =   0.078415

H          x =  0.180066  y = -4.416333  z = -2.101941 angstrom
           Maximum rank =  0   Radius =  0.325 angstrom
                   Q00  =   0.073911

C          x = -2.465727  y =  1.724907  z =  1.091016 angstrom
           Maximum rank =  0   Radius =  0.650 angstrom
                   Q00  =  -0.198902

C          x =  1.487273  y =  0.583907  z = -0.164984 angstrom
           Maximum rank =  0   Radius =  0.650 angstrom
                   Q00  =  -0.073660

C          x =  1.088273  y =  0.370907  z =  1.151016 angstrom
           Maximum rank =  0   Radius =  0.650 angstrom
                   Q00  =  -0.066159

C          x =  0.600273  y =  1.157907  z = -1.067984 angstrom
           Maximum rank =  0   Radius =  0.650 angstrom
                   Q00  =  -0.078432

C          x = -0.195727  y =  0.743907  z =  1.562016 angstrom
           Maximum rank =  0   Radius =  0.650 angstrom
                   Q00  =  -0.088931

C          x = -0.673727  y =  1.534907  z = -0.653984 angstrom
           Maximum rank =  0   Radius =  0.650 angstrom
                   Q00  =   0.004316

C          x = -1.081727  y =  1.329907  z =  0.660016 angstrom
           Maximum rank =  0   Radius =  0.650 angstrom
                   Q00  =  -0.103490

H          x =  2.479273  y =  0.294907  z = -0.486984 angstrom
           Maximum rank =  0   Radius =  0.325 angstrom
                   Q00  =   0.063156

H          x =  1.784273  y = -0.064093  z =  1.850016 angstrom
           Maximum rank =  0   Radius =  0.325 angstrom
                   Q00  =   0.065443

H          x =  0.889273  y =  1.289907  z = -2.097984 angstrom
           Maximum rank =  0   Radius =  0.325 angstrom
                   Q00  =   0.064428

H          x = -0.493727  y =  0.595907  z =  2.586016 angstrom
           Maximum rank =  0   Radius =  0.325 angstrom
                   Q00  =   0.057788

H          x = -1.348727  y =  1.998907  z = -1.357984 angstrom
           Maximum rank =  0   Radius =  0.325 angstrom
                   Q00  =   0.056488

H          x = -2.780727  y =  2.595907  z =  0.514016 angstrom
           Maximum rank =  0   Radius =  0.325 angstrom
                   Q00  =   0.097216

H          x = -2.433727  y =  2.033907  z =  2.137016 angstrom
           Maximum rank =  0   Radius =  0.325 angstrom
                   Q00  =   0.097120

H          x = -3.213087  y =  0.925957  z =  0.976369 angstrom
           Maximum rank =  0   Radius =  0.325 angstrom
                   Q00  =   0.105899

Total multipoles referred to origin at
           x =   0.000000,  y =    0.000000,  z =    0.000000 angstrom
                   Q00  =  -0.000000

Finished at 12:16:59 on 27 Apr 2020

  DMA results are available in the Python driver through the
	  variable('DMA DISTRIBUTED MULTIPOLES')
  and
	  variable('DMA TOTAL MULTIPOLES')
  commands.

    Psi4 stopped on: Monday, 27 April 2020 12:16PM
    Psi4 wall time for execution: 0:07:02.03

*** Psi4 exiting successfully. Buy a developer a beer!
