                               Psi4 1.3.2 release

  ==> Input File <==

--------------------------------------------------------------------------
import numpy as np
set {scf_type pk
basis cc-pvdz
d_convergence 10
gdma_switch   0
gdma_limit    0
gdma_origin   [ 0.0,  0.0,  0.0 ]
}
molecule test {
    units Angstrom
    0 1
    --
    0 1
    C               -2.471862616981795    -1.367861283889662    -1.819738190058116
    O               -1.533862616981795    -0.540861283889662    -1.183738190058116
    H               -1.210862616981795     0.072138716110338    -1.862738190058116
    H               -1.952862616981795    -2.124861283889662    -2.408738190058116
    H               -3.082862616981795    -0.763861283889662    -2.491738190058116
    H               -3.138122616981795    -1.857841283889662    -1.094478190058116
    C               -0.015862616981795     1.017138716110338     0.654261809941884
    C               -0.463862616981795     0.808138716110338     2.091261809941884
    C                1.267137383018205     0.301138716110338     0.318261809941884
    O                2.300137383018205     0.570138716110338     0.925261809941884
    N                1.229137383018205    -0.599861283889662    -0.642738190058116
    H               -0.790862616981795     1.151138716110338    -0.062738190058116
    H                0.314137383018205     2.057138716110338     0.658261809941884
    H                0.273137383018205     1.283138716110338     2.731261809941884
    H                2.077137383018205    -1.092861283889662    -0.874738190058116
    H                0.326137383018205    -0.908861283889662    -0.973738190058116
    H               -0.550982616981795    -0.255491283889662     2.357921809941884
    H               -1.446932616981795     1.278268716110338     2.241441809941884

}
e, wfn = energy('scf', return_wfn=True)
gdma(wfn)
dmavals = variable('DMA DISTRIBUTED MULTIPOLES')
charges = np.array(dmavals)
print(charges)
np.save('SSI-123SER-182ASN-1-dimer.npy', np.array(charges))--------------------------------------------------------------------------

*** tstart() called on ds3
*** at Mon Apr 27 23:21:15 2020

   => Loading Basis Set <=

    Name: CC-PVDZ
    Role: ORBITAL
    Keyword: BASIS
    atoms 1, 7-9     entry C          line   138 file /theoryfs2/ds/metcalf/miniconda2/envs/tf2gpu/share/psi4/basis/cc-pvdz.gbs
    atoms 2, 10      entry O          line   198 file /theoryfs2/ds/metcalf/miniconda2/envs/tf2gpu/share/psi4/basis/cc-pvdz.gbs
    atoms 3-6, 12-18 entry H          line    22 file /theoryfs2/ds/metcalf/miniconda2/envs/tf2gpu/share/psi4/basis/cc-pvdz.gbs
    atoms 11         entry N          line   168 file /theoryfs2/ds/metcalf/miniconda2/envs/tf2gpu/share/psi4/basis/cc-pvdz.gbs

         ---------------------------------------------------------
                                   SCF
               by Justin Turney, Rob Parrish, Andy Simmonett
                          and Daniel G. A. Smith
                              RHF Reference
                        1 Threads,    500 MiB Core
         ---------------------------------------------------------

  ==> Geometry <==

    Molecular point group: c1
    Full point group: C1

    Geometry (in Angstrom), charge = 0, multiplicity = 1:

       Center              X                  Y                   Z               Mass
    ------------   -----------------  -----------------  -----------------  -----------------
         C           -2.471862616982    -1.367861283890    -1.819738190058    12.000000000000
         O           -1.533862616982    -0.540861283890    -1.183738190058    15.994914619570
         H           -1.210862616982     0.072138716110    -1.862738190058     1.007825032230
         H           -1.952862616982    -2.124861283890    -2.408738190058     1.007825032230
         H           -3.082862616982    -0.763861283890    -2.491738190058     1.007825032230
         H           -3.138122616982    -1.857841283890    -1.094478190058     1.007825032230
         C           -0.015862616982     1.017138716110     0.654261809942    12.000000000000
         C           -0.463862616982     0.808138716110     2.091261809942    12.000000000000
         C            1.267137383018     0.301138716110     0.318261809942    12.000000000000
         O            2.300137383018     0.570138716110     0.925261809942    15.994914619570
         N            1.229137383018    -0.599861283890    -0.642738190058    14.003074004430
         H           -0.790862616982     1.151138716110    -0.062738190058     1.007825032230
         H            0.314137383018     2.057138716110     0.658261809942     1.007825032230
         H            0.273137383018     1.283138716110     2.731261809942     1.007825032230
         H            2.077137383018    -1.092861283890    -0.874738190058     1.007825032230
         H            0.326137383018    -0.908861283890    -0.973738190058     1.007825032230
         H           -0.550982616982    -0.255491283890     2.357921809942     1.007825032230
         H           -1.446932616982     1.278268716110     2.241441809942     1.007825032230

  Running in c1 symmetry.

  Rotational constants: A =      0.12287  B =      0.04163  C =      0.03293 [cm^-1]
  Rotational constants: A =   3683.50331  B =   1247.93326  C =    987.21778 [MHz]
  Nuclear repulsion =  318.248625637398789

  Charge       = 0
  Multiplicity = 1
  Electrons    = 58
  Nalpha       = 29
  Nbeta        = 29

  ==> Algorithm <==

  SCF Algorithm Type is PK.
  DIIS enabled.
  MOM disabled.
  Fractional occupation disabled.
  Guess Type is SAD.
  Energy threshold   = 1.00e-06
  Density threshold  = 1.00e-10
  Integral threshold = 0.00e+00

  ==> Primary Basis <==

  Basis Set: CC-PVDZ
    Blend: CC-PVDZ
    Number of shells: 75
    Number of basis function: 153
    Number of Cartesian functions: 160
    Spherical Harmonics?: true
    Max angular momentum: 2

  ==> Pre-Iterations <==

   -------------------------------------------------------
    Irrep   Nso     Nmo     Nalpha   Nbeta   Ndocc  Nsocc
   -------------------------------------------------------
     A        153     153       0       0       0       0
   -------------------------------------------------------
    Total     153     153      29      29      29       0
   -------------------------------------------------------

  ==> Integral Setup <==

  Using integral reordering PK algorithm.
  Sizing the integral batches needed.
  Building batch lookup table.
   Calculation information:
      Number of atoms:                  18
      Number of AO shells:              75
      Number of primitives:            209
      Number of atomic orbitals:       160
      Number of basis functions:       153

      Integral cutoff                 1.00e-12
      Number of threads:                 1

	Batch   1 pq = [       0,    9405] index = [             0,44231715] size =     44231715
	Batch   2 pq = [    9405,   11781] index = [      44231715,69401871] size =     25170156
  Task number: 7
  Buffer size: 11059200
  Buffer per thread: 2
  We computed 3860960 shell quartets total.
  Whereas there are 4062675 unique shell quartets.

  ==> DiskJK: Disk-Based J/K Matrices <==

    J tasked:                  Yes
    K tasked:                  Yes
    wK tasked:                  No
    Memory [MiB]:              375
    Schwarz Cutoff:          1E-12

    OpenMP threads:              1

  Minimum eigenvalue in the overlap matrix is 3.5776917319E-03.
  Using Symmetric Orthogonalization.

  SCF Guess: Superposition of Atomic Densities via on-the-fly atomic UHF.

  ==> Iterations <==

                        Total Energy        Delta E     RMS |[F,P]|

   @RHF iter SAD:  -360.89619744977853   -3.60896e+02   0.00000e+00
   @RHF iter   1:  -361.82978778543372   -9.33590e-01   4.33599e-03 DIIS
   @RHF iter   2:  -362.00931416125627   -1.79526e-01   2.37911e-03 DIIS
   @RHF iter   3:  -362.05848683719898   -4.91727e-02   4.80936e-04 DIIS
   @RHF iter   4:  -362.06174271801319   -3.25588e-03   1.98235e-04 DIIS
   @RHF iter   5:  -362.06228736400709   -5.44646e-04   3.76189e-05 DIIS
   @RHF iter   6:  -362.06232294041473   -3.55764e-05   1.69810e-05 DIIS
   @RHF iter   7:  -362.06232927385133   -6.33344e-06   6.36050e-06 DIIS
   @RHF iter   8:  -362.06233057869235   -1.30484e-06   2.27599e-06 DIIS
   @RHF iter   9:  -362.06233075312440   -1.74432e-07   6.65224e-07 DIIS
   @RHF iter  10:  -362.06233076661351   -1.34891e-08   2.33853e-07 DIIS
   @RHF iter  11:  -362.06233076795115   -1.33764e-09   5.38895e-08 DIIS
   @RHF iter  12:  -362.06233076803233   -8.11724e-11   1.77168e-08 DIIS
   @RHF iter  13:  -362.06233076804131   -8.98126e-12   5.53194e-09 DIIS
   @RHF iter  14:  -362.06233076804216   -8.52651e-13   1.87843e-09 DIIS
   @RHF iter  15:  -362.06233076804256   -3.97904e-13   7.92977e-10 DIIS
   @RHF iter  16:  -362.06233076804295   -3.97904e-13   3.41598e-10 DIIS
   @RHF iter  17:  -362.06233076804386   -9.09495e-13   1.38661e-10 DIIS
   @RHF iter  18:  -362.06233076804403   -1.70530e-13   3.79376e-11 DIIS
  Energy and wave function converged.

  ==> Post-Iterations <==

    Orbital Energies [Eh]
    ---------------------

    Doubly Occupied:

       1A    -20.592449     2A    -20.484487     3A    -15.564458
       4A    -11.326814     5A    -11.300648     6A    -11.216039
       7A    -11.211895     8A     -1.399559     9A     -1.351876
      10A     -1.199166    11A     -1.036642    12A     -0.950288
      13A     -0.873848    14A     -0.772844    15A     -0.721703
      16A     -0.718210    17A     -0.662382    18A     -0.648489
      19A     -0.624744    20A     -0.589385    21A     -0.571044
      22A     -0.557831    23A     -0.527825    24A     -0.506795
      25A     -0.494524    26A     -0.475571    27A     -0.453346
      28A     -0.393001    29A     -0.384428

    Virtual:

      30A      0.154585    31A      0.194341    32A      0.200273
      33A      0.212780    34A      0.243138    35A      0.246447
      36A      0.253224    37A      0.254666    38A      0.260254
      39A      0.297172    40A      0.315853    41A      0.333046
      42A      0.362269    43A      0.414044    44A      0.439318
      45A      0.480237    46A      0.579549    47A      0.604240
      48A      0.612645    49A      0.626532    50A      0.642863
      51A      0.677763    52A      0.696329    53A      0.722516
      54A      0.749996    55A      0.765981    56A      0.800521
      57A      0.817955    58A      0.836425    59A      0.850905
      60A      0.862843    61A      0.874028    62A      0.882850
      63A      0.886536    64A      0.891114    65A      0.919859
      66A      0.929810    67A      0.955911    68A      0.964241
      69A      0.969919    70A      1.036992    71A      1.046165
      72A      1.088807    73A      1.105932    74A      1.121021
      75A      1.130894    76A      1.150312    77A      1.206207
      78A      1.252933    79A      1.305503    80A      1.366870
      81A      1.374436    82A      1.396982    83A      1.404768
      84A      1.443587    85A      1.464095    86A      1.490841
      87A      1.528376    88A      1.559795    89A      1.575947
      90A      1.610345    91A      1.648050    92A      1.663190
      93A      1.691533    94A      1.696788    95A      1.743981
      96A      1.773978    97A      1.825113    98A      1.836231
      99A      1.847335   100A      1.869318   101A      1.886763
     102A      1.897929   103A      1.908698   104A      1.933522
     105A      1.943705   106A      1.958309   107A      1.966733
     108A      2.002613   109A      2.034374   110A      2.064500
     111A      2.075477   112A      2.112547   113A      2.140998
     114A      2.156700   115A      2.180580   116A      2.204862
     117A      2.286594   118A      2.293082   119A      2.322616
     120A      2.342481   121A      2.360289   122A      2.406758
     123A      2.427580   124A      2.459723   125A      2.482382
     126A      2.530658   127A      2.570425   128A      2.606510
     129A      2.642683   130A      2.663879   131A      2.707413
     132A      2.723255   133A      2.743071   134A      2.759123
     135A      2.770224   136A      2.807297   137A      2.845787
     138A      2.891414   139A      2.906026   140A      3.022912
     141A      3.051738   142A      3.130687   143A      3.167613
     144A      3.276506   145A      3.335720   146A      3.378042
     147A      3.451389   148A      3.539015   149A      3.558132
     150A      3.623236   151A      3.892378   152A      3.929848
     153A      4.095790

    Final Occupation by Irrep:
              A
    DOCC [    29 ]

  @RHF Final Energy:  -362.06233076804403

   => Energetics <=

    Nuclear Repulsion Energy =            318.2486256373987885
    One-Electron Energy =               -1125.4013271487931434
    Two-Electron Energy =                 445.0903707433502632
    Total Energy =                       -362.0623307680440348

Computation Completed

Properties will be evaluated at   0.000000,   0.000000,   0.000000 [a0]

Properties computed using the SCF density matrix

  Nuclear Dipole Moment: [e a0]
     X:    -8.6086      Y:    -1.0874      Z:    -1.6681

  Electronic Dipole Moment: [e a0]
     X:     6.8258      Y:     0.4023      Z:    -0.0499

  Dipole Moment: [e a0]
     X:    -1.7828      Y:    -0.6852      Z:    -1.7180     Total:     2.5689

  Dipole Moment: [D]
     X:    -4.5314      Y:    -1.7415      Z:    -4.3667     Total:     6.5296

*** tstop() called on ds3 at Mon Apr 27 23:22:00 2020
Module time:
	user time   =      31.27 seconds =       0.52 minutes
	system time =      14.94 seconds =       0.25 minutes
	total time  =         45 seconds =       0.75 minutes
Total time:
	user time   =      31.27 seconds =       0.52 minutes
	system time =      14.94 seconds =       0.25 minutes
	total time  =         45 seconds =       0.75 minutes
                                     G D M A

                                 by Anthony Stone

                           version 2.2.06, 22 June 2011

               Distributed Multipoles from Gaussian wavefunctions

Starting at 23:22:0 on 27 Apr 2020

Using SCF density matrix from file ./SSI/SSI-123SER-182ASN-1-dimer.test.2472.fchk

                         Distributed Multipole Analysis

Standard DMA

Positions and radii in angstrom
Multipole moments in atomic units, ea_0^k for rank k

C          x = -2.471863  y = -1.367861  z = -1.819738 angstrom
           Maximum rank =  0   Radius =  0.650 angstrom
                   Q00  =  -0.051787

O          x = -1.533863  y = -0.540861  z = -1.183738 angstrom
           Maximum rank =  0   Radius =  0.650 angstrom
                   Q00  =  -0.554896

H          x = -1.210863  y =  0.072139  z = -1.862738 angstrom
           Maximum rank =  0   Radius =  0.325 angstrom
                   Q00  =   0.396406

H          x = -1.952863  y = -2.124861  z = -2.408738 angstrom
           Maximum rank =  0   Radius =  0.325 angstrom
                   Q00  =   0.068809

H          x = -3.082863  y = -0.763861  z = -2.491738 angstrom
           Maximum rank =  0   Radius =  0.325 angstrom
                   Q00  =   0.078367

H          x = -3.138123  y = -1.857841  z = -1.094478 angstrom
           Maximum rank =  0   Radius =  0.325 angstrom
                   Q00  =   0.123386

C          x = -0.015863  y =  1.017139  z =  0.654262 angstrom
           Maximum rank =  0   Radius =  0.650 angstrom
                   Q00  =  -0.187231

C          x = -0.463863  y =  0.808139  z =  2.091262 angstrom
           Maximum rank =  0   Radius =  0.650 angstrom
                   Q00  =  -0.198344

C          x =  1.267137  y =  0.301139  z =  0.318262 angstrom
           Maximum rank =  0   Radius =  0.650 angstrom
                   Q00  =   0.878610

O          x =  2.300137  y =  0.570139  z =  0.925262 angstrom
           Maximum rank =  0   Radius =  0.650 angstrom
                   Q00  =  -0.839967

N          x =  1.229137  y = -0.599861  z = -0.642738 angstrom
           Maximum rank =  0   Radius =  0.650 angstrom
                   Q00  =  -0.542821

H          x = -0.790863  y =  1.151139  z = -0.062738 angstrom
           Maximum rank =  0   Radius =  0.325 angstrom
                   Q00  =   0.074217

H          x =  0.314137  y =  2.057139  z =  0.658262 angstrom
           Maximum rank =  0   Radius =  0.325 angstrom
                   Q00  =   0.075627

H          x =  0.273137  y =  1.283139  z =  2.731262 angstrom
           Maximum rank =  0   Radius =  0.325 angstrom
                   Q00  =   0.107469

H          x =  2.077137  y = -1.092861  z = -0.874738 angstrom
           Maximum rank =  0   Radius =  0.325 angstrom
                   Q00  =   0.203872

H          x =  0.326137  y = -0.908861  z = -0.973738 angstrom
           Maximum rank =  0   Radius =  0.325 angstrom
                   Q00  =   0.214397

H          x = -0.550983  y = -0.255491  z =  2.357922 angstrom
           Maximum rank =  0   Radius =  0.325 angstrom
                   Q00  =   0.075269

H          x = -1.446933  y =  1.278269  z =  2.241442 angstrom
           Maximum rank =  0   Radius =  0.325 angstrom
                   Q00  =   0.078614

Total multipoles referred to origin at
           x =   0.000000,  y =    0.000000,  z =    0.000000 angstrom
                   Q00  =  -0.000000

Finished at 23:22:0 on 27 Apr 2020

  DMA results are available in the Python driver through the
	  variable('DMA DISTRIBUTED MULTIPOLES')
  and
	  variable('DMA TOTAL MULTIPOLES')
  commands.

    Psi4 stopped on: Monday, 27 April 2020 11:22PM
    Psi4 wall time for execution: 0:00:45.17

*** Psi4 exiting successfully. Buy a developer a beer!
