                               Psi4 1.3.2 release

  ==> Input File <==

--------------------------------------------------------------------------
import numpy as np
set {scf_type pk
basis cc-pvdz
d_convergence 10
gdma_switch   0
gdma_limit    0
gdma_origin   [ 0.0,  0.0,  0.0 ]
}
molecule test {
    units Angstrom
    0 1
    --
    0 1
    C                0.642827974138846     2.529883786049737     0.562353595176844
    C                1.581827974138846     3.602883786049737     1.116353595176844
    C                1.026827974138846     2.068883786049736    -0.815646404823156
    C                0.922827974138846     2.947883786049737    -1.891646404823156
    C                1.545827974138846     0.798883786049737    -1.024646404823156
    C                1.308827974138846     2.546883786049737    -3.164646404823156
    C                1.925827974138846     0.393883786049737    -2.302646404823156
    C                1.813827974138846     1.273883786049737    -3.365646404823155
    H                0.652827974138846     1.700883786049737     1.261353595176844
    H               -0.372172025861154     2.912883786049737     0.516353595176844
    H                1.743827974138846     4.318883786049736     0.312353595176844
    H                0.530827974138846     3.944883786049737    -1.741646404823155
    H                1.641827974138846     0.110883786049737    -0.196646404823156
    H                1.217827974138846     3.229883786049737    -3.999646404823156
    H                2.300827974138846    -0.605116213950263    -2.462646404823156
    H                2.100827974138846     0.962883786049737    -4.356646404823156
    H                2.548823274138846     3.174853786049737     1.419193595176844
    H                1.073459874138846     4.182943786049737     1.900633595176844
    C               -1.407172025861154    -3.750116213950263     3.489353595176845
    C               -1.094172025861154    -0.811116213950263     1.152353595176844
    C               -1.672172025861154    -1.310116213950263    -0.006646404823156
    C               -1.011172025861154    -1.601116213950263     2.284353595176845
    C               -1.487172025861154    -2.907116213950263     2.263353595176844
    C               -2.150172025861154    -2.612116213950263    -0.034646404823156
    C               -2.057172025861154    -3.412116213950263     1.099353595176844
    H               -0.736172025861154     0.197883786049737     1.178353595176844
    H               -1.736172025861154    -0.690116213950263    -0.891646404823156
    H               -0.568172025861154    -1.198116213950263     3.182353595176845
    H               -2.552172025861154    -3.021116213950263    -0.947646404823156
    H               -0.479172025861154    -3.533116213950263     4.021353595176844
    H               -1.362172025861154    -4.794116213950264     3.176353595176844
    H               -2.424172025861154    -4.428116213950264     1.070353595176844
    H               -2.264041025861154    -3.600566213950263     4.162713595176845

}
e, wfn = energy('scf', return_wfn=True)
gdma(wfn)
dmavals = variable('DMA DISTRIBUTED MULTIPOLES')
charges = np.array(dmavals)
print(charges)
np.save('SSI-056PHE-062PHE-1-dimer.npy', np.array(charges))--------------------------------------------------------------------------

*** tstart() called on ds3
*** at Mon Apr 27 05:11:40 2020

   => Loading Basis Set <=

    Name: CC-PVDZ
    Role: ORBITAL
    Keyword: BASIS
    atoms 1-8, 19-25  entry C          line   138 file /theoryfs2/ds/metcalf/miniconda2/envs/tf2gpu/share/psi4/basis/cc-pvdz.gbs
    atoms 9-18, 26-33 entry H          line    22 file /theoryfs2/ds/metcalf/miniconda2/envs/tf2gpu/share/psi4/basis/cc-pvdz.gbs

         ---------------------------------------------------------
                                   SCF
               by Justin Turney, Rob Parrish, Andy Simmonett
                          and Daniel G. A. Smith
                              RHF Reference
                        1 Threads,    500 MiB Core
         ---------------------------------------------------------

  ==> Geometry <==

    Molecular point group: c1
    Full point group: C1

    Geometry (in Angstrom), charge = 0, multiplicity = 1:

       Center              X                  Y                   Z               Mass
    ------------   -----------------  -----------------  -----------------  -----------------
         C            0.642827974139     2.529883786050     0.562353595177    12.000000000000
         C            1.581827974139     3.602883786050     1.116353595177    12.000000000000
         C            1.026827974139     2.068883786050    -0.815646404823    12.000000000000
         C            0.922827974139     2.947883786050    -1.891646404823    12.000000000000
         C            1.545827974139     0.798883786050    -1.024646404823    12.000000000000
         C            1.308827974139     2.546883786050    -3.164646404823    12.000000000000
         C            1.925827974139     0.393883786050    -2.302646404823    12.000000000000
         C            1.813827974139     1.273883786050    -3.365646404823    12.000000000000
         H            0.652827974139     1.700883786050     1.261353595177     1.007825032230
         H           -0.372172025861     2.912883786050     0.516353595177     1.007825032230
         H            1.743827974139     4.318883786050     0.312353595177     1.007825032230
         H            0.530827974139     3.944883786050    -1.741646404823     1.007825032230
         H            1.641827974139     0.110883786050    -0.196646404823     1.007825032230
         H            1.217827974139     3.229883786050    -3.999646404823     1.007825032230
         H            2.300827974139    -0.605116213950    -2.462646404823     1.007825032230
         H            2.100827974139     0.962883786050    -4.356646404823     1.007825032230
         H            2.548823274139     3.174853786050     1.419193595177     1.007825032230
         H            1.073459874139     4.182943786050     1.900633595177     1.007825032230
         C           -1.407172025861    -3.750116213950     3.489353595177    12.000000000000
         C           -1.094172025861    -0.811116213950     1.152353595177    12.000000000000
         C           -1.672172025861    -1.310116213950    -0.006646404823    12.000000000000
         C           -1.011172025861    -1.601116213950     2.284353595177    12.000000000000
         C           -1.487172025861    -2.907116213950     2.263353595177    12.000000000000
         C           -2.150172025861    -2.612116213950    -0.034646404823    12.000000000000
         C           -2.057172025861    -3.412116213950     1.099353595177    12.000000000000
         H           -0.736172025861     0.197883786050     1.178353595177     1.007825032230
         H           -1.736172025861    -0.690116213950    -0.891646404823     1.007825032230
         H           -0.568172025861    -1.198116213950     3.182353595177     1.007825032230
         H           -2.552172025861    -3.021116213950    -0.947646404823     1.007825032230
         H           -0.479172025861    -3.533116213950     4.021353595177     1.007825032230
         H           -1.362172025861    -4.794116213950     3.176353595177     1.007825032230
         H           -2.424172025861    -4.428116213950     1.070353595177     1.007825032230
         H           -2.264041025861    -3.600566213950     4.162713595177     1.007825032230

  Running in c1 symmetry.

  Rotational constants: A =      0.03398  B =      0.00811  C =      0.00706 [cm^-1]
  Rotational constants: A =   1018.55226  B =    243.04160  C =    211.65680 [MHz]
  Nuclear repulsion =  865.903988230026926

  Charge       = 0
  Multiplicity = 1
  Electrons    = 108
  Nalpha       = 54
  Nbeta        = 54

  ==> Algorithm <==

  SCF Algorithm Type is PK.
  DIIS enabled.
  MOM disabled.
  Fractional occupation disabled.
  Guess Type is SAD.
  Energy threshold   = 1.00e-06
  Density threshold  = 1.00e-10
  Integral threshold = 0.00e+00

  ==> Primary Basis <==

  Basis Set: CC-PVDZ
    Blend: CC-PVDZ
    Number of shells: 144
    Number of basis function: 300
    Number of Cartesian functions: 315
    Spherical Harmonics?: true
    Max angular momentum: 2

  ==> Pre-Iterations <==

   -------------------------------------------------------
    Irrep   Nso     Nmo     Nalpha   Nbeta   Ndocc  Nsocc
   -------------------------------------------------------
     A        300     300       0       0       0       0
   -------------------------------------------------------
    Total     300     300      54      54      54       0
   -------------------------------------------------------

  ==> Integral Setup <==

  Using integral reordering PK algorithm.
  Sizing the integral batches needed.
  Building batch lookup table.
   Calculation information:
      Number of atoms:                  33
      Number of AO shells:             144
      Number of primitives:            420
      Number of atomic orbitals:       315
      Number of basis functions:       300

      Integral cutoff                 1.00e-12
      Number of threads:                 1

	Batch   1 pq = [       0,    9405] index = [             0,44231715] size =     44231715
	Batch   2 pq = [    9405,   13301] index = [      44231715,88464951] size =     44233236
	Batch   3 pq = [   13301,   16290] index = [      88464951,132690195] size =     44225244
	Batch   4 pq = [   16290,   18810] index = [     132690195,176917455] size =     44227260
	Batch   5 pq = [   18810,   21030] index = [     176917455,221140965] size =     44223510
	Batch   6 pq = [   21030,   23037] index = [     221140965,265363203] size =     44222238
	Batch   7 pq = [   23037,   24883] index = [     265363203,309594286] size =     44231083
	Batch   8 pq = [   24883,   26601] index = [     309594286,353819901] size =     44225615
	Batch   9 pq = [   26601,   28214] index = [     353819901,398029005] size =     44209104
	Batch  10 pq = [   28214,   29740] index = [     398029005,442248670] size =     44219665
	Batch  11 pq = [   29740,   31191] index = [     442248670,486454836] size =     44206166
	Batch  12 pq = [   31191,   32578] index = [     486454836,530679331] size =     44224495
	Batch  13 pq = [   32578,   33908] index = [     530679331,574893186] size =     44213855
	Batch  14 pq = [   33908,   35188] index = [     574893186,619115266] size =     44222080
	Batch  15 pq = [   35188,   36423] index = [     619115266,663335676] size =     44220410
	Batch  16 pq = [   36423,   37617] index = [     663335676,707538153] size =     44202477
	Batch  17 pq = [   37617,   38775] index = [     707538153,751769700] size =     44231547
	Batch  18 pq = [   38775,   39899] index = [     751769700,795985050] size =     44215350
	Batch  19 pq = [   39899,   40992] index = [     795985050,840192528] size =     44207478
	Batch  20 pq = [   40992,   42057] index = [     840192528,884416653] size =     44224125
	Batch  21 pq = [   42057,   43095] index = [     884416653,928611060] size =     44194407
	Batch  22 pq = [   43095,   44109] index = [     928611060,972823995] size =     44212935
	Batch  23 pq = [   44109,   45150] index = [     972823995,1019283825] size =     46459830
  Task number: 93
  Buffer size: 11059200
  Buffer per thread: 2
  We computed 48703480 shell quartets total.
  Whereas there are 54502020 unique shell quartets.

  ==> DiskJK: Disk-Based J/K Matrices <==

    J tasked:                  Yes
    K tasked:                  Yes
    wK tasked:                  No
    Memory [MiB]:              375
    Schwarz Cutoff:          1E-12

    OpenMP threads:              1

  Minimum eigenvalue in the overlap matrix is 2.9557375721E-04.
  Using Symmetric Orthogonalization.

  SCF Guess: Superposition of Atomic Densities via on-the-fly atomic UHF.

  ==> Iterations <==

                        Total Energy        Delta E     RMS |[F,P]|

   @RHF iter SAD:  -577.56340625668770   -5.77563e+02   0.00000e+00
   @RHF iter   1:  -578.22967532128041   -6.66269e-01   2.23354e-03 DIIS
   @RHF iter   2:  -578.50695970915854   -2.77284e-01   9.14628e-04 DIIS
   @RHF iter   3:  -578.54827254010979   -4.13128e-02   2.09007e-04 DIIS
   @RHF iter   4:  -578.55180168578283   -3.52915e-03   4.61835e-05 DIIS
   @RHF iter   5:  -578.55192649211119   -1.24806e-04   1.54530e-05 DIIS
   @RHF iter   6:  -578.55194009747481   -1.36054e-05   3.97334e-06 DIIS
   @RHF iter   7:  -578.55194126351853   -1.16604e-06   1.10892e-06 DIIS
   @RHF iter   8:  -578.55194138242609   -1.18908e-07   3.51984e-07 DIIS
   @RHF iter   9:  -578.55194140562116   -2.31951e-08   1.61656e-07 DIIS
   @RHF iter  10:  -578.55194141176003   -6.13886e-09   8.14375e-08 DIIS
   @RHF iter  11:  -578.55194141373511   -1.97508e-09   3.14956e-08 DIIS
   @RHF iter  12:  -578.55194141396896   -2.33854e-10   1.21885e-08 DIIS
   @RHF iter  13:  -578.55194141399056   -2.16005e-11   4.06265e-09 DIIS
   @RHF iter  14:  -578.55194141399465   -4.09273e-12   1.36754e-09 DIIS
   @RHF iter  15:  -578.55194141398817    6.48015e-12   4.26574e-10 DIIS
   @RHF iter  16:  -578.55194141399659   -8.41283e-12   1.59684e-10 DIIS
   @RHF iter  17:  -578.55194141399807   -1.47793e-12   8.17912e-11 DIIS
  Energy and wave function converged.

  ==> Post-Iterations <==

    Orbital Energies [Eh]
    ---------------------

    Doubly Occupied:

       1A    -11.236256     2A    -11.236133     3A    -11.234008
       4A    -11.232866     5A    -11.231794     6A    -11.230127
       7A    -11.229335     8A    -11.228646     9A    -11.228563
      10A    -11.228374    11A    -11.227643    12A    -11.226557
      13A    -11.226482    14A    -11.226213    15A    -11.223638
      16A     -1.156297    17A     -1.153656    18A     -1.066225
      19A     -1.045252    20A     -1.012479    21A     -1.011494
      22A     -0.982587    23A     -0.929397    24A     -0.863542
      25A     -0.826386    26A     -0.823532    27A     -0.794193
      28A     -0.785956    29A     -0.692794    30A     -0.689677
      31A     -0.643274    32A     -0.633975    33A     -0.631071
      34A     -0.627416    35A     -0.597521    36A     -0.588284
      37A     -0.582469    38A     -0.578396    39A     -0.576834
      40A     -0.560367    41A     -0.539311    42A     -0.532409
      43A     -0.518343    44A     -0.501185    45A     -0.486835
      46A     -0.486126    47A     -0.482644    48A     -0.479655
      49A     -0.471754    50A     -0.467776    51A     -0.333476
      52A     -0.330616    53A     -0.322920    54A     -0.318436

    Virtual:

      55A      0.132781    56A      0.137731    57A      0.141893
      58A      0.146481    59A      0.178765    60A      0.189991
      61A      0.201303    62A      0.207722    63A      0.211170
      64A      0.223974    65A      0.233259    66A      0.244300
      67A      0.250113    68A      0.254503    69A      0.262109
      70A      0.263252    71A      0.278240    72A      0.288529
      73A      0.289846    74A      0.304823    75A      0.312125
      76A      0.332891    77A      0.355871    78A      0.370724
      79A      0.380553    80A      0.394681    81A      0.414724
      82A      0.452617    83A      0.459018    84A      0.467153
      85A      0.470630    86A      0.482346    87A      0.491581
      88A      0.496119    89A      0.511029    90A      0.562775
      91A      0.572601    92A      0.592172    93A      0.604236
      94A      0.619624    95A      0.637812    96A      0.640741
      97A      0.674522    98A      0.681295    99A      0.684411
     100A      0.688384   101A      0.701929   102A      0.705941
     103A      0.718087   104A      0.727162   105A      0.733333
     106A      0.735920   107A      0.739726   108A      0.742543
     109A      0.745614   110A      0.748235   111A      0.752313
     112A      0.758931   113A      0.760544   114A      0.768444
     115A      0.775351   116A      0.781784   117A      0.785978
     118A      0.808154   119A      0.829175   120A      0.835693
     121A      0.851245   122A      0.864161   123A      0.868191
     124A      0.870598   125A      0.875693   126A      0.878773
     127A      0.885705   128A      0.893053   129A      0.895916
     130A      0.900713   131A      0.906337   132A      0.915074
     133A      0.917729   134A      0.922733   135A      0.933739
     136A      0.936958   137A      0.937368   138A      0.949297
     139A      0.960026   140A      0.973745   141A      0.983125
     142A      0.986452   143A      1.003206   144A      1.008714
     145A      1.049661   146A      1.052477   147A      1.062644
     148A      1.111699   149A      1.124086   150A      1.132151
     151A      1.135649   152A      1.145762   153A      1.153185
     154A      1.158746   155A      1.161086   156A      1.191445
     157A      1.199534   158A      1.205748   159A      1.216208
     160A      1.241150   161A      1.245705   162A      1.250288
     163A      1.255926   164A      1.258972   165A      1.263998
     166A      1.282395   167A      1.303698   168A      1.305328
     169A      1.308843   170A      1.312316   171A      1.316383
     172A      1.323183   173A      1.333241   174A      1.352233
     175A      1.407470   176A      1.418731   177A      1.429951
     178A      1.458157   179A      1.512165   180A      1.519184
     181A      1.522395   182A      1.545581   183A      1.566723
     184A      1.603587   185A      1.613932   186A      1.621715
     187A      1.667138   188A      1.677890   189A      1.700341
     190A      1.705279   191A      1.725609   192A      1.734406
     193A      1.751371   194A      1.756203   195A      1.758922
     196A      1.767532   197A      1.775615   198A      1.792719
     199A      1.814485   200A      1.837334   201A      1.848324
     202A      1.863679   203A      1.869550   204A      1.875867
     205A      1.883312   206A      1.890120   207A      1.900307
     208A      1.905084   209A      1.908305   210A      1.913585
     211A      1.924538   212A      1.928769   213A      1.930137
     214A      1.944445   215A      1.946809   216A      1.953431
     217A      1.961957   218A      1.968463   219A      1.971157
     220A      1.977358   221A      1.980764   222A      1.993674
     223A      2.010433   224A      2.013147   225A      2.018616
     226A      2.022480   227A      2.043823   228A      2.047768
     229A      2.065546   230A      2.072897   231A      2.079748
     232A      2.082375   233A      2.095299   234A      2.113388
     235A      2.116800   236A      2.153006   237A      2.159366
     238A      2.164607   239A      2.170268   240A      2.174291
     241A      2.183140   242A      2.185876   243A      2.190932
     244A      2.205837   245A      2.217867   246A      2.247800
     247A      2.252350   248A      2.270752   249A      2.278620
     250A      2.288578   251A      2.295097   252A      2.307661
     253A      2.313422   254A      2.320488   255A      2.325709
     256A      2.347956   257A      2.363255   258A      2.393355
     259A      2.449645   260A      2.477737   261A      2.482165
     262A      2.484867   263A      2.487569   264A      2.505496
     265A      2.525160   266A      2.549823   267A      2.560058
     268A      2.599826   269A      2.632885   270A      2.667673
     271A      2.743929   272A      2.752335   273A      2.771211
     274A      2.772815   275A      2.776791   276A      2.779798
     277A      2.793166   278A      2.798832   279A      2.808874
     280A      2.830078   281A      2.848762   282A      2.852337
     283A      2.856646   284A      2.883478   285A      2.901059
     286A      2.971167   287A      2.995705   288A      3.003724
     289A      3.024566   290A      3.027983   291A      3.042956
     292A      3.072151   293A      3.165503   294A      3.194356
     295A      3.215470   296A      3.220088   297A      3.316627
     298A      3.322589   299A      3.987980   300A      3.997159

    Final Occupation by Irrep:
              A
    DOCC [    54 ]

  @RHF Final Energy:  -578.55194141399807

   => Energetics <=

    Nuclear Repulsion Energy =            865.9039882300269255
    One-Electron Energy =               -2499.7694661256632571
    Two-Electron Energy =                1055.3135364816382662
    Total Energy =                       -578.5519414139980654

Computation Completed

Properties will be evaluated at   0.000000,   0.000000,   0.000000 [a0]

Properties computed using the SCF density matrix

  Nuclear Dipole Moment: [e a0]
     X:     1.2343      Y:     2.6872      Z:     7.1293

  Electronic Dipole Moment: [e a0]
     X:    -1.2334      Y:    -2.6908      Z:    -6.9918

  Dipole Moment: [e a0]
     X:     0.0010      Y:    -0.0035      Z:     0.1375     Total:     0.1375

  Dipole Moment: [D]
     X:     0.0025      Y:    -0.0089      Z:     0.3494     Total:     0.3495

*** tstop() called on ds3 at Mon Apr 27 05:36:47 2020
Module time:
	user time   =     411.01 seconds =       6.85 minutes
	system time =     166.46 seconds =       2.77 minutes
	total time  =       1507 seconds =      25.12 minutes
Total time:
	user time   =     411.01 seconds =       6.85 minutes
	system time =     166.46 seconds =       2.77 minutes
	total time  =       1507 seconds =      25.12 minutes
                                     G D M A

                                 by Anthony Stone

                           version 2.2.06, 22 June 2011

               Distributed Multipoles from Gaussian wavefunctions

Starting at 5:36:47 on 27 Apr 2020

Using SCF density matrix from file ./SSI/SSI-056PHE-062PHE-1-dimer.test.26025.fchk

                         Distributed Multipole Analysis

Standard DMA

Positions and radii in angstrom
Multipole moments in atomic units, ea_0^k for rank k

C          x =  0.642828  y =  2.529884  z =  0.562354 angstrom
           Maximum rank =  0   Radius =  0.650 angstrom
                   Q00  =  -0.058000

C          x =  1.581828  y =  3.602884  z =  1.116354 angstrom
           Maximum rank =  0   Radius =  0.650 angstrom
                   Q00  =  -0.198063

C          x =  1.026828  y =  2.068884  z = -0.815646 angstrom
           Maximum rank =  0   Radius =  0.650 angstrom
                   Q00  =  -0.096330

C          x =  0.922828  y =  2.947884  z = -1.891646 angstrom
           Maximum rank =  0   Radius =  0.650 angstrom
                   Q00  =  -0.069510

C          x =  1.545828  y =  0.798884  z = -1.024646 angstrom
           Maximum rank =  0   Radius =  0.650 angstrom
                   Q00  =  -0.041648

C          x =  1.308828  y =  2.546884  z = -3.164646 angstrom
           Maximum rank =  0   Radius =  0.650 angstrom
                   Q00  =  -0.065869

C          x =  1.925828  y =  0.393884  z = -2.302646 angstrom
           Maximum rank =  0   Radius =  0.650 angstrom
                   Q00  =  -0.068465

C          x =  1.813828  y =  1.273884  z = -3.365646 angstrom
           Maximum rank =  0   Radius =  0.650 angstrom
                   Q00  =  -0.058058

H          x =  0.652828  y =  1.700884  z =  1.261354 angstrom
           Maximum rank =  0   Radius =  0.325 angstrom
                   Q00  =   0.056258

H          x = -0.372172  y =  2.912884  z =  0.516354 angstrom
           Maximum rank =  0   Radius =  0.325 angstrom
                   Q00  =   0.071167

H          x =  1.743828  y =  4.318884  z =  0.312354 angstrom
           Maximum rank =  0   Radius =  0.325 angstrom
                   Q00  =   0.079507

H          x =  0.530828  y =  3.944884  z = -1.741646 angstrom
           Maximum rank =  0   Radius =  0.325 angstrom
                   Q00  =   0.056285

H          x =  1.641828  y =  0.110884  z = -0.196646 angstrom
           Maximum rank =  0   Radius =  0.325 angstrom
                   Q00  =   0.062389

H          x =  1.217828  y =  3.229884  z = -3.999646 angstrom
           Maximum rank =  0   Radius =  0.325 angstrom
                   Q00  =   0.063213

H          x =  2.300828  y = -0.605116  z = -2.462646 angstrom
           Maximum rank =  0   Radius =  0.325 angstrom
                   Q00  =   0.066008

H          x =  2.100828  y =  0.962884  z = -4.356646 angstrom
           Maximum rank =  0   Radius =  0.325 angstrom
                   Q00  =   0.058930

H          x =  2.548823  y =  3.174854  z =  1.419194 angstrom
           Maximum rank =  0   Radius =  0.325 angstrom
                   Q00  =   0.076219

H          x =  1.073460  y =  4.182944  z =  1.900634 angstrom
           Maximum rank =  0   Radius =  0.325 angstrom
                   Q00  =   0.070206

C          x = -1.407172  y = -3.750116  z =  3.489354 angstrom
           Maximum rank =  0   Radius =  0.650 angstrom
                   Q00  =  -0.193213

C          x = -1.094172  y = -0.811116  z =  1.152354 angstrom
           Maximum rank =  0   Radius =  0.650 angstrom
                   Q00  =  -0.028856

C          x = -1.672172  y = -1.310116  z = -0.006646 angstrom
           Maximum rank =  0   Radius =  0.650 angstrom
                   Q00  =  -0.080348

C          x = -1.011172  y = -1.601116  z =  2.284354 angstrom
           Maximum rank =  0   Radius =  0.650 angstrom
                   Q00  =  -0.019730

C          x = -1.487172  y = -2.907116  z =  2.263354 angstrom
           Maximum rank =  0   Radius =  0.650 angstrom
                   Q00  =  -0.098868

C          x = -2.150172  y = -2.612116  z = -0.034646 angstrom
           Maximum rank =  0   Radius =  0.650 angstrom
                   Q00  =  -0.086748

C          x = -2.057172  y = -3.412116  z =  1.099354 angstrom
           Maximum rank =  0   Radius =  0.650 angstrom
                   Q00  =  -0.082003

H          x = -0.736172  y =  0.197884  z =  1.178354 angstrom
           Maximum rank =  0   Radius =  0.325 angstrom
                   Q00  =   0.055394

H          x = -1.736172  y = -0.690116  z = -0.891646 angstrom
           Maximum rank =  0   Radius =  0.325 angstrom
                   Q00  =   0.065176

H          x = -0.568172  y = -1.198116  z =  3.182354 angstrom
           Maximum rank =  0   Radius =  0.325 angstrom
                   Q00  =   0.049761

H          x = -2.552172  y = -3.021116  z = -0.947646 angstrom
           Maximum rank =  0   Radius =  0.325 angstrom
                   Q00  =   0.063909

H          x = -0.479172  y = -3.533116  z =  4.021354 angstrom
           Maximum rank =  0   Radius =  0.325 angstrom
                   Q00  =   0.096087

H          x = -1.362172  y = -4.794116  z =  3.176354 angstrom
           Maximum rank =  0   Radius =  0.325 angstrom
                   Q00  =   0.094528

H          x = -2.424172  y = -4.428116  z =  1.070354 angstrom
           Maximum rank =  0   Radius =  0.325 angstrom
                   Q00  =   0.056313

H          x = -2.264041  y = -3.600566  z =  4.162714 angstrom
           Maximum rank =  0   Radius =  0.325 angstrom
                   Q00  =   0.104356

Total multipoles referred to origin at
           x =   0.000000,  y =    0.000000,  z =    0.000000 angstrom
                   Q00  =  -0.000000

Finished at 5:36:47 on 27 Apr 2020

  DMA results are available in the Python driver through the
	  variable('DMA DISTRIBUTED MULTIPOLES')
  and
	  variable('DMA TOTAL MULTIPOLES')
  commands.

    Psi4 stopped on: Monday, 27 April 2020 05:36AM
    Psi4 wall time for execution: 0:25:06.69

*** Psi4 exiting successfully. Buy a developer a beer!
