                               Psi4 1.3.2 release

  ==> Input File <==

--------------------------------------------------------------------------
import numpy as np
set {scf_type pk
basis cc-pvdz
d_convergence 10
gdma_switch   0
gdma_limit    0
gdma_origin   [ 0.0,  0.0,  0.0 ]
}
molecule test {
    units Angstrom
    -1 1
    --
    -1 1
    C               -0.214646560866161     2.254614873352324     0.173902903532590
    C                0.777353439133839     1.181614873352324    -0.157097096467410
    O                0.807353439133839     0.761614873352324    -1.338097096467410
    O                1.392353439133839     0.684614873352324     0.791902903532590
    H               -1.035646560866161     1.815614873352324     0.748902903532590
    H               -0.658646560866161     2.591614873352325    -0.764097096467410
    H                0.195853439133839     3.091408873352324     0.758082903532590
    C               -1.082646560866161    -1.930385126647676     0.813902903532590
    C               -1.610646560866161    -2.856385126647676    -0.297097096467410
    H               -1.220646560866161    -0.887385126647676     0.530902903532590
    H               -1.590646560866161    -2.121385126647676     1.755902903532590
    H               -0.023646560866161    -2.105385126647676     0.994902903532590
    H               -1.543646560866161    -3.887385126647676     0.020902903532590
    H               -1.006286560866161    -2.760318126647676    -1.211167096467410
    H               -2.659106560866161    -2.608841126647676    -0.519457096467410

}
e, wfn = energy('scf', return_wfn=True)
gdma(wfn)
dmavals = variable('DMA DISTRIBUTED MULTIPOLES')
charges = np.array(dmavals)
print(charges)
np.save('SSI-014GLU-069ILE-1-dimer.npy', np.array(charges))--------------------------------------------------------------------------

*** tstart() called on ds3
*** at Tue Apr 28 13:44:15 2020

   => Loading Basis Set <=

    Name: CC-PVDZ
    Role: ORBITAL
    Keyword: BASIS
    atoms 1-2, 8-9   entry C          line   138 file /theoryfs2/ds/metcalf/miniconda2/envs/tf2gpu/share/psi4/basis/cc-pvdz.gbs
    atoms 3-4        entry O          line   198 file /theoryfs2/ds/metcalf/miniconda2/envs/tf2gpu/share/psi4/basis/cc-pvdz.gbs
    atoms 5-7, 10-15 entry H          line    22 file /theoryfs2/ds/metcalf/miniconda2/envs/tf2gpu/share/psi4/basis/cc-pvdz.gbs

         ---------------------------------------------------------
                                   SCF
               by Justin Turney, Rob Parrish, Andy Simmonett
                          and Daniel G. A. Smith
                              RHF Reference
                        1 Threads,    500 MiB Core
         ---------------------------------------------------------

  ==> Geometry <==

    Molecular point group: c1
    Full point group: C1

    Geometry (in Angstrom), charge = -1, multiplicity = 1:

       Center              X                  Y                   Z               Mass
    ------------   -----------------  -----------------  -----------------  -----------------
         C           -0.214646560866     2.254614873352     0.173902903533    12.000000000000
         C            0.777353439134     1.181614873352    -0.157097096467    12.000000000000
         O            0.807353439134     0.761614873352    -1.338097096467    15.994914619570
         O            1.392353439134     0.684614873352     0.791902903533    15.994914619570
         H           -1.035646560866     1.815614873352     0.748902903533     1.007825032230
         H           -0.658646560866     2.591614873352    -0.764097096467     1.007825032230
         H            0.195853439134     3.091408873352     0.758082903533     1.007825032230
         C           -1.082646560866    -1.930385126648     0.813902903533    12.000000000000
         C           -1.610646560866    -2.856385126648    -0.297097096467    12.000000000000
         H           -1.220646560866    -0.887385126648     0.530902903533     1.007825032230
         H           -1.590646560866    -2.121385126648     1.755902903533     1.007825032230
         H           -0.023646560866    -2.105385126648     0.994902903533     1.007825032230
         H           -1.543646560866    -3.887385126648     0.020902903533     1.007825032230
         H           -1.006286560866    -2.760318126648    -1.211167096467     1.007825032230
         H           -2.659106560866    -2.608841126648    -0.519457096467     1.007825032230

  Running in c1 symmetry.

  Rotational constants: A =      0.16726  B =      0.04134  C =      0.04034 [cm^-1]
  Rotational constants: A =   5014.38839  B =   1239.22773  C =   1209.39060 [MHz]
  Nuclear repulsion =  223.963000193802031

  Charge       = -1
  Multiplicity = 1
  Electrons    = 50
  Nalpha       = 25
  Nbeta        = 25

  ==> Algorithm <==

  SCF Algorithm Type is PK.
  DIIS enabled.
  MOM disabled.
  Fractional occupation disabled.
  Guess Type is SAD.
  Energy threshold   = 1.00e-06
  Density threshold  = 1.00e-10
  Integral threshold = 0.00e+00

  ==> Primary Basis <==

  Basis Set: CC-PVDZ
    Blend: CC-PVDZ
    Number of shells: 63
    Number of basis function: 129
    Number of Cartesian functions: 135
    Spherical Harmonics?: true
    Max angular momentum: 2

  ==> Pre-Iterations <==

   -------------------------------------------------------
    Irrep   Nso     Nmo     Nalpha   Nbeta   Ndocc  Nsocc
   -------------------------------------------------------
     A        129     129       0       0       0       0
   -------------------------------------------------------
    Total     129     129      25      25      25       0
   -------------------------------------------------------

  ==> Integral Setup <==

  Using integral reordering PK algorithm.
  Sizing the integral batches needed.
  Building batch lookup table.
   Calculation information:
      Number of atoms:                  15
      Number of AO shells:              63
      Number of primitives:            177
      Number of atomic orbitals:       135
      Number of basis functions:       129

      Integral cutoff                 1.00e-12
      Number of threads:                 1

	Batch   1 pq = [       0,    8385] index = [             0,35158305] size =     35158305
  Task number: 4
  Buffer size: 11059200
  Buffer per thread: 2
  We computed 1705614 shell quartets total.
  Whereas there are 2033136 unique shell quartets.

  ==> DiskJK: Disk-Based J/K Matrices <==

    J tasked:                  Yes
    K tasked:                  Yes
    wK tasked:                  No
    Memory [MiB]:              375
    Schwarz Cutoff:          1E-12

    OpenMP threads:              1

  Minimum eigenvalue in the overlap matrix is 4.8826651587E-03.
  Using Symmetric Orthogonalization.

  SCF Guess: Superposition of Atomic Densities via on-the-fly atomic UHF.

  ==> Iterations <==

                        Total Energy        Delta E     RMS |[F,P]|

   @RHF iter SAD:  -304.89829273373863   -3.04898e+02   0.00000e+00
   @RHF iter   1:  -306.21049107222086   -1.31220e+00   5.62807e-03 DIIS
   @RHF iter   2:  -306.41212760033602   -2.01637e-01   3.10383e-03 DIIS
   @RHF iter   3:  -306.47101845434509   -5.88909e-02   4.63637e-04 DIIS
   @RHF iter   4:  -306.47350586061566   -2.48741e-03   1.76847e-04 DIIS
   @RHF iter   5:  -306.47387436190934   -3.68501e-04   2.60261e-05 DIIS
   @RHF iter   6:  -306.47388454054681   -1.01786e-05   8.04218e-06 DIIS
   @RHF iter   7:  -306.47388518610296   -6.45556e-07   3.12359e-06 DIIS
   @RHF iter   8:  -306.47388527412011   -8.80171e-08   6.99640e-07 DIIS
   @RHF iter   9:  -306.47388528106273   -6.94263e-09   2.22005e-07 DIIS
   @RHF iter  10:  -306.47388528194608   -8.83347e-10   5.91774e-08 DIIS
   @RHF iter  11:  -306.47388528205107   -1.04990e-10   1.73488e-08 DIIS
   @RHF iter  12:  -306.47388528205897   -7.90124e-12   5.69101e-09 DIIS
   @RHF iter  13:  -306.47388528206181   -2.84217e-12   2.09245e-09 DIIS
   @RHF iter  14:  -306.47388528206210   -2.84217e-13   7.33798e-10 DIIS
   @RHF iter  15:  -306.47388528206250   -3.97904e-13   2.74166e-10 DIIS
   @RHF iter  16:  -306.47388528206181    6.82121e-13   7.76053e-11 DIIS
  Energy and wave function converged.

  ==> Post-Iterations <==

    Orbital Energies [Eh]
    ---------------------

    Doubly Occupied:

       1A    -20.251905     2A    -20.251792     3A    -11.106164
       4A    -11.103824     5A    -11.085027     6A    -11.041864
       7A     -1.146977     8A     -1.034871     9A     -0.891597
      10A     -0.792828    11A     -0.715951    12A     -0.496416
      13A     -0.475707    14A     -0.469533    15A     -0.409553
      16A     -0.404620    17A     -0.397016    18A     -0.377066
      19A     -0.362714    20A     -0.359826    21A     -0.336906
      22A     -0.297233    23A     -0.175687    24A     -0.167786
      25A     -0.156343

    Virtual:

      26A      0.302047    27A      0.342711    28A      0.359822
      29A      0.371184    30A      0.383640    31A      0.398685
      32A      0.416739    33A      0.423063    34A      0.450526
      35A      0.515633    36A      0.525519    37A      0.588211
      38A      0.675440    39A      0.703308    40A      0.719793
      41A      0.736112    42A      0.757675    43A      0.804611
      44A      0.824504    45A      0.835346    46A      0.878830
      47A      0.961268    48A      0.982032    49A      1.001197
      50A      1.006934    51A      1.010512    52A      1.028517
      53A      1.032754    54A      1.037794    55A      1.041221
      56A      1.059001    57A      1.076866    58A      1.093605
      59A      1.150923    60A      1.160238    61A      1.230409
      62A      1.245615    63A      1.281942    64A      1.328515
      65A      1.362410    66A      1.376479    67A      1.394494
      68A      1.530756    69A      1.568970    70A      1.583249
      71A      1.593797    72A      1.598890    73A      1.624800
      74A      1.656782    75A      1.696978    76A      1.711598
      77A      1.751298    78A      1.799862    79A      1.833085
      80A      1.848062    81A      1.872325    82A      1.992231
      83A      2.002776    84A      2.022225    85A      2.058282
      86A      2.059646    87A      2.070712    88A      2.074997
      89A      2.084000    90A      2.088217    91A      2.103306
      92A      2.127306    93A      2.135988    94A      2.206183
      95A      2.223293    96A      2.238350    97A      2.314342
      98A      2.385463    99A      2.422878   100A      2.438898
     101A      2.456258   102A      2.473451   103A      2.574948
     104A      2.582758   105A      2.631526   106A      2.658549
     107A      2.688952   108A      2.700547   109A      2.740596
     110A      2.773334   111A      2.880005   112A      2.927231
     113A      2.929106   114A      2.962689   115A      2.977043
     116A      3.000776   117A      3.010072   118A      3.085805
     119A      3.102902   120A      3.247140   121A      3.277369
     122A      3.310487   123A      3.372146   124A      3.638073
     125A      3.806126   126A      3.883199   127A      4.070707
     128A      4.107883   129A      4.206805

    Final Occupation by Irrep:
              A
    DOCC [    25 ]

  @RHF Final Energy:  -306.47388528206181

   => Energetics <=

    Nuclear Repulsion Energy =            223.9630001938020314
    One-Electron Energy =                -872.2553567273865838
    Two-Electron Energy =                 341.8184712515227375
    Total Energy =                       -306.4738852820618149

Computation Completed

Properties will be evaluated at   0.000000,   0.000000,   0.000000 [a0]

Properties computed using the SCF density matrix

  Nuclear Dipole Moment: [e a0]
     X:    -8.9352      Y:    -6.4354      Z:     2.1675

  Electronic Dipole Moment: [e a0]
     X:     7.0174      Y:     5.4859      Z:    -1.6166

  Dipole Moment: [e a0]
     X:    -1.9177      Y:    -0.9495      Z:     0.5509     Total:     2.2097

  Dipole Moment: [D]
     X:    -4.8744      Y:    -2.4135      Z:     1.4002     Total:     5.6165

*** tstop() called on ds3 at Tue Apr 28 13:44:33 2020
Module time:
	user time   =      12.18 seconds =       0.20 minutes
	system time =       5.83 seconds =       0.10 minutes
	total time  =         18 seconds =       0.30 minutes
Total time:
	user time   =      12.18 seconds =       0.20 minutes
	system time =       5.83 seconds =       0.10 minutes
	total time  =         18 seconds =       0.30 minutes
                                     G D M A

                                 by Anthony Stone

                           version 2.2.06, 22 June 2011

               Distributed Multipoles from Gaussian wavefunctions

Starting at 13:44:33 on 28 Apr 2020

Using SCF density matrix from file ./SSI/SSI-014GLU-069ILE-1-dimer.test.26924.fchk

                         Distributed Multipole Analysis

Standard DMA

Positions and radii in angstrom
Multipole moments in atomic units, ea_0^k for rank k

C          x = -0.214647  y =  2.254615  z =  0.173903 angstrom
           Maximum rank =  0   Radius =  0.650 angstrom
                   Q00  =  -0.274698

C          x =  0.777353  y =  1.181615  z = -0.157097 angstrom
           Maximum rank =  0   Radius =  0.650 angstrom
                   Q00  =   0.996641

O          x =  0.807353  y =  0.761615  z = -1.338097 angstrom
           Maximum rank =  0   Radius =  0.650 angstrom
                   Q00  =  -0.951762

O          x =  1.392353  y =  0.684615  z =  0.791903 angstrom
           Maximum rank =  0   Radius =  0.650 angstrom
                   Q00  =  -0.928494

H          x = -1.035647  y =  1.815615  z =  0.748903 angstrom
           Maximum rank =  0   Radius =  0.325 angstrom
                   Q00  =   0.064640

H          x = -0.658647  y =  2.591615  z = -0.764097 angstrom
           Maximum rank =  0   Radius =  0.325 angstrom
                   Q00  =   0.041921

H          x =  0.195853  y =  3.091409  z =  0.758083 angstrom
           Maximum rank =  0   Radius =  0.325 angstrom
                   Q00  =   0.056934

C          x = -1.082647  y = -1.930385  z =  0.813903 angstrom
           Maximum rank =  0   Radius =  0.650 angstrom
                   Q00  =  -0.196750

C          x = -1.610647  y = -2.856385  z = -0.297097 angstrom
           Maximum rank =  0   Radius =  0.650 angstrom
                   Q00  =  -0.251026

H          x = -1.220647  y = -0.887385  z =  0.530903 angstrom
           Maximum rank =  0   Radius =  0.325 angstrom
                   Q00  =   0.109962

H          x = -1.590647  y = -2.121385  z =  1.755903 angstrom
           Maximum rank =  0   Radius =  0.325 angstrom
                   Q00  =   0.033831

H          x = -0.023647  y = -2.105385  z =  0.994903 angstrom
           Maximum rank =  0   Radius =  0.325 angstrom
                   Q00  =   0.099882

H          x = -1.543647  y = -3.887385  z =  0.020903 angstrom
           Maximum rank =  0   Radius =  0.325 angstrom
                   Q00  =   0.048881

H          x = -1.006287  y = -2.760318  z = -1.211167 angstrom
           Maximum rank =  0   Radius =  0.325 angstrom
                   Q00  =   0.094476

H          x = -2.659107  y = -2.608841  z = -0.519457 angstrom
           Maximum rank =  0   Radius =  0.325 angstrom
                   Q00  =   0.055563

Total multipoles referred to origin at
           x =   0.000000,  y =    0.000000,  z =    0.000000 angstrom
                   Q00  =  -1.000000

Finished at 13:44:33 on 28 Apr 2020

  DMA results are available in the Python driver through the
	  variable('DMA DISTRIBUTED MULTIPOLES')
  and
	  variable('DMA TOTAL MULTIPOLES')
  commands.

    Psi4 stopped on: Tuesday, 28 April 2020 01:44PM
    Psi4 wall time for execution: 0:00:17.79

*** Psi4 exiting successfully. Buy a developer a beer!
