                               Psi4 1.3.2 release

  ==> Input File <==

--------------------------------------------------------------------------
import numpy as np
set {scf_type pk
basis cc-pvdz
d_convergence 10
gdma_switch   0
gdma_limit    0
gdma_origin   [ 0.0,  0.0,  0.0 ]
}
molecule test {
    units Angstrom
    0 1
    --
    0 1
    C                1.277421635623120     1.040384784347049    -0.049178282152971
    C                1.739421635623120     2.260384784347049     0.764821717847029
    H                0.361421635623120     1.288384784347049    -0.590178282152971
    H                2.051421635623120     0.758384784347049    -0.764178282152971
    H                1.083421635623120     0.200384784347049     0.617821717847029
    H                2.656421635623120     2.009384784347049     1.301821717847029
    H                0.957324635623120     2.534544784347049     1.488121717847029
    H                1.910396635623120     3.079384784347049     0.050661717847029
    C               -1.111578364376880    -1.833615215652951    -0.996178282152971
    C               -1.903578364376880    -1.467615215652951     0.282821717847029
    H               -1.451578364376880    -2.798615215652951    -1.377178282152971
    H               -1.266578364376880    -1.071615215652951    -1.759178282152970
    H               -0.046578364376880    -1.891615215652951    -0.773178282152971
    H               -1.556578364376880    -0.503615215652951     0.659821717847029
    H               -1.743421364376880    -2.227115215652951     1.062251717847029
    H               -2.975754364376880    -1.372405215652951     0.056161717847029

}
e, wfn = energy('scf', return_wfn=True)
gdma(wfn)
dmavals = variable('DMA DISTRIBUTED MULTIPOLES')
charges = np.array(dmavals)
print(charges)
np.save('SSI-033LEU-059ILE-1-dimer.npy', np.array(charges))--------------------------------------------------------------------------

*** tstart() called on ds3
*** at Tue Apr 28 03:35:05 2020

   => Loading Basis Set <=

    Name: CC-PVDZ
    Role: ORBITAL
    Keyword: BASIS
    atoms 1-2, 9-10  entry C          line   138 file /theoryfs2/ds/metcalf/miniconda2/envs/tf2gpu/share/psi4/basis/cc-pvdz.gbs
    atoms 3-8, 11-16 entry H          line    22 file /theoryfs2/ds/metcalf/miniconda2/envs/tf2gpu/share/psi4/basis/cc-pvdz.gbs

         ---------------------------------------------------------
                                   SCF
               by Justin Turney, Rob Parrish, Andy Simmonett
                          and Daniel G. A. Smith
                              RHF Reference
                        1 Threads,    500 MiB Core
         ---------------------------------------------------------

  ==> Geometry <==

    Molecular point group: c1
    Full point group: C1

    Geometry (in Angstrom), charge = 0, multiplicity = 1:

       Center              X                  Y                   Z               Mass
    ------------   -----------------  -----------------  -----------------  -----------------
         C            1.277421635623     1.040384784347    -0.049178282153    12.000000000000
         C            1.739421635623     2.260384784347     0.764821717847    12.000000000000
         H            0.361421635623     1.288384784347    -0.590178282153     1.007825032230
         H            2.051421635623     0.758384784347    -0.764178282153     1.007825032230
         H            1.083421635623     0.200384784347     0.617821717847     1.007825032230
         H            2.656421635623     2.009384784347     1.301821717847     1.007825032230
         H            0.957324635623     2.534544784347     1.488121717847     1.007825032230
         H            1.910396635623     3.079384784347     0.050661717847     1.007825032230
         C           -1.111578364377    -1.833615215653    -0.996178282153    12.000000000000
         C           -1.903578364377    -1.467615215653     0.282821717847    12.000000000000
         H           -1.451578364377    -2.798615215653    -1.377178282153     1.007825032230
         H           -1.266578364377    -1.071615215653    -1.759178282153     1.007825032230
         H           -0.046578364377    -1.891615215653    -0.773178282153     1.007825032230
         H           -1.556578364377    -0.503615215653     0.659821717847     1.007825032230
         H           -1.743421364377    -2.227115215653     1.062251717847     1.007825032230
         H           -2.975754364377    -1.372405215653     0.056161717847     1.007825032230

  Running in c1 symmetry.

  Rotational constants: A =      0.46006  B =      0.05038  C =      0.04706 [cm^-1]
  Rotational constants: A =  13792.21613  B =   1510.47989  C =   1410.72122 [MHz]
  Nuclear repulsion =  122.125789124817913

  Charge       = 0
  Multiplicity = 1
  Electrons    = 36
  Nalpha       = 18
  Nbeta        = 18

  ==> Algorithm <==

  SCF Algorithm Type is PK.
  DIIS enabled.
  MOM disabled.
  Fractional occupation disabled.
  Guess Type is SAD.
  Energy threshold   = 1.00e-06
  Density threshold  = 1.00e-10
  Integral threshold = 0.00e+00

  ==> Primary Basis <==

  Basis Set: CC-PVDZ
    Blend: CC-PVDZ
    Number of shells: 60
    Number of basis function: 116
    Number of Cartesian functions: 120
    Spherical Harmonics?: true
    Max angular momentum: 2

  ==> Pre-Iterations <==

   -------------------------------------------------------
    Irrep   Nso     Nmo     Nalpha   Nbeta   Ndocc  Nsocc
   -------------------------------------------------------
     A        116     116       0       0       0       0
   -------------------------------------------------------
    Total     116     116      18      18      18       0
   -------------------------------------------------------

  ==> Integral Setup <==

  Using integral reordering PK algorithm.
  Sizing the integral batches needed.
  Building batch lookup table.
   Calculation information:
      Number of atoms:                  16
      Number of AO shells:              60
      Number of primitives:            148
      Number of atomic orbitals:       120
      Number of basis functions:       116

      Integral cutoff                 1.00e-12
      Number of threads:                 1

	Batch   1 pq = [       0,    6786] index = [             0,23028291] size =     23028291
  Task number: 3
  Buffer size: 11059200
  Buffer per thread: 2
  We computed 1440343 shell quartets total.
  Whereas there are 1675365 unique shell quartets.

  ==> DiskJK: Disk-Based J/K Matrices <==

    J tasked:                  Yes
    K tasked:                  Yes
    wK tasked:                  No
    Memory [MiB]:              375
    Schwarz Cutoff:          1E-12

    OpenMP threads:              1

  Minimum eigenvalue in the overlap matrix is 7.2390238707E-03.
  Using Symmetric Orthogonalization.

  SCF Guess: Superposition of Atomic Densities via on-the-fly atomic UHF.

  ==> Iterations <==

                        Total Energy        Delta E     RMS |[F,P]|

   @RHF iter SAD:  -157.29380888806040   -1.57294e+02   0.00000e+00
   @RHF iter   1:  -158.31084737337528   -1.01704e+00   4.16674e-03 DIIS
   @RHF iter   2:  -158.44228654099538   -1.31439e-01   1.76542e-03 DIIS
   @RHF iter   3:  -158.46498775345657   -2.27012e-02   3.46730e-04 DIIS
   @RHF iter   4:  -158.46679128141795   -1.80353e-03   3.82611e-05 DIIS
   @RHF iter   5:  -158.46681437117391   -2.30898e-05   6.28668e-06 DIIS
   @RHF iter   6:  -158.46681497479850   -6.03625e-07   8.47774e-07 DIIS
   @RHF iter   7:  -158.46681498281515   -8.01666e-09   2.71390e-07 DIIS
   @RHF iter   8:  -158.46681498341806   -6.02910e-10   3.59451e-08 DIIS
   @RHF iter   9:  -158.46681498343588   -1.78204e-11   5.79283e-09 DIIS
   @RHF iter  10:  -158.46681498343662   -7.38964e-13   1.46136e-09 DIIS
   @RHF iter  11:  -158.46681498343648    1.42109e-13   4.17682e-10 DIIS
   @RHF iter  12:  -158.46681498343662   -1.42109e-13   1.19329e-10 DIIS
   @RHF iter  13:  -158.46681498343614    4.83169e-13   1.83917e-11 DIIS
  Energy and wave function converged.

  ==> Post-Iterations <==

    Orbital Energies [Eh]
    ---------------------

    Doubly Occupied:

       1A    -11.220759     2A    -11.220181     3A    -11.217841
       4A    -11.217732     5A     -1.017505     6A     -1.012035
       7A     -0.837688     8A     -0.835359     9A     -0.601720
      10A     -0.599836    11A     -0.594732    12A     -0.591564
      13A     -0.496540    14A     -0.493959    15A     -0.489907
      16A     -0.487978    17A     -0.485658    18A     -0.484494

    Virtual:

      19A      0.170010    20A      0.196624    21A      0.227075
      22A      0.232190    23A      0.244227    24A      0.257487
      25A      0.263297    26A      0.273825    27A      0.275997
      28A      0.290795    29A      0.316546    30A      0.328244
      31A      0.382287    32A      0.399003    33A      0.564161
      34A      0.600262    35A      0.601285    36A      0.603468
      37A      0.610937    38A      0.631664    39A      0.680110
      40A      0.687937    41A      0.707247    42A      0.753870
      43A      0.835671    44A      0.857815    45A      0.880134
      46A      0.887144    47A      0.892454    48A      0.894467
      49A      0.904648    50A      0.907124    51A      0.915075
      52A      0.922441    53A      0.939256    54A      0.954695
      55A      0.970502    56A      0.995825    57A      1.122112
      58A      1.125003    59A      1.125998    60A      1.142115
      61A      1.225861    62A      1.250853    63A      1.466711
      64A      1.468722    65A      1.481909    66A      1.488967
      67A      1.566167    68A      1.577017    69A      1.671546
      70A      1.685854    71A      1.690664    72A      1.694366
      73A      1.851686    74A      1.852799    75A      1.865935
      76A      1.875742    77A      1.885323    78A      1.909132
      79A      1.937048    80A      1.939258    81A      1.940446
      82A      1.946211    83A      1.947742    84A      1.953122
      85A      1.959337    86A      1.966589    87A      1.972489
      88A      2.035111    89A      2.103370    90A      2.109006
      91A      2.111944    92A      2.117967    93A      2.283026
      94A      2.295697    95A      2.311086    96A      2.314952
      97A      2.447175    98A      2.453371    99A      2.458296
     100A      2.463398   101A      2.560432   102A      2.561498
     103A      2.570090   104A      2.572711   105A      2.760142
     106A      2.763589   107A      2.788522   108A      2.794206
     109A      2.828239   110A      2.834793   111A      2.850491
     112A      2.853989   113A      2.937944   114A      2.947254
     115A      2.953861   116A      2.956549

    Final Occupation by Irrep:
              A
    DOCC [    18 ]

  @RHF Final Energy:  -158.46681498343614

   => Energetics <=

    Nuclear Repulsion Energy =            122.1257891248179135
    One-Electron Energy =                -453.3742318069804469
    Two-Electron Energy =                 172.7816276987263961
    Total Energy =                       -158.4668149834361373

Computation Completed

Properties will be evaluated at   0.000000,   0.000000,   0.000000 [a0]

Properties computed using the SCF density matrix

  Nuclear Dipole Moment: [e a0]
     X:    -0.0188      Y:     0.0051      Z:    -0.0255

  Electronic Dipole Moment: [e a0]
     X:     0.0355      Y:     0.0005      Z:     0.0183

  Dipole Moment: [e a0]
     X:     0.0167      Y:     0.0057      Z:    -0.0072     Total:     0.0190

  Dipole Moment: [D]
     X:     0.0423      Y:     0.0144      Z:    -0.0184     Total:     0.0483

*** tstop() called on ds3 at Tue Apr 28 03:35:16 2020
Module time:
	user time   =       7.69 seconds =       0.13 minutes
	system time =       3.25 seconds =       0.05 minutes
	total time  =         11 seconds =       0.18 minutes
Total time:
	user time   =       7.69 seconds =       0.13 minutes
	system time =       3.25 seconds =       0.05 minutes
	total time  =         11 seconds =       0.18 minutes
                                     G D M A

                                 by Anthony Stone

                           version 2.2.06, 22 June 2011

               Distributed Multipoles from Gaussian wavefunctions

Starting at 3:35:16 on 28 Apr 2020

Using SCF density matrix from file ./SSI/SSI-033LEU-059ILE-1-dimer.test.8550.fchk

                         Distributed Multipole Analysis

Standard DMA

Positions and radii in angstrom
Multipole moments in atomic units, ea_0^k for rank k

C          x =  1.277422  y =  1.040385  z = -0.049178 angstrom
           Maximum rank =  0   Radius =  0.650 angstrom
                   Q00  =  -0.246898

C          x =  1.739422  y =  2.260385  z =  0.764822 angstrom
           Maximum rank =  0   Radius =  0.650 angstrom
                   Q00  =  -0.230310

H          x =  0.361422  y =  1.288385  z = -0.590178 angstrom
           Maximum rank =  0   Radius =  0.325 angstrom
                   Q00  =   0.078947

H          x =  2.051422  y =  0.758385  z = -0.764178 angstrom
           Maximum rank =  0   Radius =  0.325 angstrom
                   Q00  =   0.079693

H          x =  1.083422  y =  0.200385  z =  0.617822 angstrom
           Maximum rank =  0   Radius =  0.325 angstrom
                   Q00  =   0.078562

H          x =  2.656422  y =  2.009385  z =  1.301822 angstrom
           Maximum rank =  0   Radius =  0.325 angstrom
                   Q00  =   0.081488

H          x =  0.957325  y =  2.534545  z =  1.488122 angstrom
           Maximum rank =  0   Radius =  0.325 angstrom
                   Q00  =   0.079695

H          x =  1.910397  y =  3.079385  z =  0.050662 angstrom
           Maximum rank =  0   Radius =  0.325 angstrom
                   Q00  =   0.078399

C          x = -1.111578  y = -1.833615  z = -0.996178 angstrom
           Maximum rank =  0   Radius =  0.650 angstrom
                   Q00  =  -0.241545

C          x = -1.903578  y = -1.467615  z =  0.282822 angstrom
           Maximum rank =  0   Radius =  0.650 angstrom
                   Q00  =  -0.243547

H          x = -1.451578  y = -2.798615  z = -1.377178 angstrom
           Maximum rank =  0   Radius =  0.325 angstrom
                   Q00  =   0.079941

H          x = -1.266578  y = -1.071615  z = -1.759178 angstrom
           Maximum rank =  0   Radius =  0.325 angstrom
                   Q00  =   0.081251

H          x = -0.046578  y = -1.891615  z = -0.773178 angstrom
           Maximum rank =  0   Radius =  0.325 angstrom
                   Q00  =   0.082988

H          x = -1.556578  y = -0.503615  z =  0.659822 angstrom
           Maximum rank =  0   Radius =  0.325 angstrom
                   Q00  =   0.080674

H          x = -1.743421  y = -2.227115  z =  1.062252 angstrom
           Maximum rank =  0   Radius =  0.325 angstrom
                   Q00  =   0.080360

H          x = -2.975754  y = -1.372405  z =  0.056162 angstrom
           Maximum rank =  0   Radius =  0.325 angstrom
                   Q00  =   0.080303

Total multipoles referred to origin at
           x =   0.000000,  y =    0.000000,  z =    0.000000 angstrom
                   Q00  =  -0.000000

Finished at 3:35:16 on 28 Apr 2020

  DMA results are available in the Python driver through the
	  variable('DMA DISTRIBUTED MULTIPOLES')
  and
	  variable('DMA TOTAL MULTIPOLES')
  commands.

    Psi4 stopped on: Tuesday, 28 April 2020 03:35AM
    Psi4 wall time for execution: 0:00:10.84

*** Psi4 exiting successfully. Buy a developer a beer!
