                               Psi4 1.3.2 release

  ==> Input File <==

--------------------------------------------------------------------------
import numpy as np
set {scf_type pk
basis cc-pvdz
d_convergence 10
gdma_switch   0
gdma_limit    0
gdma_origin   [ 0.0,  0.0,  0.0 ]
}
molecule test {
    units Angstrom
    0 1
    --
    0 1
    C                3.040647006657945    -1.712125445128075    -0.290630717385072
    C               -0.365352993342055     0.006874554871925    -0.008630717385072
    C                0.656647006657945    -0.985125445128075    -0.066630717385072
    C               -0.035352993342055     1.367874554871925    -0.160630717385072
    C                1.986647006657945    -0.643125445128075    -0.269630717385072
    C                1.329647006657945     1.726874554871925    -0.359630717385072
    C                2.327647006657945     0.713874554871925    -0.397630717385072
    H               -1.386352993342055    -0.293125445128075     0.144369282614928
    H                0.386647006657945    -2.023125445128075     0.053369282614928
    H               -0.804352993342055     2.128874554871925    -0.126630717385072
    H                1.605647006657945     2.763874554871925    -0.489630717385072
    H                3.852647006657945    -1.402125445128075    -0.949630717385072
    H                2.602647006657945    -2.610125445128075    -0.722630717385072
    H                3.359647006657945     0.995874554871925    -0.544630717385072
    H                3.453186006657945    -1.961765445128075     0.698049282614928
    C               -4.002352993342055     0.267874554871925     0.015369282614928
    C               -4.014352993342055    -0.482125445128075     1.359369282614928
    H               -3.263352993342055     1.067874554871925     0.009369282614928
    H               -3.758352993342055    -0.427125445128075    -0.786630717385072
    H               -4.993352993342056     0.683874554871925    -0.165630717385072
    H               -3.060352993342055    -0.989125445128075     1.500369282614928
    H               -4.800352993342055    -1.233125445128075     1.298369282614928
    H               -4.193752993342055     0.193124554871925     2.208989282614927

}
e, wfn = energy('scf', return_wfn=True)
gdma(wfn)
dmavals = variable('DMA DISTRIBUTED MULTIPOLES')
charges = np.array(dmavals)
print(charges)
np.save('SSI-030PHE-044ILE-1-dimer.npy', np.array(charges))--------------------------------------------------------------------------

*** tstart() called on ds3
*** at Tue Apr 28 14:56:21 2020

   => Loading Basis Set <=

    Name: CC-PVDZ
    Role: ORBITAL
    Keyword: BASIS
    atoms 1-7, 16-17  entry C          line   138 file /theoryfs2/ds/metcalf/miniconda2/envs/tf2gpu/share/psi4/basis/cc-pvdz.gbs
    atoms 8-15, 18-23 entry H          line    22 file /theoryfs2/ds/metcalf/miniconda2/envs/tf2gpu/share/psi4/basis/cc-pvdz.gbs

         ---------------------------------------------------------
                                   SCF
               by Justin Turney, Rob Parrish, Andy Simmonett
                          and Daniel G. A. Smith
                              RHF Reference
                        1 Threads,    500 MiB Core
         ---------------------------------------------------------

  ==> Geometry <==

    Molecular point group: c1
    Full point group: C1

    Geometry (in Angstrom), charge = 0, multiplicity = 1:

       Center              X                  Y                   Z               Mass
    ------------   -----------------  -----------------  -----------------  -----------------
         C            3.040647006658    -1.712125445128    -0.290630717385    12.000000000000
         C           -0.365352993342     0.006874554872    -0.008630717385    12.000000000000
         C            0.656647006658    -0.985125445128    -0.066630717385    12.000000000000
         C           -0.035352993342     1.367874554872    -0.160630717385    12.000000000000
         C            1.986647006658    -0.643125445128    -0.269630717385    12.000000000000
         C            1.329647006658     1.726874554872    -0.359630717385    12.000000000000
         C            2.327647006658     0.713874554872    -0.397630717385    12.000000000000
         H           -1.386352993342    -0.293125445128     0.144369282615     1.007825032230
         H            0.386647006658    -2.023125445128     0.053369282615     1.007825032230
         H           -0.804352993342     2.128874554872    -0.126630717385     1.007825032230
         H            1.605647006658     2.763874554872    -0.489630717385     1.007825032230
         H            3.852647006658    -1.402125445128    -0.949630717385     1.007825032230
         H            2.602647006658    -2.610125445128    -0.722630717385     1.007825032230
         H            3.359647006658     0.995874554872    -0.544630717385     1.007825032230
         H            3.453186006658    -1.961765445128     0.698049282615     1.007825032230
         C           -4.002352993342     0.267874554872     0.015369282615    12.000000000000
         C           -4.014352993342    -0.482125445128     1.359369282615    12.000000000000
         H           -3.263352993342     1.067874554872     0.009369282615     1.007825032230
         H           -3.758352993342    -0.427125445128    -0.786630717385     1.007825032230
         H           -4.993352993342     0.683874554872    -0.165630717385     1.007825032230
         H           -3.060352993342    -0.989125445128     1.500369282615     1.007825032230
         H           -4.800352993342    -1.233125445128     1.298369282615     1.007825032230
         H           -4.193752993342     0.193124554872     2.208989282615     1.007825032230

  Running in c1 symmetry.

  Rotational constants: A =      0.09764  B =      0.02040  C =      0.01746 [cm^-1]
  Rotational constants: A =   2927.28177  B =    611.48457  C =    523.54508 [MHz]
  Nuclear repulsion =  399.212758786838037

  Charge       = 0
  Multiplicity = 1
  Electrons    = 68
  Nalpha       = 34
  Nbeta        = 34

  ==> Algorithm <==

  SCF Algorithm Type is PK.
  DIIS enabled.
  MOM disabled.
  Fractional occupation disabled.
  Guess Type is SAD.
  Energy threshold   = 1.00e-06
  Density threshold  = 1.00e-10
  Integral threshold = 0.00e+00

  ==> Primary Basis <==

  Basis Set: CC-PVDZ
    Blend: CC-PVDZ
    Number of shells: 96
    Number of basis function: 196
    Number of Cartesian functions: 205
    Spherical Harmonics?: true
    Max angular momentum: 2

  ==> Pre-Iterations <==

   -------------------------------------------------------
    Irrep   Nso     Nmo     Nalpha   Nbeta   Ndocc  Nsocc
   -------------------------------------------------------
     A        196     196       0       0       0       0
   -------------------------------------------------------
    Total     196     196      34      34      34       0
   -------------------------------------------------------

  ==> Integral Setup <==

  Using integral reordering PK algorithm.
  Sizing the integral batches needed.
  Building batch lookup table.
   Calculation information:
      Number of atoms:                  23
      Number of AO shells:              96
      Number of primitives:            268
      Number of atomic orbitals:       205
      Number of basis functions:       196

      Integral cutoff                 1.00e-12
      Number of threads:                 1

	Batch   1 pq = [       0,    9405] index = [             0,44231715] size =     44231715
	Batch   2 pq = [    9405,   13301] index = [      44231715,88464951] size =     44233236
	Batch   3 pq = [   13301,   16290] index = [      88464951,132690195] size =     44225244
	Batch   4 pq = [   16290,   18810] index = [     132690195,176917455] size =     44227260
	Batch   5 pq = [   18810,   19306] index = [     176917455,186370471] size =      9453016
  Task number: 17
  Buffer size: 11059200
  Buffer per thread: 2
  We computed 8774432 shell quartets total.
  Whereas there are 10841496 unique shell quartets.

  ==> DiskJK: Disk-Based J/K Matrices <==

    J tasked:                  Yes
    K tasked:                  Yes
    wK tasked:                  No
    Memory [MiB]:              375
    Schwarz Cutoff:          1E-12

    OpenMP threads:              1

  Minimum eigenvalue in the overlap matrix is 3.3506089648E-04.
  Using Symmetric Orthogonalization.

  SCF Guess: Superposition of Atomic Densities via on-the-fly atomic UHF.

  ==> Iterations <==

                        Total Energy        Delta E     RMS |[F,P]|

   @RHF iter SAD:  -347.68881614832424   -3.47689e+02   0.00000e+00
   @RHF iter   1:  -348.77001083940445   -1.08119e+00   2.82322e-03 DIIS
   @RHF iter   2:  -348.95703958298435   -1.87029e-01   1.14587e-03 DIIS
   @RHF iter   3:  -348.98490574220705   -2.78662e-02   2.59979e-04 DIIS
   @RHF iter   4:  -348.98735302585823   -2.44728e-03   6.74459e-05 DIIS
   @RHF iter   5:  -348.98746156914387   -1.08543e-04   2.14703e-05 DIIS
   @RHF iter   6:  -348.98747325350143   -1.16844e-05   4.83109e-06 DIIS
   @RHF iter   7:  -348.98747398889361   -7.35392e-07   1.20474e-06 DIIS
   @RHF iter   8:  -348.98747406142098   -7.25274e-08   4.16106e-07 DIIS
   @RHF iter   9:  -348.98747407802352   -1.66025e-08   1.97845e-07 DIIS
   @RHF iter  10:  -348.98747408287079   -4.84727e-09   9.54733e-08 DIIS
   @RHF iter  11:  -348.98747408422355   -1.35276e-09   3.03262e-08 DIIS
   @RHF iter  12:  -348.98747408431632   -9.27685e-11   1.33951e-08 DIIS
   @RHF iter  13:  -348.98747408432627   -9.94760e-12   4.28107e-09 DIIS
   @RHF iter  14:  -348.98747408432860   -2.33058e-12   1.20987e-09 DIIS
   @RHF iter  15:  -348.98747408432962   -1.02318e-12   3.26535e-10 DIIS
   @RHF iter  16:  -348.98747408432752    2.10321e-12   7.92059e-11 DIIS
  Energy and wave function converged.

  ==> Post-Iterations <==

    Orbital Energies [Eh]
    ---------------------

    Doubly Occupied:

       1A    -11.243521     2A    -11.241427     3A    -11.239997
       4A    -11.238579     5A    -11.235635     6A    -11.232785
       7A    -11.229165     8A    -11.221548     9A    -11.220242
      10A     -1.141549    11A     -1.040915    12A     -1.020206
      13A     -1.001017    14A     -0.929247    15A     -0.841308
      16A     -0.823717    17A     -0.791683    18A     -0.686071
      19A     -0.637386    20A     -0.624160    21A     -0.602667
      22A     -0.600147    23A     -0.576900    24A     -0.574016
      25A     -0.563176    26A     -0.532960    27A     -0.500380
      28A     -0.491183    29A     -0.490220    30A     -0.484858
      31A     -0.481748    32A     -0.476993    33A     -0.324398
      34A     -0.321171

    Virtual:

      35A      0.129984    36A      0.138009    37A      0.173393
      38A      0.193456    39A      0.207044    40A      0.219629
      41A      0.228066    42A      0.241922    43A      0.252553
      44A      0.258428    45A      0.267643    46A      0.278318
      47A      0.281259    48A      0.296054    49A      0.334096
      50A      0.353239    51A      0.361828    52A      0.375387
      53A      0.390575    54A      0.454181    55A      0.460609
      56A      0.478263    57A      0.496818    58A      0.566755
      59A      0.591951    60A      0.596891    61A      0.606425
      62A      0.631346    63A      0.639241    64A      0.672744
      65A      0.678791    66A      0.683669    67A      0.702363
      68A      0.712611    69A      0.735587    70A      0.738689
      71A      0.743008    72A      0.748746    73A      0.755586
      74A      0.770762    75A      0.782631    76A      0.808895
      77A      0.833091    78A      0.846932    79A      0.851362
      80A      0.864180    81A      0.875493    82A      0.881798
      83A      0.889887    84A      0.893967    85A      0.895213
      86A      0.906013    87A      0.917498    88A      0.925485
      89A      0.937174    90A      0.939332    91A      0.955798
      92A      0.976171    93A      0.986655    94A      1.001898
      95A      1.048663    96A      1.079753    97A      1.106130
      98A      1.118947    99A      1.134278   100A      1.150424
     101A      1.152482   102A      1.182864   103A      1.201293
     104A      1.229707   105A      1.244090   106A      1.246025
     107A      1.270365   108A      1.290261   109A      1.292780
     110A      1.300098   111A      1.315186   112A      1.342859
     113A      1.416980   114A      1.468229   115A      1.485981
     116A      1.511181   117A      1.532131   118A      1.554152
     119A      1.589649   120A      1.605540   121A      1.679380
     122A      1.683211   123A      1.693950   124A      1.704220
     125A      1.727619   126A      1.739916   127A      1.747969
     128A      1.785869   129A      1.797944   130A      1.840816
     131A      1.854500   132A      1.868537   133A      1.869519
     134A      1.888811   135A      1.891300   136A      1.901675
     137A      1.906425   138A      1.922612   139A      1.935514
     140A      1.941286   141A      1.945117   142A      1.950866
     143A      1.960558   144A      1.961883   145A      1.968948
     146A      1.980547   147A      1.997772   148A      2.016957
     149A      2.034021   150A      2.051425   151A      2.053527
     152A      2.095979   153A      2.105377   154A      2.119435
     155A      2.138425   156A      2.145863   157A      2.155639
     158A      2.168472   159A      2.194267   160A      2.254453
     161A      2.270991   162A      2.288538   163A      2.294085
     164A      2.300631   165A      2.305976   166A      2.313851
     167A      2.345061   168A      2.454112   169A      2.460236
     170A      2.465608   171A      2.474220   172A      2.481766
     173A      2.530953   174A      2.567873   175A      2.582830
     176A      2.611762   177A      2.731774   178A      2.742086
     179A      2.765688   180A      2.772797   181A      2.773297
     182A      2.798330   183A      2.810326   184A      2.847225
     185A      2.850771   186A      2.859849   187A      2.888650
     188A      2.949874   189A      2.957749   190A      2.963853
     191A      2.997775   192A      3.010383   193A      3.130499
     194A      3.171881   195A      3.270169   196A      3.900117

    Final Occupation by Irrep:
              A
    DOCC [    34 ]

  @RHF Final Energy:  -348.98747408432752

   => Energetics <=

    Nuclear Repulsion Energy =            399.2127587868380374
    One-Electron Energy =               -1261.0785127418898810
    Two-Electron Energy =                 512.8782798707243273
    Total Energy =                       -348.9874740843274594

Computation Completed

Properties will be evaluated at   0.000000,   0.000000,   0.000000 [a0]

Properties computed using the SCF density matrix

  Nuclear Dipole Moment: [e a0]
     X:   -10.3120      Y:    -2.9119      Z:     1.9944

  Electronic Dipole Moment: [e a0]
     X:    10.3660      Y:     2.8158      Z:    -1.9948

  Dipole Moment: [e a0]
     X:     0.0540      Y:    -0.0961      Z:    -0.0003     Total:     0.1102

  Dipole Moment: [D]
     X:     0.1372      Y:    -0.2443      Z:    -0.0009     Total:     0.2802

*** tstop() called on ds3 at Tue Apr 28 14:59:03 2020
Module time:
	user time   =      60.08 seconds =       1.00 minutes
	system time =      23.67 seconds =       0.39 minutes
	total time  =        162 seconds =       2.70 minutes
Total time:
	user time   =      60.08 seconds =       1.00 minutes
	system time =      23.67 seconds =       0.39 minutes
	total time  =        162 seconds =       2.70 minutes
                                     G D M A

                                 by Anthony Stone

                           version 2.2.06, 22 June 2011

               Distributed Multipoles from Gaussian wavefunctions

Starting at 14:59:3 on 28 Apr 2020

Using SCF density matrix from file ./SSI/SSI-030PHE-044ILE-1-dimer.test.22688.fchk

                         Distributed Multipole Analysis

Standard DMA

Positions and radii in angstrom
Multipole moments in atomic units, ea_0^k for rank k

C          x =  3.040647  y = -1.712125  z = -0.290631 angstrom
           Maximum rank =  0   Radius =  0.650 angstrom
                   Q00  =  -0.204553

C          x = -0.365353  y =  0.006875  z = -0.008631 angstrom
           Maximum rank =  0   Radius =  0.650 angstrom
                   Q00  =  -0.062291

C          x =  0.656647  y = -0.985125  z = -0.066631 angstrom
           Maximum rank =  0   Radius =  0.650 angstrom
                   Q00  =  -0.019631

C          x = -0.035353  y =  1.367875  z = -0.160631 angstrom
           Maximum rank =  0   Radius =  0.650 angstrom
                   Q00  =  -0.098123

C          x =  1.986647  y = -0.643125  z = -0.269631 angstrom
           Maximum rank =  0   Radius =  0.650 angstrom
                   Q00  =  -0.091981

C          x =  1.329647  y =  1.726875  z = -0.359631 angstrom
           Maximum rank =  0   Radius =  0.650 angstrom
                   Q00  =  -0.084658

C          x =  2.327647  y =  0.713875  z = -0.397631 angstrom
           Maximum rank =  0   Radius =  0.650 angstrom
                   Q00  =  -0.065431

H          x = -1.386353  y = -0.293125  z =  0.144369 angstrom
           Maximum rank =  0   Radius =  0.325 angstrom
                   Q00  =   0.068653

H          x =  0.386647  y = -2.023125  z =  0.053369 angstrom
           Maximum rank =  0   Radius =  0.325 angstrom
                   Q00  =   0.055420

H          x = -0.804353  y =  2.128875  z = -0.126631 angstrom
           Maximum rank =  0   Radius =  0.325 angstrom
                   Q00  =   0.065881

H          x =  1.605647  y =  2.763875  z = -0.489631 angstrom
           Maximum rank =  0   Radius =  0.325 angstrom
                   Q00  =   0.072103

H          x =  3.852647  y = -1.402125  z = -0.949631 angstrom
           Maximum rank =  0   Radius =  0.325 angstrom
                   Q00  =   0.098219

H          x =  2.602647  y = -2.610125  z = -0.722631 angstrom
           Maximum rank =  0   Radius =  0.325 angstrom
                   Q00  =   0.097637

H          x =  3.359647  y =  0.995875  z = -0.544631 angstrom
           Maximum rank =  0   Radius =  0.325 angstrom
                   Q00  =   0.061331

H          x =  3.453186  y = -1.961765  z =  0.698049 angstrom
           Maximum rank =  0   Radius =  0.325 angstrom
                   Q00  =   0.106230

C          x = -4.002353  y =  0.267875  z =  0.015369 angstrom
           Maximum rank =  0   Radius =  0.650 angstrom
                   Q00  =  -0.235241

C          x = -4.014353  y = -0.482125  z =  1.359369 angstrom
           Maximum rank =  0   Radius =  0.650 angstrom
                   Q00  =  -0.247055

H          x = -3.263353  y =  1.067875  z =  0.009369 angstrom
           Maximum rank =  0   Radius =  0.325 angstrom
                   Q00  =   0.078540

H          x = -3.758353  y = -0.427125  z = -0.786631 angstrom
           Maximum rank =  0   Radius =  0.325 angstrom
                   Q00  =   0.079495

H          x = -4.993353  y =  0.683875  z = -0.165631 angstrom
           Maximum rank =  0   Radius =  0.325 angstrom
                   Q00  =   0.083672

H          x = -3.060353  y = -0.989125  z =  1.500369 angstrom
           Maximum rank =  0   Radius =  0.325 angstrom
                   Q00  =   0.076291

H          x = -4.800353  y = -1.233125  z =  1.298369 angstrom
           Maximum rank =  0   Radius =  0.325 angstrom
                   Q00  =   0.080777

H          x = -4.193753  y =  0.193125  z =  2.208989 angstrom
           Maximum rank =  0   Radius =  0.325 angstrom
                   Q00  =   0.084714

Total multipoles referred to origin at
           x =   0.000000,  y =    0.000000,  z =    0.000000 angstrom
                   Q00  =  -0.000000

Finished at 14:59:3 on 28 Apr 2020

  DMA results are available in the Python driver through the
	  variable('DMA DISTRIBUTED MULTIPOLES')
  and
	  variable('DMA TOTAL MULTIPOLES')
  commands.

    Psi4 stopped on: Tuesday, 28 April 2020 02:59PM
    Psi4 wall time for execution: 0:02:41.34

*** Psi4 exiting successfully. Buy a developer a beer!
