                               Psi4 1.3.2 release

  ==> Input File <==

--------------------------------------------------------------------------
import numpy as np
set {scf_type pk
basis cc-pvdz
d_convergence 10
gdma_switch   0
gdma_limit    0
gdma_origin   [ 0.0,  0.0,  0.0 ]
}
molecule test {
    units Angstrom
    0 1
    --
    0 1
    C               -0.184826114468066    -1.837355706731722    -1.268628406944815
    C                0.043173885531934    -3.229355706731722    -1.846628406944815
    C               -0.696826114468066    -0.829355706731722    -2.286628406944814
    H               -0.900826114468066    -1.901355706731722    -0.447628406944815
    H                0.759173885531934    -1.472355706731722    -0.865628406944815
    H                0.674173885531934    -3.132355706731722    -2.731628406944814
    H               -1.675826114468066    -1.153355706731722    -2.639628406944815
    H               -0.825826114468066     0.134644293268278    -1.792628406944815
    H               -0.911574114468066    -3.697275706731722    -2.128592406944815
    H                0.585501885531934    -3.837665706731722    -1.107815406944815
    H               -0.038863114468066    -0.696185706731722    -3.158034406944815
    C                1.262173885531934     2.191644293268278     0.694371593055185
    C                0.172173885531934     1.396644293268278     1.348371593055185
    O                0.009173885531934     0.216644293268278     1.066371593055185
    N               -0.567826114468066     2.026644293268278     2.241371593055186
    H                1.075173885531934     3.257644293268278     0.829371593055185
    H                1.225173885531935     1.990644293268278    -0.375628406944815
    H               -1.173826114468066     1.456644293268278     2.833371593055185
    H               -0.398826114468066     3.004644293268278     2.428371593055185
    H                2.255433885531934     1.927444293268278     1.086333593055185

}
e, wfn = energy('scf', return_wfn=True)
gdma(wfn)
dmavals = variable('DMA DISTRIBUTED MULTIPOLES')
charges = np.array(dmavals)
print(charges)
np.save('SSI-104MET-112ASN-1-dimer.npy', np.array(charges))--------------------------------------------------------------------------

*** tstart() called on ds3
*** at Mon Apr 27 18:30:54 2020

   => Loading Basis Set <=

    Name: CC-PVDZ
    Role: ORBITAL
    Keyword: BASIS
    atoms 1-3, 12-13  entry C          line   138 file /theoryfs2/ds/metcalf/miniconda2/envs/tf2gpu/share/psi4/basis/cc-pvdz.gbs
    atoms 4-11, 16-20 entry H          line    22 file /theoryfs2/ds/metcalf/miniconda2/envs/tf2gpu/share/psi4/basis/cc-pvdz.gbs
    atoms 14          entry O          line   198 file /theoryfs2/ds/metcalf/miniconda2/envs/tf2gpu/share/psi4/basis/cc-pvdz.gbs
    atoms 15          entry N          line   168 file /theoryfs2/ds/metcalf/miniconda2/envs/tf2gpu/share/psi4/basis/cc-pvdz.gbs

         ---------------------------------------------------------
                                   SCF
               by Justin Turney, Rob Parrish, Andy Simmonett
                          and Daniel G. A. Smith
                              RHF Reference
                        1 Threads,    500 MiB Core
         ---------------------------------------------------------

  ==> Geometry <==

    Molecular point group: c1
    Full point group: C1

    Geometry (in Angstrom), charge = 0, multiplicity = 1:

       Center              X                  Y                   Z               Mass
    ------------   -----------------  -----------------  -----------------  -----------------
         C           -0.184826114468    -1.837355706732    -1.268628406945    12.000000000000
         C            0.043173885532    -3.229355706732    -1.846628406945    12.000000000000
         C           -0.696826114468    -0.829355706732    -2.286628406945    12.000000000000
         H           -0.900826114468    -1.901355706732    -0.447628406945     1.007825032230
         H            0.759173885532    -1.472355706732    -0.865628406945     1.007825032230
         H            0.674173885532    -3.132355706732    -2.731628406945     1.007825032230
         H           -1.675826114468    -1.153355706732    -2.639628406945     1.007825032230
         H           -0.825826114468     0.134644293268    -1.792628406945     1.007825032230
         H           -0.911574114468    -3.697275706732    -2.128592406945     1.007825032230
         H            0.585501885532    -3.837665706732    -1.107815406945     1.007825032230
         H           -0.038863114468    -0.696185706732    -3.158034406945     1.007825032230
         C            1.262173885532     2.191644293268     0.694371593055    12.000000000000
         C            0.172173885532     1.396644293268     1.348371593055    12.000000000000
         O            0.009173885532     0.216644293268     1.066371593055    15.994914619570
         N           -0.567826114468     2.026644293268     2.241371593055    14.003074004430
         H            1.075173885532     3.257644293268     0.829371593055     1.007825032230
         H            1.225173885532     1.990644293268    -0.375628406945     1.007825032230
         H           -1.173826114468     1.456644293268     2.833371593055     1.007825032230
         H           -0.398826114468     3.004644293268     2.428371593055     1.007825032230
         H            2.255433885532     1.927444293268     1.086333593055     1.007825032230

  Running in c1 symmetry.

  Rotational constants: A =      0.16222  B =      0.02552  C =      0.02459 [cm^-1]
  Rotational constants: A =   4863.34945  B =    765.12749  C =    737.15841 [MHz]
  Nuclear repulsion =  298.752349617410971

  Charge       = 0
  Multiplicity = 1
  Electrons    = 58
  Nalpha       = 29
  Nbeta        = 29

  ==> Algorithm <==

  SCF Algorithm Type is PK.
  DIIS enabled.
  MOM disabled.
  Fractional occupation disabled.
  Guess Type is SAD.
  Energy threshold   = 1.00e-06
  Density threshold  = 1.00e-10
  Integral threshold = 0.00e+00

  ==> Primary Basis <==

  Basis Set: CC-PVDZ
    Blend: CC-PVDZ
    Number of shells: 81
    Number of basis function: 163
    Number of Cartesian functions: 170
    Spherical Harmonics?: true
    Max angular momentum: 2

  ==> Pre-Iterations <==

   -------------------------------------------------------
    Irrep   Nso     Nmo     Nalpha   Nbeta   Ndocc  Nsocc
   -------------------------------------------------------
     A        163     163       0       0       0       0
   -------------------------------------------------------
    Total     163     163      29      29      29       0
   -------------------------------------------------------

  ==> Integral Setup <==

  Using integral reordering PK algorithm.
  Sizing the integral batches needed.
  Building batch lookup table.
   Calculation information:
      Number of atoms:                  20
      Number of AO shells:              81
      Number of primitives:            219
      Number of atomic orbitals:       170
      Number of basis functions:       163

      Integral cutoff                 1.00e-12
      Number of threads:                 1

	Batch   1 pq = [       0,    9405] index = [             0,44231715] size =     44231715
	Batch   2 pq = [    9405,   13366] index = [      44231715,89331661] size =     45099946
  Task number: 9
  Buffer size: 11059200
  Buffer per thread: 2
  We computed 4413762 shell quartets total.
  Whereas there are 5516181 unique shell quartets.

  ==> DiskJK: Disk-Based J/K Matrices <==

    J tasked:                  Yes
    K tasked:                  Yes
    wK tasked:                  No
    Memory [MiB]:              375
    Schwarz Cutoff:          1E-12

    OpenMP threads:              1

  Minimum eigenvalue in the overlap matrix is 4.3641184570E-03.
  Using Symmetric Orthogonalization.

  SCF Guess: Superposition of Atomic Densities via on-the-fly atomic UHF.

  ==> Iterations <==

                        Total Energy        Delta E     RMS |[F,P]|

   @RHF iter SAD:  -325.00356658729100   -3.25004e+02   0.00000e+00
   @RHF iter   1:  -325.99811739165176   -9.94551e-01   4.16504e-03 DIIS
   @RHF iter   2:  -326.20247003936117   -2.04353e-01   2.28637e-03 DIIS
   @RHF iter   3:  -326.25764152498618   -5.51715e-02   4.89283e-04 DIIS
   @RHF iter   4:  -326.26141790984337   -3.77638e-03   2.02332e-04 DIIS
   @RHF iter   5:  -326.26208262985466   -6.64720e-04   3.08047e-05 DIIS
   @RHF iter   6:  -326.26211351074056   -3.08809e-05   1.34983e-05 DIIS
   @RHF iter   7:  -326.26211871939893   -5.20866e-06   5.21494e-06 DIIS
   @RHF iter   8:  -326.26211977233254   -1.05293e-06   1.84209e-06 DIIS
   @RHF iter   9:  -326.26211990888334   -1.36551e-07   4.81927e-07 DIIS
   @RHF iter  10:  -326.26211991545841   -6.57508e-09   1.56469e-07 DIIS
   @RHF iter  11:  -326.26211991623080   -7.72388e-10   3.88566e-08 DIIS
   @RHF iter  12:  -326.26211991628031   -4.95106e-11   9.69479e-09 DIIS
   @RHF iter  13:  -326.26211991628162   -1.30740e-12   2.59055e-09 DIIS
   @RHF iter  14:  -326.26211991628304   -1.42109e-12   1.12653e-09 DIIS
   @RHF iter  15:  -326.26211991628350   -4.54747e-13   4.89693e-10 DIIS
   @RHF iter  16:  -326.26211991628332    1.70530e-13   1.89351e-10 DIIS
   @RHF iter  17:  -326.26211991628480   -1.47793e-12   8.84177e-11 DIIS
  Energy and wave function converged.

  ==> Post-Iterations <==

    Orbital Energies [Eh]
    ---------------------

    Doubly Occupied:

       1A    -20.505366     2A    -15.593612     3A    -11.347554
       4A    -11.242886     5A    -11.196755     6A    -11.194787
       7A    -11.189602     8A     -1.374096     9A     -1.222584
      10A     -1.030711    11A     -1.004961    12A     -0.904528
      13A     -0.800304    14A     -0.769976    15A     -0.732637
      16A     -0.659551    17A     -0.617719    18A     -0.603017
      19A     -0.580122    20A     -0.567998    21A     -0.558608
      22A     -0.529694    23A     -0.523467    24A     -0.513217
      25A     -0.448836    26A     -0.444109    27A     -0.442007
      28A     -0.412192    29A     -0.407491

    Virtual:

      30A      0.159990    31A      0.191495    32A      0.198409
      33A      0.214101    34A      0.223281    35A      0.250137
      36A      0.254150    37A      0.264271    38A      0.276954
      39A      0.286858    40A      0.296657    41A      0.305436
      42A      0.318489    43A      0.335738    44A      0.389186
      45A      0.391013    46A      0.454562    47A      0.484999
      48A      0.564200    49A      0.598915    50A      0.625293
      51A      0.633170    52A      0.637759    53A      0.649019
      54A      0.661602    55A      0.669335    56A      0.702220
      57A      0.711186    58A      0.737256    59A      0.752807
      60A      0.801756    61A      0.829075    62A      0.837129
      63A      0.857185    64A      0.872366    65A      0.901367
      66A      0.903699    67A      0.910701    68A      0.912538
      69A      0.919612    70A      0.920029    71A      0.930718
      72A      0.941113    73A      0.942875    74A      0.960316
      75A      0.983237    76A      0.992140    77A      1.002468
      78A      1.027435    79A      1.059244    80A      1.127994
      81A      1.135124    82A      1.150603    83A      1.206680
      84A      1.226597    85A      1.308895    86A      1.382252
      87A      1.385392    88A      1.406232    89A      1.422944
      90A      1.439548    91A      1.473978    92A      1.490218
      93A      1.497111    94A      1.512631    95A      1.591495
      96A      1.634172    97A      1.651379    98A      1.663931
      99A      1.697247   100A      1.708475   101A      1.722661
     102A      1.756552   103A      1.807968   104A      1.849632
     105A      1.875374   106A      1.882985   107A      1.893689
     108A      1.904988   109A      1.907083   110A      1.912450
     111A      1.922534   112A      1.945066   113A      1.951497
     114A      1.973781   115A      1.984790   116A      1.992568
     117A      2.001138   118A      2.012111   119A      2.033243
     120A      2.044630   121A      2.061221   122A      2.068118
     123A      2.096404   124A      2.131702   125A      2.170279
     126A      2.188926   127A      2.230899   128A      2.294081
     129A      2.310837   130A      2.329687   131A      2.365873
     132A      2.386590   133A      2.403368   134A      2.441342
     135A      2.475103   136A      2.504872   137A      2.524933
     138A      2.554887   139A      2.577385   140A      2.601569
     141A      2.629774   142A      2.637908   143A      2.661825
     144A      2.747462   145A      2.774545   146A      2.775679
     147A      2.780263   148A      2.792985   149A      2.804289
     150A      2.848425   151A      2.852930   152A      2.938323
     153A      2.956773   154A      2.988680   155A      3.008406
     156A      3.072808   157A      3.087158   158A      3.138980
     159A      3.285410   160A      3.495774   161A      3.529230
     162A      3.884945   163A      3.938042

    Final Occupation by Irrep:
              A
    DOCC [    29 ]

  @RHF Final Energy:  -326.26211991628480

   => Energetics <=

    Nuclear Repulsion Energy =            298.7523496174109710
    One-Electron Energy =               -1035.1921653674021400
    Two-Electron Energy =                 410.1776958337063093
    Total Energy =                       -326.2621199162848029

Computation Completed

Properties will be evaluated at   0.000000,   0.000000,   0.000000 [a0]

Properties computed using the SCF density matrix

  Nuclear Dipole Moment: [e a0]
     X:     0.6102      Y:    -3.8662      Z:    -7.5665

  Electronic Dipole Moment: [e a0]
     X:    -0.5101      Y:     5.5625      Z:     8.4815

  Dipole Moment: [e a0]
     X:     0.1001      Y:     1.6963      Z:     0.9150     Total:     1.9300

  Dipole Moment: [D]
     X:     0.2543      Y:     4.3116      Z:     2.3257     Total:     4.9055

*** tstop() called on ds3 at Mon Apr 27 18:31:32 2020
Module time:
	user time   =      26.61 seconds =       0.44 minutes
	system time =      12.81 seconds =       0.21 minutes
	total time  =         38 seconds =       0.63 minutes
Total time:
	user time   =      26.61 seconds =       0.44 minutes
	system time =      12.81 seconds =       0.21 minutes
	total time  =         38 seconds =       0.63 minutes
                                     G D M A

                                 by Anthony Stone

                           version 2.2.06, 22 June 2011

               Distributed Multipoles from Gaussian wavefunctions

Starting at 18:31:33 on 27 Apr 2020

Using SCF density matrix from file ./SSI/SSI-104MET-112ASN-1-dimer.test.23654.fchk

                         Distributed Multipole Analysis

Standard DMA

Positions and radii in angstrom
Multipole moments in atomic units, ea_0^k for rank k

C          x = -0.184826  y = -1.837356  z = -1.268628 angstrom
           Maximum rank =  0   Radius =  0.650 angstrom
                   Q00  =  -0.051845

C          x =  0.043174  y = -3.229356  z = -1.846628 angstrom
           Maximum rank =  0   Radius =  0.650 angstrom
                   Q00  =  -0.247877

C          x = -0.696826  y = -0.829356  z = -2.286628 angstrom
           Maximum rank =  0   Radius =  0.650 angstrom
                   Q00  =  -0.242028

H          x = -0.900826  y = -1.901356  z = -0.447628 angstrom
           Maximum rank =  0   Radius =  0.325 angstrom
                   Q00  =   0.054772

H          x =  0.759174  y = -1.472356  z = -0.865628 angstrom
           Maximum rank =  0   Radius =  0.325 angstrom
                   Q00  =   0.050079

H          x =  0.674174  y = -3.132356  z = -2.731628 angstrom
           Maximum rank =  0   Radius =  0.325 angstrom
                   Q00  =   0.067209

H          x = -1.675826  y = -1.153356  z = -2.639628 angstrom
           Maximum rank =  0   Radius =  0.325 angstrom
                   Q00  =   0.064768

H          x = -0.825826  y =  0.134644  z = -1.792628 angstrom
           Maximum rank =  0   Radius =  0.325 angstrom
                   Q00  =   0.081767

H          x = -0.911574  y = -3.697276  z = -2.128592 angstrom
           Maximum rank =  0   Radius =  0.325 angstrom
                   Q00  =   0.070569

H          x =  0.585502  y = -3.837666  z = -1.107815 angstrom
           Maximum rank =  0   Radius =  0.325 angstrom
                   Q00  =   0.077936

H          x = -0.038863  y = -0.696186  z = -3.158034 angstrom
           Maximum rank =  0   Radius =  0.325 angstrom
                   Q00  =   0.065621

C          x =  1.262174  y =  2.191644  z =  0.694372 angstrom
           Maximum rank =  0   Radius =  0.650 angstrom
                   Q00  =  -0.266690

C          x =  0.172174  y =  1.396644  z =  1.348372 angstrom
           Maximum rank =  0   Radius =  0.650 angstrom
                   Q00  =   0.825040

O          x =  0.009174  y =  0.216644  z =  1.066372 angstrom
           Maximum rank =  0   Radius =  0.650 angstrom
                   Q00  =  -0.789937

N          x = -0.567826  y =  2.026644  z =  2.241372 angstrom
           Maximum rank =  0   Radius =  0.650 angstrom
                   Q00  =  -0.533931

H          x =  1.075174  y =  3.257644  z =  0.829372 angstrom
           Maximum rank =  0   Radius =  0.325 angstrom
                   Q00  =   0.071383

H          x =  1.225174  y =  1.990644  z = -0.375628 angstrom
           Maximum rank =  0   Radius =  0.325 angstrom
                   Q00  =   0.132169

H          x = -1.173826  y =  1.456644  z =  2.833372 angstrom
           Maximum rank =  0   Radius =  0.325 angstrom
                   Q00  =   0.226854

H          x = -0.398826  y =  3.004644  z =  2.428372 angstrom
           Maximum rank =  0   Radius =  0.325 angstrom
                   Q00  =   0.208223

H          x =  2.255434  y =  1.927444  z =  1.086334 angstrom
           Maximum rank =  0   Radius =  0.325 angstrom
                   Q00  =   0.135919

Total multipoles referred to origin at
           x =   0.000000,  y =    0.000000,  z =    0.000000 angstrom
                   Q00  =  -0.000000

Finished at 18:31:33 on 27 Apr 2020

  DMA results are available in the Python driver through the
	  variable('DMA DISTRIBUTED MULTIPOLES')
  and
	  variable('DMA TOTAL MULTIPOLES')
  commands.

    Psi4 stopped on: Monday, 27 April 2020 06:31PM
    Psi4 wall time for execution: 0:00:39.05

*** Psi4 exiting successfully. Buy a developer a beer!
