                               Psi4 1.3.2 release

  ==> Input File <==

--------------------------------------------------------------------------
import numpy as np
set {scf_type pk
basis cc-pvdz
d_convergence 10
gdma_switch   0
gdma_limit    0
gdma_origin   [ 0.0,  0.0,  0.0 ]
}
molecule test {
    units Angstrom
    -1 1
    --
    -1 1
    C                3.223871769674159     1.408506659514998    -2.199578081011370
    C                1.714871769674159     0.326506659514998     0.925421918988630
    C                0.983871769674159     0.655506659514998    -1.119578081011370
    C                2.309871769674160     0.947506659514998    -1.100578081011370
    N                0.635871769674159     0.271506659514998     0.154421918988630
    N                2.746871769674160     0.734506659514998     0.193421918988630
    H               -0.276128230325841    -0.063493340485002     0.474421918988630
    H                1.745871769674159     0.063506659514998     1.978421918988630
    H                0.342871769674159     0.667506659514998    -1.971578081011370
    H                4.209871769674160     0.987506659514998    -2.012578081011370
    H                3.284871769674159     2.493506659514999    -2.144578081011370
    H                2.897088769674159     1.119956659514998    -3.209508081011370
    C               -2.726128230325840    -1.692493340485002    -0.518578081011370
    C               -2.684128230325840    -0.974493340485002     0.819421918988630
    O               -1.588128230325841    -0.871493340485002     1.413421918988630
    O               -3.746128230325841    -0.493493340485002     1.272421918988630
    H               -2.464128230325840    -2.742493340485002    -0.397578081011370
    H               -1.974128230325841    -1.224493340485002    -1.154578081011370
    H               -3.712510230325840    -1.606033340485002    -0.997718081011370

}
e, wfn = energy('scf', return_wfn=True)
gdma(wfn)
dmavals = variable('DMA DISTRIBUTED MULTIPOLES')
charges = np.array(dmavals)
print(charges)
np.save('SSI-045HIE-051GLU-1-dimer.npy', np.array(charges))--------------------------------------------------------------------------

*** tstart() called on ds3
*** at Mon Apr 27 06:53:08 2020

   => Loading Basis Set <=

    Name: CC-PVDZ
    Role: ORBITAL
    Keyword: BASIS
    atoms 1-4, 13-14  entry C          line   138 file /theoryfs2/ds/metcalf/miniconda2/envs/tf2gpu/share/psi4/basis/cc-pvdz.gbs
    atoms 5-6         entry N          line   168 file /theoryfs2/ds/metcalf/miniconda2/envs/tf2gpu/share/psi4/basis/cc-pvdz.gbs
    atoms 7-12, 17-19 entry H          line    22 file /theoryfs2/ds/metcalf/miniconda2/envs/tf2gpu/share/psi4/basis/cc-pvdz.gbs
    atoms 15-16       entry O          line   198 file /theoryfs2/ds/metcalf/miniconda2/envs/tf2gpu/share/psi4/basis/cc-pvdz.gbs

         ---------------------------------------------------------
                                   SCF
               by Justin Turney, Rob Parrish, Andy Simmonett
                          and Daniel G. A. Smith
                              RHF Reference
                        1 Threads,    500 MiB Core
         ---------------------------------------------------------

  ==> Geometry <==

    Molecular point group: c1
    Full point group: C1

    Geometry (in Angstrom), charge = -1, multiplicity = 1:

       Center              X                  Y                   Z               Mass
    ------------   -----------------  -----------------  -----------------  -----------------
         C            3.223871769674     1.408506659515    -2.199578081011    12.000000000000
         C            1.714871769674     0.326506659515     0.925421918989    12.000000000000
         C            0.983871769674     0.655506659515    -1.119578081011    12.000000000000
         C            2.309871769674     0.947506659515    -1.100578081011    12.000000000000
         N            0.635871769674     0.271506659515     0.154421918989    14.003074004430
         N            2.746871769674     0.734506659515     0.193421918989    14.003074004430
         H           -0.276128230326    -0.063493340485     0.474421918989     1.007825032230
         H            1.745871769674     0.063506659515     1.978421918989     1.007825032230
         H            0.342871769674     0.667506659515    -1.971578081011     1.007825032230
         H            4.209871769674     0.987506659515    -2.012578081011     1.007825032230
         H            3.284871769674     2.493506659515    -2.144578081011     1.007825032230
         H            2.897088769674     1.119956659515    -3.209508081011     1.007825032230
         C           -2.726128230326    -1.692493340485    -0.518578081011    12.000000000000
         C           -2.684128230326    -0.974493340485     0.819421918989    12.000000000000
         O           -1.588128230326    -0.871493340485     1.413421918989    15.994914619570
         O           -3.746128230326    -0.493493340485     1.272421918989    15.994914619570
         H           -2.464128230326    -2.742493340485    -0.397578081011     1.007825032230
         H           -1.974128230326    -1.224493340485    -1.154578081011     1.007825032230
         H           -3.712510230326    -1.606033340485    -0.997718081011     1.007825032230

  Running in c1 symmetry.

  Rotational constants: A =      0.11490  B =      0.01589  C =      0.01459 [cm^-1]
  Rotational constants: A =   3444.55567  B =    476.40441  C =    437.39116 [MHz]
  Nuclear repulsion =  483.621572999492230

  Charge       = -1
  Multiplicity = 1
  Electrons    = 76
  Nalpha       = 38
  Nbeta        = 38

  ==> Algorithm <==

  SCF Algorithm Type is PK.
  DIIS enabled.
  MOM disabled.
  Fractional occupation disabled.
  Guess Type is SAD.
  Energy threshold   = 1.00e-06
  Density threshold  = 1.00e-10
  Integral threshold = 0.00e+00

  ==> Primary Basis <==

  Basis Set: CC-PVDZ
    Blend: CC-PVDZ
    Number of shells: 87
    Number of basis function: 185
    Number of Cartesian functions: 195
    Spherical Harmonics?: true
    Max angular momentum: 2

  ==> Pre-Iterations <==

   -------------------------------------------------------
    Irrep   Nso     Nmo     Nalpha   Nbeta   Ndocc  Nsocc
   -------------------------------------------------------
     A        185     185       0       0       0       0
   -------------------------------------------------------
    Total     185     185      38      38      38       0
   -------------------------------------------------------

  ==> Integral Setup <==

  Using integral reordering PK algorithm.
  Sizing the integral batches needed.
  Building batch lookup table.
   Calculation information:
      Number of atoms:                  19
      Number of AO shells:              87
      Number of primitives:            265
      Number of atomic orbitals:       195
      Number of basis functions:       185

      Integral cutoff                 1.00e-12
      Number of threads:                 1

	Batch   1 pq = [       0,    9405] index = [             0,44231715] size =     44231715
	Batch   2 pq = [    9405,   13301] index = [      44231715,88464951] size =     44233236
	Batch   3 pq = [   13301,   16290] index = [      88464951,132690195] size =     44225244
	Batch   4 pq = [   16290,   17205] index = [     132690195,148014615] size =     15324420
  Task number: 14
  Buffer size: 11059200
  Buffer per thread: 2
  We computed 5430550 shell quartets total.
  Whereas there are 7328706 unique shell quartets.

  ==> DiskJK: Disk-Based J/K Matrices <==

    J tasked:                  Yes
    K tasked:                  Yes
    wK tasked:                  No
    Memory [MiB]:              375
    Schwarz Cutoff:          1E-12

    OpenMP threads:              1

  Minimum eigenvalue in the overlap matrix is 1.1857938003E-03.
  Using Symmetric Orthogonalization.

  SCF Guess: Superposition of Atomic Densities via on-the-fly atomic UHF.

  ==> Iterations <==

                        Total Energy        Delta E     RMS |[F,P]|

   @RHF iter SAD:  -489.78519517740784   -4.89785e+02   0.00000e+00
   @RHF iter   1:  -490.85017288189391   -1.06498e+00   4.12938e-03 DIIS
   @RHF iter   2:  -491.07383841722094   -2.23666e-01   2.33850e-03 DIIS
   @RHF iter   3:  -491.14367483399548   -6.98364e-02   4.01255e-04 DIIS
   @RHF iter   4:  -491.14707849499911   -3.40366e-03   1.59748e-04 DIIS
   @RHF iter   5:  -491.14761633842204   -5.37843e-04   3.47025e-05 DIIS
   @RHF iter   6:  -491.14764449404129   -2.81556e-05   1.44897e-05 DIIS
   @RHF iter   7:  -491.14764998701060   -5.49297e-06   3.79988e-06 DIIS
   @RHF iter   8:  -491.14765085632513   -8.69315e-07   1.96410e-06 DIIS
   @RHF iter   9:  -491.14765107172730   -2.15402e-07   7.67879e-07 DIIS
   @RHF iter  10:  -491.14765111307190   -4.13446e-08   2.00631e-07 DIIS
   @RHF iter  11:  -491.14765111549366   -2.42176e-09   5.22780e-08 DIIS
   @RHF iter  12:  -491.14765111562451   -1.30854e-10   2.84728e-08 DIIS
   @RHF iter  13:  -491.14765111565805   -3.35376e-11   1.01736e-08 DIIS
   @RHF iter  14:  -491.14765111566322   -5.17275e-12   4.04053e-09 DIIS
   @RHF iter  15:  -491.14765111566197    1.25056e-12   1.27137e-09 DIIS
   @RHF iter  16:  -491.14765111566572   -3.75167e-12   5.55770e-10 DIIS
   @RHF iter  17:  -491.14765111566243    3.29692e-12   1.84674e-10 DIIS
   @RHF iter  18:  -491.14765111566180    6.25278e-13   6.58844e-11 DIIS
  Energy and wave function converged.

  ==> Post-Iterations <==

    Orbital Energies [Eh]
    ---------------------

    Doubly Occupied:

       1A    -20.297609     2A    -20.287190     3A    -15.469272
       4A    -15.406366     5A    -11.163443     6A    -11.147041
       7A    -11.130776     8A    -11.125799     9A    -11.123823
      10A    -11.073216    11A     -1.207607    12A     -1.183816
      13A     -1.070036    14A     -1.021283    15A     -0.916663
      16A     -0.830342    17A     -0.822085    18A     -0.681917
      19A     -0.638128    20A     -0.614312    21A     -0.530423
      22A     -0.491953    23A     -0.487735    24A     -0.472805
      25A     -0.442905    26A     -0.441820    27A     -0.437021
      28A     -0.432339    29A     -0.426616    30A     -0.416815
      31A     -0.370801    32A     -0.334288    33A     -0.292229
      34A     -0.250195    35A     -0.217879    36A     -0.202368
      37A     -0.195527    38A     -0.188701

    Virtual:

      39A      0.288318    40A      0.309790    41A      0.317208
      42A      0.334063    43A      0.340974    44A      0.349555
      45A      0.360855    46A      0.384567    47A      0.394254
      48A      0.413181    49A      0.449106    50A      0.474983
      51A      0.501252    52A      0.519563    53A      0.544632
      54A      0.568462    55A      0.597037    56A      0.625301
      57A      0.679019    58A      0.724936    59A      0.730485
      60A      0.745690    61A      0.749432    62A      0.783667
      63A      0.798288    64A      0.816225    65A      0.828554
      66A      0.843960    67A      0.864474    68A      0.882557
      69A      0.901339    70A      0.915536    71A      0.947112
      72A      0.950788    73A      0.953596    74A      0.974037
      75A      0.986544    76A      1.001160    77A      1.010043
      78A      1.014011    79A      1.021906    80A      1.034142
      81A      1.059840    82A      1.075819    83A      1.084319
      84A      1.096386    85A      1.118648    86A      1.162193
      87A      1.197909    88A      1.202949    89A      1.214357
      90A      1.249894    91A      1.261960    92A      1.278466
      93A      1.286533    94A      1.316657    95A      1.328329
      96A      1.379792    97A      1.392274    98A      1.409473
      99A      1.422060   100A      1.455488   101A      1.476810
     102A      1.530854   103A      1.544137   104A      1.550197
     105A      1.559117   106A      1.578594   107A      1.588360
     108A      1.615256   109A      1.627959   110A      1.668874
     111A      1.695325   112A      1.709158   113A      1.740740
     114A      1.752360   115A      1.782964   116A      1.812017
     117A      1.831049   118A      1.834044   119A      1.875159
     120A      1.918373   121A      1.933710   122A      1.959009
     123A      1.967260   124A      2.007717   125A      2.017124
     126A      2.030697   127A      2.054923   128A      2.064575
     129A      2.073477   130A      2.079451   131A      2.106426
     132A      2.109908   133A      2.128014   134A      2.157349
     135A      2.170556   136A      2.186738   137A      2.234161
     138A      2.242728   139A      2.283691   140A      2.311274
     141A      2.330459   142A      2.351641   143A      2.359792
     144A      2.379354   145A      2.401119   146A      2.452157
     147A      2.466031   148A      2.497740   149A      2.542230
     150A      2.560095   151A      2.594012   152A      2.620003
     153A      2.669319   154A      2.672238   155A      2.716110
     156A      2.740032   157A      2.775364   158A      2.811145
     159A      2.831255   160A      2.866654   161A      2.901029
     162A      2.903695   163A      2.932147   164A      2.940493
     165A      2.955780   166A      2.963843   167A      2.980489
     168A      3.033693   169A      3.046572   170A      3.089525
     171A      3.199166   172A      3.236571   173A      3.250634
     174A      3.298000   175A      3.319369   176A      3.355965
     177A      3.372927   178A      3.591744   179A      3.623199
     180A      3.755961   181A      3.797355   182A      3.965597
     183A      4.032840   184A      4.073558   185A      4.164048

    Final Occupation by Irrep:
              A
    DOCC [    38 ]

  @RHF Final Energy:  -491.14765111566180

   => Energetics <=

    Nuclear Repulsion Energy =            483.6215729994922299
    One-Electron Energy =               -1641.8521542251485243
    Two-Electron Energy =                 667.0829301099945496
    Total Energy =                       -491.1476511156618017

Computation Completed

Properties will be evaluated at   0.000000,   0.000000,   0.000000 [a0]

Properties computed using the SCF density matrix

  Nuclear Dipole Moment: [e a0]
     X:     3.7647      Y:    -0.2950      Z:    -8.8334

  Electronic Dipole Moment: [e a0]
     X:    -1.1697      Y:     0.6896      Z:     6.5379

  Dipole Moment: [e a0]
     X:     2.5951      Y:     0.3947      Z:    -2.2955     Total:     3.4870

  Dipole Moment: [D]
     X:     6.5960      Y:     1.0032      Z:    -5.8345     Total:     8.8632

*** tstop() called on ds3 at Mon Apr 27 06:55:02 2020
Module time:
	user time   =      46.84 seconds =       0.78 minutes
	system time =      23.37 seconds =       0.39 minutes
	total time  =        114 seconds =       1.90 minutes
Total time:
	user time   =      46.84 seconds =       0.78 minutes
	system time =      23.37 seconds =       0.39 minutes
	total time  =        114 seconds =       1.90 minutes
                                     G D M A

                                 by Anthony Stone

                           version 2.2.06, 22 June 2011

               Distributed Multipoles from Gaussian wavefunctions

Starting at 6:55:3 on 27 Apr 2020

Using SCF density matrix from file ./SSI/SSI-045HIE-051GLU-1-dimer.test.7653.fchk

                         Distributed Multipole Analysis

Standard DMA

Positions and radii in angstrom
Multipole moments in atomic units, ea_0^k for rank k

C          x =  3.223872  y =  1.408507  z = -2.199578 angstrom
           Maximum rank =  0   Radius =  0.650 angstrom
                   Q00  =  -0.194013

C          x =  1.714872  y =  0.326507  z =  0.925422 angstrom
           Maximum rank =  0   Radius =  0.650 angstrom
                   Q00  =   0.484660

C          x =  0.983872  y =  0.655507  z = -1.119578 angstrom
           Maximum rank =  0   Radius =  0.650 angstrom
                   Q00  =   0.045084

C          x =  2.309872  y =  0.947507  z = -1.100578 angstrom
           Maximum rank =  0   Radius =  0.650 angstrom
                   Q00  =   0.189571

N          x =  0.635872  y =  0.271507  z =  0.154422 angstrom
           Maximum rank =  0   Radius =  0.650 angstrom
                   Q00  =  -0.515332

N          x =  2.746872  y =  0.734507  z =  0.193422 angstrom
           Maximum rank =  0   Radius =  0.650 angstrom
                   Q00  =  -0.809299

H          x = -0.276128  y = -0.063493  z =  0.474422 angstrom
           Maximum rank =  0   Radius =  0.325 angstrom
                   Q00  =   0.324062

H          x =  1.745872  y =  0.063507  z =  1.978422 angstrom
           Maximum rank =  0   Radius =  0.325 angstrom
                   Q00  =   0.116291

H          x =  0.342872  y =  0.667507  z = -1.971578 angstrom
           Maximum rank =  0   Radius =  0.325 angstrom
                   Q00  =   0.072828

H          x =  4.209872  y =  0.987507  z = -2.012578 angstrom
           Maximum rank =  0   Radius =  0.325 angstrom
                   Q00  =   0.099622

H          x =  3.284872  y =  2.493507  z = -2.144578 angstrom
           Maximum rank =  0   Radius =  0.325 angstrom
                   Q00  =   0.087262

H          x =  2.897089  y =  1.119957  z = -3.209508 angstrom
           Maximum rank =  0   Radius =  0.325 angstrom
                   Q00  =   0.080455

C          x = -2.726128  y = -1.692493  z = -0.518578 angstrom
           Maximum rank =  0   Radius =  0.650 angstrom
                   Q00  =  -0.283139

C          x = -2.684128  y = -0.974493  z =  0.819422 angstrom
           Maximum rank =  0   Radius =  0.650 angstrom
                   Q00  =   0.941606

O          x = -1.588128  y = -0.871493  z =  1.413422 angstrom
           Maximum rank =  0   Radius =  0.650 angstrom
                   Q00  =  -0.950593

O          x = -3.746128  y = -0.493493  z =  1.272422 angstrom
           Maximum rank =  0   Radius =  0.650 angstrom
                   Q00  =  -0.902650

H          x = -2.464128  y = -2.742493  z = -0.397578 angstrom
           Maximum rank =  0   Radius =  0.325 angstrom
                   Q00  =   0.082078

H          x = -1.974128  y = -1.224493  z = -1.154578 angstrom
           Maximum rank =  0   Radius =  0.325 angstrom
                   Q00  =   0.067454

H          x = -3.712510  y = -1.606033  z = -0.997718 angstrom
           Maximum rank =  0   Radius =  0.325 angstrom
                   Q00  =   0.064054

Total multipoles referred to origin at
           x =   0.000000,  y =    0.000000,  z =    0.000000 angstrom
                   Q00  =  -1.000000

Finished at 6:55:3 on 27 Apr 2020

  DMA results are available in the Python driver through the
	  variable('DMA DISTRIBUTED MULTIPOLES')
  and
	  variable('DMA TOTAL MULTIPOLES')
  commands.

    Psi4 stopped on: Monday, 27 April 2020 06:55AM
    Psi4 wall time for execution: 0:01:54.58

*** Psi4 exiting successfully. Buy a developer a beer!
