                               Psi4 1.3.2 release

  ==> Input File <==

--------------------------------------------------------------------------
import numpy as np
set {scf_type pk
basis cc-pvdz
d_convergence 10
gdma_switch   0
gdma_limit    0
gdma_origin   [ 0.0,  0.0,  0.0 ]
}
molecule test {
    units Angstrom
    0 1
    --
    0 1
    C                1.992251441550829     2.412848117235641     0.365645147765687
    C                0.353251441550828     0.768848117235641    -0.610354852234313
    C                0.826251441550829     2.081848117235641    -0.526354852234313
    C               -0.737748558449172     0.454848117235641    -1.416354852234313
    C                0.194251441550828     3.082848117235641    -1.269354852234313
    C               -1.351748558449172     1.459848117235641    -2.163354852234313
    C               -0.890748558449172     2.775848117235641    -2.089354852234313
    O               -2.409748558449171     1.180848117235641    -2.969354852234313
    H                0.835251441550828    -0.012151882764359    -0.042354852234313
    H               -1.121748558449171    -0.552151882764359    -1.452354852234313
    H                2.320251441550829     1.509848117235641     0.877645147765687
    H                1.641251441550829     3.109848117235641     1.127645147765687
    H                0.548251441550828     4.104848117235641    -1.210354852234313
    H               -1.360748558449171     3.554848117235641    -2.673354852234313
    H               -2.675748558449171     1.933848117235641    -3.504354852234313
    H                2.850186441550829     2.858028117235641    -0.159488852234313
    C                1.059251441550829    -0.416151882764359     3.243645147765687
    C               -0.741748558449172    -1.727151882764359     2.059645147765687
    C                0.617251441550828    -1.461151882764359     2.249645147765687
    C               -1.157748558449171    -2.667151882764359     1.115645147765687
    C                1.553251441550829    -2.130151882764360     1.460645147765687
    C               -0.215748558449172    -3.344151882764359     0.341645147765687
    C                1.141251441550829    -3.072151882764359     0.512645147765687
    H               -1.481748558449172    -1.208151882764359     2.653645147765687
    H               -2.212748558449171    -2.874151882764359     0.988645147765687
    H                0.220251441550828     0.244848117235641     3.453645147765687
    H                1.824251441550829     0.202848117235641     2.774645147765687
    H                2.606251441550829    -1.925151882764359     1.588645147765687
    H               -0.537748558449172    -4.077151882764360    -0.385354852234313
    H                1.875251441550829    -3.594151882764359    -0.083354852234313
    H                1.461623441550829    -0.809251882764359     4.188934147765687

}
e, wfn = energy('scf', return_wfn=True)
gdma(wfn)
dmavals = variable('DMA DISTRIBUTED MULTIPOLES')
charges = np.array(dmavals)
print(charges)
np.save('SSI-083TYR-087PHE-1-dimer.npy', np.array(charges))--------------------------------------------------------------------------

*** tstart() called on ds3
*** at Tue Apr 28 13:02:26 2020

   => Loading Basis Set <=

    Name: CC-PVDZ
    Role: ORBITAL
    Keyword: BASIS
    atoms 1-7, 17-23  entry C          line   138 file /theoryfs2/ds/metcalf/miniconda2/envs/tf2gpu/share/psi4/basis/cc-pvdz.gbs
    atoms 8           entry O          line   198 file /theoryfs2/ds/metcalf/miniconda2/envs/tf2gpu/share/psi4/basis/cc-pvdz.gbs
    atoms 9-16, 24-31 entry H          line    22 file /theoryfs2/ds/metcalf/miniconda2/envs/tf2gpu/share/psi4/basis/cc-pvdz.gbs

         ---------------------------------------------------------
                                   SCF
               by Justin Turney, Rob Parrish, Andy Simmonett
                          and Daniel G. A. Smith
                              RHF Reference
                        1 Threads,    500 MiB Core
         ---------------------------------------------------------

  ==> Geometry <==

    Molecular point group: c1
    Full point group: C1

    Geometry (in Angstrom), charge = 0, multiplicity = 1:

       Center              X                  Y                   Z               Mass
    ------------   -----------------  -----------------  -----------------  -----------------
         C            1.992251441551     2.412848117236     0.365645147766    12.000000000000
         C            0.353251441551     0.768848117236    -0.610354852234    12.000000000000
         C            0.826251441551     2.081848117236    -0.526354852234    12.000000000000
         C           -0.737748558449     0.454848117236    -1.416354852234    12.000000000000
         C            0.194251441551     3.082848117236    -1.269354852234    12.000000000000
         C           -1.351748558449     1.459848117236    -2.163354852234    12.000000000000
         C           -0.890748558449     2.775848117236    -2.089354852234    12.000000000000
         O           -2.409748558449     1.180848117236    -2.969354852234    15.994914619570
         H            0.835251441551    -0.012151882764    -0.042354852234     1.007825032230
         H           -1.121748558449    -0.552151882764    -1.452354852234     1.007825032230
         H            2.320251441551     1.509848117236     0.877645147766     1.007825032230
         H            1.641251441551     3.109848117236     1.127645147766     1.007825032230
         H            0.548251441551     4.104848117236    -1.210354852234     1.007825032230
         H           -1.360748558449     3.554848117236    -2.673354852234     1.007825032230
         H           -2.675748558449     1.933848117236    -3.504354852234     1.007825032230
         H            2.850186441551     2.858028117236    -0.159488852234     1.007825032230
         C            1.059251441551    -0.416151882764     3.243645147766    12.000000000000
         C           -0.741748558449    -1.727151882764     2.059645147766    12.000000000000
         C            0.617251441551    -1.461151882764     2.249645147766    12.000000000000
         C           -1.157748558449    -2.667151882764     1.115645147766    12.000000000000
         C            1.553251441551    -2.130151882764     1.460645147766    12.000000000000
         C           -0.215748558449    -3.344151882764     0.341645147766    12.000000000000
         C            1.141251441551    -3.072151882764     0.512645147766    12.000000000000
         H           -1.481748558449    -1.208151882764     2.653645147766     1.007825032230
         H           -2.212748558449    -2.874151882764     0.988645147766     1.007825032230
         H            0.220251441551     0.244848117236     3.453645147766     1.007825032230
         H            1.824251441551     0.202848117236     2.774645147766     1.007825032230
         H            2.606251441551    -1.925151882764     1.588645147766     1.007825032230
         H           -0.537748558449    -4.077151882764    -0.385354852234     1.007825032230
         H            1.875251441551    -3.594151882764    -0.083354852234     1.007825032230
         H            1.461623441551    -0.809251882764     4.188934147766     1.007825032230

  Running in c1 symmetry.

  Rotational constants: A =      0.02780  B =      0.01179  C =      0.00936 [cm^-1]
  Rotational constants: A =    833.45968  B =    353.37225  C =    280.48024 [MHz]
  Nuclear repulsion =  902.873059678025697

  Charge       = 0
  Multiplicity = 1
  Electrons    = 108
  Nalpha       = 54
  Nbeta        = 54

  ==> Algorithm <==

  SCF Algorithm Type is PK.
  DIIS enabled.
  MOM disabled.
  Fractional occupation disabled.
  Guess Type is SAD.
  Energy threshold   = 1.00e-06
  Density threshold  = 1.00e-10
  Integral threshold = 0.00e+00

  ==> Primary Basis <==

  Basis Set: CC-PVDZ
    Blend: CC-PVDZ
    Number of shells: 138
    Number of basis function: 290
    Number of Cartesian functions: 305
    Spherical Harmonics?: true
    Max angular momentum: 2

  ==> Pre-Iterations <==

   -------------------------------------------------------
    Irrep   Nso     Nmo     Nalpha   Nbeta   Ndocc  Nsocc
   -------------------------------------------------------
     A        290     290       0       0       0       0
   -------------------------------------------------------
    Total     290     290      54      54      54       0
   -------------------------------------------------------

  ==> Integral Setup <==

  Using integral reordering PK algorithm.
  Sizing the integral batches needed.
  Building batch lookup table.
   Calculation information:
      Number of atoms:                  31
      Number of AO shells:             138
      Number of primitives:            410
      Number of atomic orbitals:       305
      Number of basis functions:       290

      Integral cutoff                 1.00e-12
      Number of threads:                 1

	Batch   1 pq = [       0,    9405] index = [             0,44231715] size =     44231715
	Batch   2 pq = [    9405,   13301] index = [      44231715,88464951] size =     44233236
	Batch   3 pq = [   13301,   16290] index = [      88464951,132690195] size =     44225244
	Batch   4 pq = [   16290,   18810] index = [     132690195,176917455] size =     44227260
	Batch   5 pq = [   18810,   21030] index = [     176917455,221140965] size =     44223510
	Batch   6 pq = [   21030,   23037] index = [     221140965,265363203] size =     44222238
	Batch   7 pq = [   23037,   24883] index = [     265363203,309594286] size =     44231083
	Batch   8 pq = [   24883,   26601] index = [     309594286,353819901] size =     44225615
	Batch   9 pq = [   26601,   28214] index = [     353819901,398029005] size =     44209104
	Batch  10 pq = [   28214,   29740] index = [     398029005,442248670] size =     44219665
	Batch  11 pq = [   29740,   31191] index = [     442248670,486454836] size =     44206166
	Batch  12 pq = [   31191,   32578] index = [     486454836,530679331] size =     44224495
	Batch  13 pq = [   32578,   33908] index = [     530679331,574893186] size =     44213855
	Batch  14 pq = [   33908,   35188] index = [     574893186,619115266] size =     44222080
	Batch  15 pq = [   35188,   36423] index = [     619115266,663335676] size =     44220410
	Batch  16 pq = [   36423,   37617] index = [     663335676,707538153] size =     44202477
	Batch  17 pq = [   37617,   38775] index = [     707538153,751769700] size =     44231547
	Batch  18 pq = [   38775,   39899] index = [     751769700,795985050] size =     44215350
	Batch  19 pq = [   39899,   40992] index = [     795985050,840192528] size =     44207478
	Batch  20 pq = [   40992,   42057] index = [     840192528,884416653] size =     44224125
	Batch  21 pq = [   42057,   42195] index = [     884416653,890230110] size =      5813457
  Task number: 81
  Buffer size: 11059200
  Buffer per thread: 2
  We computed 48469328 shell quartets total.
  Whereas there are 45998436 unique shell quartets.
     5.37 percent of shell quartets recomputed by reordering.

  ==> DiskJK: Disk-Based J/K Matrices <==

    J tasked:                  Yes
    K tasked:                  Yes
    wK tasked:                  No
    Memory [MiB]:              375
    Schwarz Cutoff:          1E-12

    OpenMP threads:              1

  Minimum eigenvalue in the overlap matrix is 3.0427701768E-04.
  Using Symmetric Orthogonalization.

  SCF Guess: Superposition of Atomic Densities via on-the-fly atomic UHF.

  ==> Iterations <==

                        Total Energy        Delta E     RMS |[F,P]|

   @RHF iter SAD:  -613.17703942283038   -6.13177e+02   0.00000e+00
   @RHF iter   1:  -614.06198204798329   -8.84943e-01   2.36682e-03 DIIS
   @RHF iter   2:  -614.33585167334502   -2.73870e-01   9.81755e-04 DIIS
   @RHF iter   3:  -614.37717878689170   -4.13271e-02   2.37479e-04 DIIS
   @RHF iter   4:  -614.38078472943118   -3.60594e-03   9.52741e-05 DIIS
   @RHF iter   5:  -614.38123292861405   -4.48199e-04   1.72478e-05 DIIS
   @RHF iter   6:  -614.38125406480356   -2.11362e-05   5.68774e-06 DIIS
   @RHF iter   7:  -614.38125648150367   -2.41670e-06   1.83260e-06 DIIS
   @RHF iter   8:  -614.38125682342638   -3.41923e-07   7.18264e-07 DIIS
   @RHF iter   9:  -614.38125688702348   -6.35971e-08   3.20971e-07 DIIS
   @RHF iter  10:  -614.38125690283732   -1.58138e-08   1.39130e-07 DIIS
   @RHF iter  11:  -614.38125690745846   -4.62114e-09   5.62078e-08 DIIS
   @RHF iter  12:  -614.38125690821562   -7.57154e-10   2.66503e-08 DIIS
   @RHF iter  13:  -614.38125690832771   -1.12095e-10   6.52050e-09 DIIS
   @RHF iter  14:  -614.38125690833112   -3.41061e-12   2.01309e-09 DIIS
   @RHF iter  15:  -614.38125690833306   -1.93268e-12   5.90323e-10 DIIS
   @RHF iter  16:  -614.38125690833408   -1.02318e-12   2.60033e-10 DIIS
   @RHF iter  17:  -614.38125690833408    0.00000e+00   1.10519e-10 DIIS
   @RHF iter  18:  -614.38125690832885    5.22959e-12   5.12452e-11 DIIS
  Energy and wave function converged.

  ==> Post-Iterations <==

    Orbital Energies [Eh]
    ---------------------

    Doubly Occupied:

       1A    -20.576506     2A    -11.293141     3A    -11.243888
       4A    -11.239648     5A    -11.238690     6A    -11.234995
       7A    -11.233983     8A    -11.233391     9A    -11.233228
      10A    -11.230776    11A    -11.227462    12A    -11.227271
      13A    -11.226001    14A    -11.223715    15A    -11.221071
      16A     -1.395413    17A     -1.153555    18A     -1.141716
      19A     -1.045735    20A     -1.030326    21A     -1.012520
      22A     -1.009929    23A     -0.933155    24A     -0.919839
      25A     -0.836668    26A     -0.826726    27A     -0.797271
      28A     -0.795667    29A     -0.726264    30A     -0.692471
      31A     -0.661013    32A     -0.634991    33A     -0.632821
      34A     -0.631696    35A     -0.602315    36A     -0.585311
      37A     -0.583775    38A     -0.580719    39A     -0.574189
      40A     -0.566358    41A     -0.564026    42A     -0.560182
      43A     -0.536037    44A     -0.520539    45A     -0.493674
      46A     -0.486106    47A     -0.485169    48A     -0.484178
      49A     -0.476277    50A     -0.459152    51A     -0.337026
      52A     -0.329186    53A     -0.323103    54A     -0.293223

    Virtual:

      55A      0.127938    56A      0.135097    57A      0.141657
      58A      0.162975    59A      0.175774    60A      0.184256
      61A      0.191273    62A      0.210109    63A      0.215141
      64A      0.230742    65A      0.238708    66A      0.244582
      67A      0.259650    68A      0.263287    69A      0.273589
      70A      0.275711    71A      0.277038    72A      0.295392
      73A      0.313327    74A      0.353097    75A      0.366375
      76A      0.374927    77A      0.380366    78A      0.385165
      79A      0.431524    80A      0.448770    81A      0.459651
      82A      0.461047    83A      0.476317    84A      0.488191
      85A      0.493198    86A      0.509918    87A      0.518422
      88A      0.563998    89A      0.590475    90A      0.601022
      91A      0.624319    92A      0.648980    93A      0.656515
      94A      0.673509    95A      0.677583    96A      0.690463
      97A      0.692354    98A      0.701832    99A      0.705152
     100A      0.718394   101A      0.721742   102A      0.728286
     103A      0.732863   104A      0.735935   105A      0.737740
     106A      0.749361   107A      0.758167   108A      0.768452
     109A      0.772781   110A      0.774401   111A      0.783579
     112A      0.795030   113A      0.808071   114A      0.812010
     115A      0.824529   116A      0.838801   117A      0.849496
     118A      0.853507   119A      0.862037   120A      0.865293
     121A      0.870825   122A      0.881139   123A      0.888419
     124A      0.893033   125A      0.896542   126A      0.901058
     127A      0.910823   128A      0.918636   129A      0.923378
     130A      0.931829   131A      0.935232   132A      0.945151
     133A      0.963277   134A      0.978547   135A      0.985800
     136A      1.001192   137A      1.009728   138A      1.023900
     139A      1.034292   140A      1.043103   141A      1.074897
     142A      1.097221   143A      1.117559   144A      1.138405
     145A      1.144801   146A      1.147926   147A      1.152748
     148A      1.167175   149A      1.171881   150A      1.196050
     151A      1.211274   152A      1.218616   153A      1.231668
     154A      1.244634   155A      1.250589   156A      1.258085
     157A      1.264750   158A      1.278254   159A      1.280296
     160A      1.296730   161A      1.299860   162A      1.304803
     163A      1.312733   164A      1.318653   165A      1.325376
     166A      1.327415   167A      1.366859   168A      1.371314
     169A      1.393520   170A      1.401032   171A      1.434315
     172A      1.497891   173A      1.512280   174A      1.513762
     175A      1.525896   176A      1.543680   177A      1.551969
     178A      1.577380   179A      1.603848   180A      1.629727
     181A      1.635597   182A      1.670714   183A      1.690741
     184A      1.706445   185A      1.712306   186A      1.732553
     187A      1.742182   188A      1.745688   189A      1.753791
     190A      1.761014   191A      1.773703   192A      1.803768
     193A      1.810968   194A      1.816869   195A      1.821210
     196A      1.857168   197A      1.872174   198A      1.886856
     199A      1.892153   200A      1.899811   201A      1.905977
     202A      1.911852   203A      1.918142   204A      1.930487
     205A      1.936356   206A      1.937290   207A      1.943334
     208A      1.946027   209A      1.949770   210A      1.960690
     211A      1.961842   212A      1.974005   213A      1.975817
     214A      1.979154   215A      1.999690   216A      2.019008
     217A      2.032595   218A      2.039177   219A      2.057872
     220A      2.064985   221A      2.072652   222A      2.078867
     223A      2.082880   224A      2.084955   225A      2.113172
     226A      2.135104   227A      2.146883   228A      2.149640
     229A      2.155073   230A      2.162732   231A      2.168263
     232A      2.180919   233A      2.201919   234A      2.211134
     235A      2.232306   236A      2.247714   237A      2.267140
     238A      2.271503   239A      2.278784   240A      2.292929
     241A      2.301280   242A      2.319366   243A      2.327442
     244A      2.339453   245A      2.370918   246A      2.396990
     247A      2.400857   248A      2.456445   249A      2.466281
     250A      2.481988   251A      2.504445   252A      2.510874
     253A      2.517147   254A      2.531164   255A      2.541707
     256A      2.547402   257A      2.617263   258A      2.626741
     259A      2.649764   260A      2.731768   261A      2.752736
     262A      2.760464   263A      2.774374   264A      2.784206
     265A      2.785788   266A      2.802894   267A      2.816590
     268A      2.849883   269A      2.851729   270A      2.874700
     271A      2.879408   272A      2.907975   273A      2.963994
     274A      2.979611   275A      2.998888   276A      3.013335
     277A      3.034664   278A      3.102669   279A      3.134996
     280A      3.150653   281A      3.188958   282A      3.257016
     283A      3.287409   284A      3.295467   285A      3.357573
     286A      3.582812   287A      3.676375   288A      3.951727
     289A      3.987238   290A      4.194870

    Final Occupation by Irrep:
              A
    DOCC [    54 ]

  @RHF Final Energy:  -614.38125690832885

   => Energetics <=

    Nuclear Repulsion Energy =            902.8730596780256974
    One-Electron Energy =               -2625.3044615799194617
    Two-Electron Energy =                1108.0501449935650271
    Total Energy =                       -614.3812569083288508

Computation Completed

Properties will be evaluated at   0.000000,   0.000000,   0.000000 [a0]

Properties computed using the SCF density matrix

  Nuclear Dipole Moment: [e a0]
     X:     6.3560      Y:     2.3181      Z:     7.6191

  Electronic Dipole Moment: [e a0]
     X:    -6.2170      Y:    -1.8551      Z:    -7.5485

  Dipole Moment: [e a0]
     X:     0.1390      Y:     0.4630      Z:     0.0706     Total:     0.4885

  Dipole Moment: [D]
     X:     0.3534      Y:     1.1768      Z:     0.1794     Total:     1.2418

*** tstop() called on ds3 at Tue Apr 28 13:23:54 2020
Module time:
	user time   =     418.54 seconds =       6.98 minutes
	system time =     148.26 seconds =       2.47 minutes
	total time  =       1288 seconds =      21.47 minutes
Total time:
	user time   =     418.54 seconds =       6.98 minutes
	system time =     148.26 seconds =       2.47 minutes
	total time  =       1288 seconds =      21.47 minutes
                                     G D M A

                                 by Anthony Stone

                           version 2.2.06, 22 June 2011

               Distributed Multipoles from Gaussian wavefunctions

Starting at 13:23:54 on 28 Apr 2020

Using SCF density matrix from file ./SSI/SSI-083TYR-087PHE-1-dimer.test.15687.fchk

                         Distributed Multipole Analysis

Standard DMA

Positions and radii in angstrom
Multipole moments in atomic units, ea_0^k for rank k

C          x =  1.992251  y =  2.412848  z =  0.365645 angstrom
           Maximum rank =  0   Radius =  0.650 angstrom
                   Q00  =  -0.196412

C          x =  0.353251  y =  0.768848  z = -0.610355 angstrom
           Maximum rank =  0   Radius =  0.650 angstrom
                   Q00  =   0.045532

C          x =  0.826251  y =  2.081848  z = -0.526355 angstrom
           Maximum rank =  0   Radius =  0.650 angstrom
                   Q00  =  -0.146210

C          x = -0.737749  y =  0.454848  z = -1.416355 angstrom
           Maximum rank =  0   Radius =  0.650 angstrom
                   Q00  =  -0.114323

C          x =  0.194251  y =  3.082848  z = -1.269355 angstrom
           Maximum rank =  0   Radius =  0.650 angstrom
                   Q00  =  -0.066393

C          x = -1.351749  y =  1.459848  z = -2.163355 angstrom
           Maximum rank =  0   Radius =  0.650 angstrom
                   Q00  =   0.317354

C          x = -0.890749  y =  2.775848  z = -2.089355 angstrom
           Maximum rank =  0   Radius =  0.650 angstrom
                   Q00  =  -0.182957

O          x = -2.409749  y =  1.180848  z = -2.969355 angstrom
           Maximum rank =  0   Radius =  0.650 angstrom
                   Q00  =  -0.642402

H          x =  0.835251  y = -0.012152  z = -0.042355 angstrom
           Maximum rank =  0   Radius =  0.325 angstrom
                   Q00  =   0.078356

H          x = -1.121749  y = -0.552152  z = -1.452355 angstrom
           Maximum rank =  0   Radius =  0.325 angstrom
                   Q00  =   0.079470

H          x =  2.320251  y =  1.509848  z =  0.877645 angstrom
           Maximum rank =  0   Radius =  0.325 angstrom
                   Q00  =   0.093551

H          x =  1.641251  y =  3.109848  z =  1.127645 angstrom
           Maximum rank =  0   Radius =  0.325 angstrom
                   Q00  =   0.094490

H          x =  0.548251  y =  4.104848  z = -1.210355 angstrom
           Maximum rank =  0   Radius =  0.325 angstrom
                   Q00  =   0.064383

H          x = -1.360749  y =  3.554848  z = -2.673355 angstrom
           Maximum rank =  0   Radius =  0.325 angstrom
                   Q00  =   0.068284

H          x = -2.675749  y =  1.933848  z = -3.504355 angstrom
           Maximum rank =  0   Radius =  0.325 angstrom
                   Q00  =   0.405131

H          x =  2.850186  y =  2.858028  z = -0.159489 angstrom
           Maximum rank =  0   Radius =  0.325 angstrom
                   Q00  =   0.097619

C          x =  1.059251  y = -0.416152  z =  3.243645 angstrom
           Maximum rank =  0   Radius =  0.650 angstrom
                   Q00  =  -0.198746

C          x = -0.741749  y = -1.727152  z =  2.059645 angstrom
           Maximum rank =  0   Radius =  0.650 angstrom
                   Q00  =  -0.009719

C          x =  0.617251  y = -1.461152  z =  2.249645 angstrom
           Maximum rank =  0   Radius =  0.650 angstrom
                   Q00  =  -0.102036

C          x = -1.157749  y = -2.667152  z =  1.115645 angstrom
           Maximum rank =  0   Radius =  0.650 angstrom
                   Q00  =  -0.079075

C          x =  1.553251  y = -2.130152  z =  1.460645 angstrom
           Maximum rank =  0   Radius =  0.650 angstrom
                   Q00  =  -0.072927

C          x = -0.215749  y = -3.344152  z =  0.341645 angstrom
           Maximum rank =  0   Radius =  0.650 angstrom
                   Q00  =  -0.083503

C          x =  1.141251  y = -3.072152  z =  0.512645 angstrom
           Maximum rank =  0   Radius =  0.650 angstrom
                   Q00  =  -0.075668

H          x = -1.481749  y = -1.208152  z =  2.653645 angstrom
           Maximum rank =  0   Radius =  0.325 angstrom
                   Q00  =   0.062901

H          x = -2.212749  y = -2.874152  z =  0.988645 angstrom
           Maximum rank =  0   Radius =  0.325 angstrom
                   Q00  =   0.068869

H          x =  0.220251  y =  0.244848  z =  3.453645 angstrom
           Maximum rank =  0   Radius =  0.325 angstrom
                   Q00  =   0.101460

H          x =  1.824251  y =  0.202848  z =  2.774645 angstrom
           Maximum rank =  0   Radius =  0.325 angstrom
                   Q00  =   0.096136

H          x =  2.606251  y = -1.925152  z =  1.588645 angstrom
           Maximum rank =  0   Radius =  0.325 angstrom
                   Q00  =   0.057029

H          x = -0.537749  y = -4.077152  z = -0.385355 angstrom
           Maximum rank =  0   Radius =  0.325 angstrom
                   Q00  =   0.065275

H          x =  1.875251  y = -3.594152  z = -0.083355 angstrom
           Maximum rank =  0   Radius =  0.325 angstrom
                   Q00  =   0.067804

H          x =  1.461623  y = -0.809252  z =  4.188934 angstrom
           Maximum rank =  0   Radius =  0.325 angstrom
                   Q00  =   0.106728

Total multipoles referred to origin at
           x =   0.000000,  y =    0.000000,  z =    0.000000 angstrom
                   Q00  =  -0.000000

Finished at 13:23:54 on 28 Apr 2020

  DMA results are available in the Python driver through the
	  variable('DMA DISTRIBUTED MULTIPOLES')
  and
	  variable('DMA TOTAL MULTIPOLES')
  commands.

    Psi4 stopped on: Tuesday, 28 April 2020 01:23PM
    Psi4 wall time for execution: 0:21:27.84

*** Psi4 exiting successfully. Buy a developer a beer!
