                               Psi4 1.3.2 release

  ==> Input File <==

--------------------------------------------------------------------------
import numpy as np
set {scf_type pk
basis cc-pvdz
d_convergence 10
gdma_switch   0
gdma_limit    0
gdma_origin   [ 0.0,  0.0,  0.0 ]
}
molecule test {
    units Angstrom
    0 1
    --
    0 1
    C                1.828847666139917    -1.936655136042823    -0.489593816970089
    C                2.347847666139917    -3.239655136042823     0.111406183029911
    C                2.136847666139917    -1.795655136042823    -2.005593816970089
    H                0.750847666139917    -1.901655136042823    -0.326593816970089
    H                2.296847666139918    -1.113655136042823     0.049406183029911
    H                3.431847666139917    -3.281655136042823     0.002406183029911
    H                1.898847666139917    -4.081655136042823    -0.418593816970089
    H                1.921847666139917    -0.773655136042823    -2.321593816970090
    H                3.184847666139917    -2.006655136042823    -2.182593816970089
    H                2.101997666139917    -3.334265136042823     1.179396183029911
    H                1.535457666139917    -2.480565136042823    -2.621403816970089
    C               -2.753152333860083    -1.072655136042823     1.430406183029911
    C               -0.398152333860083    -0.340655136042823     2.092406183029911
    C               -1.457152333860083    -0.329655136042823     1.246406183029911
    C                0.161847666139917     1.117344863957177     0.458406183029911
    C               -1.131152333860083     0.599344863957177     0.186406183029911
    C                0.799847666139917     2.050344863957177    -0.371593816970089
    C               -1.787152333860083     1.057344863957177    -0.974593816970089
    C                0.138847666139917     2.489344863957177    -1.502593816970089
    C               -1.142152333860083     1.997344863957177    -1.803593816970089
    N                0.571847666139917     0.526344863957177     1.631406183029911
    H               -0.415152333860083    -0.971655136042823     2.974406183029911
    H                1.455847666139917     0.711344863957177     2.091406183029911
    H               -2.523152333860083    -2.004655136042823     1.942406183029911
    H               -3.134152333860083    -1.303655136042823     0.430406183029911
    H                1.787847666139917     2.405344863957178    -0.107593816970089
    H               -2.776152333860082     0.701344863957177    -1.250593816970089
    H                0.609847666139917     3.211344863957177    -2.154593816970089
    H               -1.655152333860083     2.338344863957177    -2.691593816970089
    H               -3.476752333860083    -0.525335136042823     2.052366183029911

}
e, wfn = energy('scf', return_wfn=True)
gdma(wfn)
dmavals = variable('DMA DISTRIBUTED MULTIPOLES')
charges = np.array(dmavals)
print(charges)
np.save('SSI-156ARG-200TRP-1-dimer.npy', np.array(charges))--------------------------------------------------------------------------

*** tstart() called on ds3
*** at Tue Apr 28 03:45:56 2020

   => Loading Basis Set <=

    Name: CC-PVDZ
    Role: ORBITAL
    Keyword: BASIS
    atoms 1-3, 12-20  entry C          line   138 file /theoryfs2/ds/metcalf/miniconda2/envs/tf2gpu/share/psi4/basis/cc-pvdz.gbs
    atoms 4-11, 22-30 entry H          line    22 file /theoryfs2/ds/metcalf/miniconda2/envs/tf2gpu/share/psi4/basis/cc-pvdz.gbs
    atoms 21          entry N          line   168 file /theoryfs2/ds/metcalf/miniconda2/envs/tf2gpu/share/psi4/basis/cc-pvdz.gbs

         ---------------------------------------------------------
                                   SCF
               by Justin Turney, Rob Parrish, Andy Simmonett
                          and Daniel G. A. Smith
                              RHF Reference
                        1 Threads,    500 MiB Core
         ---------------------------------------------------------

  ==> Geometry <==

    Molecular point group: c1
    Full point group: C1

    Geometry (in Angstrom), charge = 0, multiplicity = 1:

       Center              X                  Y                   Z               Mass
    ------------   -----------------  -----------------  -----------------  -----------------
         C            1.828847666140    -1.936655136043    -0.489593816970    12.000000000000
         C            2.347847666140    -3.239655136043     0.111406183030    12.000000000000
         C            2.136847666140    -1.795655136043    -2.005593816970    12.000000000000
         H            0.750847666140    -1.901655136043    -0.326593816970     1.007825032230
         H            2.296847666140    -1.113655136043     0.049406183030     1.007825032230
         H            3.431847666140    -3.281655136043     0.002406183030     1.007825032230
         H            1.898847666140    -4.081655136043    -0.418593816970     1.007825032230
         H            1.921847666140    -0.773655136043    -2.321593816970     1.007825032230
         H            3.184847666140    -2.006655136043    -2.182593816970     1.007825032230
         H            2.101997666140    -3.334265136043     1.179396183030     1.007825032230
         H            1.535457666140    -2.480565136043    -2.621403816970     1.007825032230
         C           -2.753152333860    -1.072655136043     1.430406183030    12.000000000000
         C           -0.398152333860    -0.340655136043     2.092406183030    12.000000000000
         C           -1.457152333860    -0.329655136043     1.246406183030    12.000000000000
         C            0.161847666140     1.117344863957     0.458406183030    12.000000000000
         C           -1.131152333860     0.599344863957     0.186406183030    12.000000000000
         C            0.799847666140     2.050344863957    -0.371593816970    12.000000000000
         C           -1.787152333860     1.057344863957    -0.974593816970    12.000000000000
         C            0.138847666140     2.489344863957    -1.502593816970    12.000000000000
         C           -1.142152333860     1.997344863957    -1.803593816970    12.000000000000
         N            0.571847666140     0.526344863957     1.631406183030    14.003074004430
         H           -0.415152333860    -0.971655136043     2.974406183030     1.007825032230
         H            1.455847666140     0.711344863957     2.091406183030     1.007825032230
         H           -2.523152333860    -2.004655136043     1.942406183030     1.007825032230
         H           -3.134152333860    -1.303655136043     0.430406183030     1.007825032230
         H            1.787847666140     2.405344863957    -0.107593816970     1.007825032230
         H           -2.776152333860     0.701344863957    -1.250593816970     1.007825032230
         H            0.609847666140     3.211344863957    -2.154593816970     1.007825032230
         H           -1.655152333860     2.338344863957    -2.691593816970     1.007825032230
         H           -3.476752333860    -0.525335136043     2.052366183030     1.007825032230

  Running in c1 symmetry.

  Rotational constants: A =      0.02776  B =      0.01983  C =      0.01505 [cm^-1]
  Rotational constants: A =    832.23827  B =    594.60463  C =    451.06884 [MHz]
  Nuclear repulsion =  764.989591873133008

  Charge       = 0
  Multiplicity = 1
  Electrons    = 96
  Nalpha       = 48
  Nbeta        = 48

  ==> Algorithm <==

  SCF Algorithm Type is PK.
  DIIS enabled.
  MOM disabled.
  Fractional occupation disabled.
  Guess Type is SAD.
  Energy threshold   = 1.00e-06
  Density threshold  = 1.00e-10
  Integral threshold = 0.00e+00

  ==> Primary Basis <==

  Basis Set: CC-PVDZ
    Blend: CC-PVDZ
    Number of shells: 129
    Number of basis function: 267
    Number of Cartesian functions: 280
    Spherical Harmonics?: true
    Max angular momentum: 2

  ==> Pre-Iterations <==

   -------------------------------------------------------
    Irrep   Nso     Nmo     Nalpha   Nbeta   Ndocc  Nsocc
   -------------------------------------------------------
     A        267     267       0       0       0       0
   -------------------------------------------------------
    Total     267     267      48      48      48       0
   -------------------------------------------------------

  ==> Integral Setup <==

  Using integral reordering PK algorithm.
  Sizing the integral batches needed.
  Building batch lookup table.
   Calculation information:
      Number of atoms:                  30
      Number of AO shells:             129
      Number of primitives:            371
      Number of atomic orbitals:       280
      Number of basis functions:       267

      Integral cutoff                 1.00e-12
      Number of threads:                 1

	Batch   1 pq = [       0,    9405] index = [             0,44231715] size =     44231715
	Batch   2 pq = [    9405,   13301] index = [      44231715,88464951] size =     44233236
	Batch   3 pq = [   13301,   16290] index = [      88464951,132690195] size =     44225244
	Batch   4 pq = [   16290,   18810] index = [     132690195,176917455] size =     44227260
	Batch   5 pq = [   18810,   21030] index = [     176917455,221140965] size =     44223510
	Batch   6 pq = [   21030,   23037] index = [     221140965,265363203] size =     44222238
	Batch   7 pq = [   23037,   24883] index = [     265363203,309594286] size =     44231083
	Batch   8 pq = [   24883,   26601] index = [     309594286,353819901] size =     44225615
	Batch   9 pq = [   26601,   28214] index = [     353819901,398029005] size =     44209104
	Batch  10 pq = [   28214,   29740] index = [     398029005,442248670] size =     44219665
	Batch  11 pq = [   29740,   31191] index = [     442248670,486454836] size =     44206166
	Batch  12 pq = [   31191,   32578] index = [     486454836,530679331] size =     44224495
	Batch  13 pq = [   32578,   33908] index = [     530679331,574893186] size =     44213855
	Batch  14 pq = [   33908,   35188] index = [     574893186,619115266] size =     44222080
	Batch  15 pq = [   35188,   35778] index = [     619115266,640050531] size =     20935265
  Task number: 58
  Buffer size: 11059200
  Buffer per thread: 2
  We computed 39527122 shell quartets total.
  Whereas there are 35158305 unique shell quartets.
    12.43 percent of shell quartets recomputed by reordering.

  ==> DiskJK: Disk-Based J/K Matrices <==

    J tasked:                  Yes
    K tasked:                  Yes
    wK tasked:                  No
    Memory [MiB]:              375
    Schwarz Cutoff:          1E-12

    OpenMP threads:              1

  Minimum eigenvalue in the overlap matrix is 2.4610334262E-04.
  Using Symmetric Orthogonalization.

  SCF Guess: Superposition of Atomic Densities via on-the-fly atomic UHF.

  ==> Iterations <==

                        Total Energy        Delta E     RMS |[F,P]|

   @RHF iter SAD:  -517.90224325582335   -5.17902e+02   0.00000e+00
   @RHF iter   1:  -518.49367608213606   -5.91433e-01   2.47975e-03 DIIS
   @RHF iter   2:  -518.74955460855301   -2.55879e-01   1.09723e-03 DIIS
   @RHF iter   3:  -518.79507533607887   -4.55207e-02   2.82479e-04 DIIS
   @RHF iter   4:  -518.79915534517988   -4.08001e-03   1.29612e-04 DIIS
   @RHF iter   5:  -518.79982422785088   -6.68883e-04   1.92661e-05 DIIS
   @RHF iter   6:  -518.79985455476162   -3.03269e-05   8.56198e-06 DIIS
   @RHF iter   7:  -518.79986052258096   -5.96782e-06   3.37723e-06 DIIS
   @RHF iter   8:  -518.79986205215016   -1.52957e-06   1.40711e-06 DIIS
   @RHF iter   9:  -518.79986237546746   -3.23317e-07   6.11624e-07 DIIS
   @RHF iter  10:  -518.79986244269423   -6.72268e-08   2.69861e-07 DIIS
   @RHF iter  11:  -518.79986245865996   -1.59657e-08   1.09683e-07 DIIS
   @RHF iter  12:  -518.79986246123235   -2.57239e-09   4.05247e-08 DIIS
   @RHF iter  13:  -518.79986246145654   -2.24190e-10   1.10926e-08 DIIS
   @RHF iter  14:  -518.79986246146973   -1.31877e-11   4.46210e-09 DIIS
   @RHF iter  15:  -518.79986246147234   -2.61480e-12   2.15209e-09 DIIS
   @RHF iter  16:  -518.79986246147325   -9.09495e-13   9.40194e-10 DIIS
   @RHF iter  17:  -518.79986246146632    6.93490e-12   4.49836e-10 DIIS
   @RHF iter  18:  -518.79986246147473   -8.41283e-12   1.75327e-10 DIIS
   @RHF iter  19:  -518.79986246146973    5.00222e-12   7.01213e-11 DIIS
  Energy and wave function converged.

  ==> Post-Iterations <==

    Orbital Energies [Eh]
    ---------------------

    Doubly Occupied:

       1A    -15.602985     2A    -11.266538     3A    -11.264446
       4A    -11.235773     5A    -11.233342     6A    -11.231891
       7A    -11.228828     8A    -11.224131     9A    -11.223729
      10A    -11.218112    11A    -11.210122    12A    -11.209449
      13A    -11.207386    14A     -1.292472    15A     -1.125005
      16A     -1.073043    17A     -1.040244    18A     -0.994127
      19A     -0.988693    20A     -0.931740    21A     -0.915602
      22A     -0.838327    23A     -0.803700    24A     -0.788365
      25A     -0.749753    26A     -0.718625    27A     -0.666833
      28A     -0.640593    29A     -0.616268    30A     -0.602290
      31A     -0.594738    32A     -0.587903    33A     -0.581427
      34A     -0.569073    35A     -0.553001    36A     -0.538287
      37A     -0.535109    38A     -0.528403    39A     -0.524581
      40A     -0.495024    41A     -0.470428    42A     -0.463901
      43A     -0.463497    44A     -0.459276    45A     -0.454133
      46A     -0.371648    47A     -0.294643    48A     -0.277713

    Virtual:

      49A      0.122726    50A      0.166251    51A      0.170534
      52A      0.183170    53A      0.197998    54A      0.200677
      55A      0.212068    56A      0.228069    57A      0.232000
      58A      0.245031    59A      0.248941    60A      0.259408
      61A      0.262719    62A      0.265770    63A      0.278226
      64A      0.292440    65A      0.299987    66A      0.305683
      67A      0.309956    68A      0.315496    69A      0.363734
      70A      0.378614    71A      0.381749    72A      0.401448
      73A      0.419776    74A      0.429715    75A      0.439997
      76A      0.467559    77A      0.478300    78A      0.501815
      79A      0.509426    80A      0.577090    81A      0.586988
      82A      0.592895    83A      0.610750    84A      0.617877
      85A      0.624888    86A      0.633311    87A      0.642800
      88A      0.657232    89A      0.672434    90A      0.697902
      91A      0.711414    92A      0.719043    93A      0.730074
      94A      0.734152    95A      0.738900    96A      0.752128
      97A      0.759487    98A      0.763189    99A      0.771960
     100A      0.782553   101A      0.791801   102A      0.804478
     103A      0.819373   104A      0.825370   105A      0.846369
     106A      0.854329   107A      0.862475   108A      0.870141
     109A      0.884908   110A      0.889329   111A      0.896445
     112A      0.898223   113A      0.906410   114A      0.909548
     115A      0.912683   116A      0.917164   117A      0.927214
     118A      0.940114   119A      0.943221   120A      0.949299
     121A      0.952940   122A      0.961074   123A      0.963493
     124A      0.978801   125A      0.989127   126A      1.001689
     127A      1.012986   128A      1.020934   129A      1.076737
     130A      1.089156   131A      1.110277   132A      1.126590
     133A      1.127626   134A      1.134349   135A      1.144019
     136A      1.152228   137A      1.166046   138A      1.191718
     139A      1.205003   140A      1.216439   141A      1.228169
     142A      1.240604   143A      1.250171   144A      1.254088
     145A      1.279911   146A      1.282518   147A      1.294002
     148A      1.320890   149A      1.332299   150A      1.358090
     151A      1.365031   152A      1.396106   153A      1.409437
     154A      1.442985   155A      1.470036   156A      1.493802
     157A      1.514333   158A      1.545477   159A      1.562044
     160A      1.571074   161A      1.598742   162A      1.626497
     163A      1.629964   164A      1.631661   165A      1.660642
     166A      1.685452   167A      1.690127   168A      1.694629
     169A      1.701265   170A      1.718501   171A      1.741126
     172A      1.760916   173A      1.771053   174A      1.791757
     175A      1.817454   176A      1.828679   177A      1.839198
     178A      1.872156   179A      1.874135   180A      1.884047
     181A      1.891168   182A      1.894329   183A      1.907900
     184A      1.910128   185A      1.919421   186A      1.920616
     187A      1.928156   188A      1.934826   189A      1.941411
     190A      1.946699   191A      1.959775   192A      1.969449
     193A      1.981219   194A      1.987928   195A      1.994768
     196A      2.007896   197A      2.008899   198A      2.018163
     199A      2.021898   200A      2.028563   201A      2.050789
     202A      2.056443   203A      2.065048   204A      2.088748
     205A      2.094510   206A      2.101050   207A      2.112612
     208A      2.118903   209A      2.141551   210A      2.144702
     211A      2.162348   212A      2.163231   213A      2.169089
     214A      2.184454   215A      2.227850   216A      2.261495
     217A      2.275992   218A      2.297199   219A      2.302129
     220A      2.312854   221A      2.319238   222A      2.337521
     223A      2.339473   224A      2.346549   225A      2.356256
     226A      2.394549   227A      2.409389   228A      2.444301
     229A      2.459058   230A      2.495506   231A      2.546098
     232A      2.554037   233A      2.572488   234A      2.587078
     235A      2.603301   236A      2.618101   237A      2.629975
     238A      2.641979   239A      2.660543   240A      2.682771
     241A      2.717555   242A      2.763400   243A      2.765830
     244A      2.770573   245A      2.776763   246A      2.783057
     247A      2.789059   248A      2.793921   249A      2.830616
     250A      2.840823   251A      2.847993   252A      2.885002
     253A      2.910612   254A      2.922394   255A      2.958641
     256A      2.978125   257A      2.984837   258A      3.008738
     259A      3.041244   260A      3.070413   261A      3.083077
     262A      3.115404   263A      3.189342   264A      3.268984
     265A      3.374699   266A      3.737528   267A      3.925277

    Final Occupation by Irrep:
              A
    DOCC [    48 ]

  @RHF Final Energy:  -518.79986246146973

   => Energetics <=

    Nuclear Repulsion Energy =            764.9895918731330084
    One-Electron Energy =               -2219.7685186168337168
    Two-Electron Energy =                 935.9790642822308655
    Total Energy =                       -518.7998624614697292

Computation Completed

Properties will be evaluated at   0.000000,   0.000000,   0.000000 [a0]

Properties computed using the SCF density matrix

  Nuclear Dipole Moment: [e a0]
     X:     6.5565      Y:   -13.5117      Z:    -3.1480

  Electronic Dipole Moment: [e a0]
     X:    -6.2286      Y:    13.4632      Z:     3.7964

  Dipole Moment: [e a0]
     X:     0.3279      Y:    -0.0486      Z:     0.6484     Total:     0.7282

  Dipole Moment: [D]
     X:     0.8334      Y:    -0.1234      Z:     1.6480     Total:     1.8509

*** tstop() called on ds3 at Tue Apr 28 03:59:33 2020
Module time:
	user time   =     306.42 seconds =       5.11 minutes
	system time =     103.86 seconds =       1.73 minutes
	total time  =        817 seconds =      13.62 minutes
Total time:
	user time   =     306.42 seconds =       5.11 minutes
	system time =     103.86 seconds =       1.73 minutes
	total time  =        817 seconds =      13.62 minutes
                                     G D M A

                                 by Anthony Stone

                           version 2.2.06, 22 June 2011

               Distributed Multipoles from Gaussian wavefunctions

Starting at 3:59:33 on 28 Apr 2020

Using SCF density matrix from file ./SSI/SSI-156ARG-200TRP-1-dimer.test.24933.fchk

                         Distributed Multipole Analysis

Standard DMA

Positions and radii in angstrom
Multipole moments in atomic units, ea_0^k for rank k

C          x =  1.828848  y = -1.936655  z = -0.489594 angstrom
           Maximum rank =  0   Radius =  0.650 angstrom
                   Q00  =  -0.075362

C          x =  2.347848  y = -3.239655  z =  0.111406 angstrom
           Maximum rank =  0   Radius =  0.650 angstrom
                   Q00  =  -0.245986

C          x =  2.136848  y = -1.795655  z = -2.005594 angstrom
           Maximum rank =  0   Radius =  0.650 angstrom
                   Q00  =  -0.250145

H          x =  0.750848  y = -1.901655  z = -0.326594 angstrom
           Maximum rank =  0   Radius =  0.325 angstrom
                   Q00  =   0.061750

H          x =  2.296848  y = -1.113655  z =  0.049406 angstrom
           Maximum rank =  0   Radius =  0.325 angstrom
                   Q00  =   0.033751

H          x =  3.431848  y = -3.281655  z =  0.002406 angstrom
           Maximum rank =  0   Radius =  0.325 angstrom
                   Q00  =   0.071009

H          x =  1.898848  y = -4.081655  z = -0.418594 angstrom
           Maximum rank =  0   Radius =  0.325 angstrom
                   Q00  =   0.074368

H          x =  1.921848  y = -0.773655  z = -2.321594 angstrom
           Maximum rank =  0   Radius =  0.325 angstrom
                   Q00  =   0.094440

H          x =  3.184848  y = -2.006655  z = -2.182594 angstrom
           Maximum rank =  0   Radius =  0.325 angstrom
                   Q00  =   0.071154

H          x =  2.101998  y = -3.334265  z =  1.179396 angstrom
           Maximum rank =  0   Radius =  0.325 angstrom
                   Q00  =   0.075579

H          x =  1.535458  y = -2.480565  z = -2.621404 angstrom
           Maximum rank =  0   Radius =  0.325 angstrom
                   Q00  =   0.079702

C          x = -2.753152  y = -1.072655  z =  1.430406 angstrom
           Maximum rank =  0   Radius =  0.650 angstrom
                   Q00  =  -0.202015

C          x = -0.398152  y = -0.340655  z =  2.092406 angstrom
           Maximum rank =  0   Radius =  0.650 angstrom
                   Q00  =   0.082383

C          x = -1.457152  y = -0.329655  z =  1.246406 angstrom
           Maximum rank =  0   Radius =  0.650 angstrom
                   Q00  =  -0.138445

C          x =  0.161848  y =  1.117345  z =  0.458406 angstrom
           Maximum rank =  0   Radius =  0.650 angstrom
                   Q00  =   0.259530

C          x = -1.131152  y =  0.599345  z =  0.186406 angstrom
           Maximum rank =  0   Radius =  0.650 angstrom
                   Q00  =  -0.045720

C          x =  0.799848  y =  2.050345  z = -0.371594 angstrom
           Maximum rank =  0   Radius =  0.650 angstrom
                   Q00  =  -0.119821

C          x = -1.787152  y =  1.057345  z = -0.974594 angstrom
           Maximum rank =  0   Radius =  0.650 angstrom
                   Q00  =  -0.099330

C          x =  0.138848  y =  2.489345  z = -1.502594 angstrom
           Maximum rank =  0   Radius =  0.650 angstrom
                   Q00  =  -0.074074

C          x = -1.142152  y =  1.997345  z = -1.803594 angstrom
           Maximum rank =  0   Radius =  0.650 angstrom
                   Q00  =  -0.053100

N          x =  0.571848  y =  0.526345  z =  1.631406 angstrom
           Maximum rank =  0   Radius =  0.650 angstrom
                   Q00  =  -0.496505

H          x = -0.415152  y = -0.971655  z =  2.974406 angstrom
           Maximum rank =  0   Radius =  0.325 angstrom
                   Q00  =   0.103703

H          x =  1.455848  y =  0.711345  z =  2.091406 angstrom
           Maximum rank =  0   Radius =  0.325 angstrom
                   Q00  =   0.215459

H          x = -2.523152  y = -2.004655  z =  1.942406 angstrom
           Maximum rank =  0   Radius =  0.325 angstrom
                   Q00  =   0.100392

H          x = -3.134152  y = -1.303655  z =  0.430406 angstrom
           Maximum rank =  0   Radius =  0.325 angstrom
                   Q00  =   0.103187

H          x =  1.787848  y =  2.405345  z = -0.107594 angstrom
           Maximum rank =  0   Radius =  0.325 angstrom
                   Q00  =   0.071133

H          x = -2.776152  y =  0.701345  z = -1.250594 angstrom
           Maximum rank =  0   Radius =  0.325 angstrom
                   Q00  =   0.071365

H          x =  0.609848  y =  3.211345  z = -2.154594 angstrom
           Maximum rank =  0   Radius =  0.325 angstrom
                   Q00  =   0.067920

H          x = -1.655152  y =  2.338345  z = -2.691594 angstrom
           Maximum rank =  0   Radius =  0.325 angstrom
                   Q00  =   0.061693

H          x = -3.476752  y = -0.525335  z =  2.052366 angstrom
           Maximum rank =  0   Radius =  0.325 angstrom
                   Q00  =   0.101986

Total multipoles referred to origin at
           x =   0.000000,  y =    0.000000,  z =    0.000000 angstrom
                   Q00  =  -0.000000

Finished at 3:59:33 on 28 Apr 2020

  DMA results are available in the Python driver through the
	  variable('DMA DISTRIBUTED MULTIPOLES')
  and
	  variable('DMA TOTAL MULTIPOLES')
  commands.

    Psi4 stopped on: Tuesday, 28 April 2020 03:59AM
    Psi4 wall time for execution: 0:13:36.88

*** Psi4 exiting successfully. Buy a developer a beer!
