                               Psi4 1.3.2 release

  ==> Input File <==

--------------------------------------------------------------------------
import numpy as np
set {scf_type pk
basis cc-pvdz
d_convergence 10
gdma_switch   0
gdma_limit    0
gdma_origin   [ 0.0,  0.0,  0.0 ]
}
molecule test {
    units Angstrom
    0 1
    --
    0 1
    C               -1.387979434897814     2.071151314296938    -2.741311883707477
    C               -0.813979434897814     0.745151314296938    -0.508311883707477
    C               -1.453979434897813     1.811151314296938    -1.266311883707478
    C               -1.031979434897814     1.026151314296938     0.869688116292522
    C               -2.027979434897814     2.630151314296938    -0.353311883707478
    C                0.424020565102186    -1.235848685703062     0.179688116292522
    C                0.182020565102186    -0.921848685703062     1.524688116292522
    C               -0.063979434897814    -0.402848685703062    -0.847311883707478
    C               -0.542979434897814     0.207151314296938     1.879688116292522
    N               -1.776979434897814     2.182151314296938     0.928688116292522
    H                0.994020565102187    -2.117848685703062    -0.076311883707478
    H                0.563020565102186    -1.573848685703062     2.297688116292522
    H                0.145020565102186    -0.639848685703062    -1.877311883707478
    H               -0.750979434897814     0.434151314296938     2.915688116292523
    H               -0.362979434897814     2.055151314296938    -3.082311883707478
    H               -1.742979434897814     3.092151314296938    -2.891311883707477
    H               -2.553979434897814     3.538151314296938    -0.609311883707478
    H               -1.977979434897814     2.720151314296938     1.774688116292522
    H               -1.977269434897813     1.401741314296938    -3.385228883707477
    C                3.486020565102187    -3.405848685703062     0.898688116292522
    C                4.050020565102185    -3.959848685703062    -0.424311883707478
    H                2.428020565102186    -3.651848685703062     0.989688116292522
    H                4.022020565102187    -3.837848685703062     1.743688116292522
    H                3.604020565102186    -2.321848685703062     0.922688116292522
    H                5.130020565102186    -3.801848685703062    -0.447311883707478
    H                3.564190565102186    -3.486748685703062    -1.290419883707478
    H                3.851420565102186    -5.039088685703062    -0.500417083707478

}
e, wfn = energy('scf', return_wfn=True)
gdma(wfn)
dmavals = variable('DMA DISTRIBUTED MULTIPOLES')
charges = np.array(dmavals)
print(charges)
np.save('SSI-113TRP-126ALA-1-dimer.npy', np.array(charges))--------------------------------------------------------------------------

*** tstart() called on ds3
*** at Mon Apr 27 22:33:48 2020

   => Loading Basis Set <=

    Name: CC-PVDZ
    Role: ORBITAL
    Keyword: BASIS
    atoms 1-9, 20-21   entry C          line   138 file /theoryfs2/ds/metcalf/miniconda2/envs/tf2gpu/share/psi4/basis/cc-pvdz.gbs
    atoms 10           entry N          line   168 file /theoryfs2/ds/metcalf/miniconda2/envs/tf2gpu/share/psi4/basis/cc-pvdz.gbs
    atoms 11-19, 22-27 entry H          line    22 file /theoryfs2/ds/metcalf/miniconda2/envs/tf2gpu/share/psi4/basis/cc-pvdz.gbs

         ---------------------------------------------------------
                                   SCF
               by Justin Turney, Rob Parrish, Andy Simmonett
                          and Daniel G. A. Smith
                              RHF Reference
                        1 Threads,    500 MiB Core
         ---------------------------------------------------------

  ==> Geometry <==

    Molecular point group: c1
    Full point group: C1

    Geometry (in Angstrom), charge = 0, multiplicity = 1:

       Center              X                  Y                   Z               Mass
    ------------   -----------------  -----------------  -----------------  -----------------
         C           -1.387979434898     2.071151314297    -2.741311883707    12.000000000000
         C           -0.813979434898     0.745151314297    -0.508311883707    12.000000000000
         C           -1.453979434898     1.811151314297    -1.266311883707    12.000000000000
         C           -1.031979434898     1.026151314297     0.869688116293    12.000000000000
         C           -2.027979434898     2.630151314297    -0.353311883707    12.000000000000
         C            0.424020565102    -1.235848685703     0.179688116293    12.000000000000
         C            0.182020565102    -0.921848685703     1.524688116293    12.000000000000
         C           -0.063979434898    -0.402848685703    -0.847311883707    12.000000000000
         C           -0.542979434898     0.207151314297     1.879688116293    12.000000000000
         N           -1.776979434898     2.182151314297     0.928688116293    14.003074004430
         H            0.994020565102    -2.117848685703    -0.076311883707     1.007825032230
         H            0.563020565102    -1.573848685703     2.297688116293     1.007825032230
         H            0.145020565102    -0.639848685703    -1.877311883707     1.007825032230
         H           -0.750979434898     0.434151314297     2.915688116293     1.007825032230
         H           -0.362979434898     2.055151314297    -3.082311883707     1.007825032230
         H           -1.742979434898     3.092151314297    -2.891311883707     1.007825032230
         H           -2.553979434898     3.538151314297    -0.609311883707     1.007825032230
         H           -1.977979434898     2.720151314297     1.774688116293     1.007825032230
         H           -1.977269434898     1.401741314297    -3.385228883707     1.007825032230
         C            3.486020565102    -3.405848685703     0.898688116293    12.000000000000
         C            4.050020565102    -3.959848685703    -0.424311883707    12.000000000000
         H            2.428020565102    -3.651848685703     0.989688116293     1.007825032230
         H            4.022020565102    -3.837848685703     1.743688116293     1.007825032230
         H            3.604020565102    -2.321848685703     0.922688116293     1.007825032230
         H            5.130020565102    -3.801848685703    -0.447311883707     1.007825032230
         H            3.564190565102    -3.486748685703    -1.290419883707     1.007825032230
         H            3.851420565102    -5.039088685703    -0.500417083707     1.007825032230

  Running in c1 symmetry.

  Rotational constants: A =      0.05867  B =      0.01219  C =      0.01031 [cm^-1]
  Rotational constants: A =   1758.76494  B =    365.49542  C =    309.09947 [MHz]
  Nuclear repulsion =  631.523105404593935

  Charge       = 0
  Multiplicity = 1
  Electrons    = 88
  Nalpha       = 44
  Nbeta        = 44

  ==> Algorithm <==

  SCF Algorithm Type is PK.
  DIIS enabled.
  MOM disabled.
  Fractional occupation disabled.
  Guess Type is SAD.
  Energy threshold   = 1.00e-06
  Density threshold  = 1.00e-10
  Integral threshold = 0.00e+00

  ==> Primary Basis <==

  Basis Set: CC-PVDZ
    Blend: CC-PVDZ
    Number of shells: 117
    Number of basis function: 243
    Number of Cartesian functions: 255
    Spherical Harmonics?: true
    Max angular momentum: 2

  ==> Pre-Iterations <==

   -------------------------------------------------------
    Irrep   Nso     Nmo     Nalpha   Nbeta   Ndocc  Nsocc
   -------------------------------------------------------
     A        243     243       0       0       0       0
   -------------------------------------------------------
    Total     243     243      44      44      44       0
   -------------------------------------------------------

  ==> Integral Setup <==

  Using integral reordering PK algorithm.
  Sizing the integral batches needed.
  Building batch lookup table.
   Calculation information:
      Number of atoms:                  27
      Number of AO shells:             117
      Number of primitives:            339
      Number of atomic orbitals:       255
      Number of basis functions:       243

      Integral cutoff                 1.00e-12
      Number of threads:                 1

	Batch   1 pq = [       0,    9405] index = [             0,44231715] size =     44231715
	Batch   2 pq = [    9405,   13301] index = [      44231715,88464951] size =     44233236
	Batch   3 pq = [   13301,   16290] index = [      88464951,132690195] size =     44225244
	Batch   4 pq = [   16290,   18810] index = [     132690195,176917455] size =     44227260
	Batch   5 pq = [   18810,   21030] index = [     176917455,221140965] size =     44223510
	Batch   6 pq = [   21030,   23037] index = [     221140965,265363203] size =     44222238
	Batch   7 pq = [   23037,   24883] index = [     265363203,309594286] size =     44231083
	Batch   8 pq = [   24883,   26601] index = [     309594286,353819901] size =     44225615
	Batch   9 pq = [   26601,   28214] index = [     353819901,398029005] size =     44209104
	Batch  10 pq = [   28214,   29646] index = [     398029005,439457481] size =     41428476
  Task number: 40
  Buffer size: 11059200
  Buffer per thread: 2
  We computed 17774281 shell quartets total.
  Whereas there are 23829156 unique shell quartets.

  ==> DiskJK: Disk-Based J/K Matrices <==

    J tasked:                  Yes
    K tasked:                  Yes
    wK tasked:                  No
    Memory [MiB]:              375
    Schwarz Cutoff:          1E-12

    OpenMP threads:              1

  Minimum eigenvalue in the overlap matrix is 2.4819638322E-04.
  Using Symmetric Orthogonalization.

  SCF Guess: Superposition of Atomic Densities via on-the-fly atomic UHF.

  ==> Iterations <==

                        Total Energy        Delta E     RMS |[F,P]|

   @RHF iter SAD:  -478.89397464841181   -4.78894e+02   0.00000e+00
   @RHF iter   1:  -479.49287926079876   -5.98905e-01   2.57477e-03 DIIS
   @RHF iter   2:  -479.72273551068656   -2.29856e-01   1.12508e-03 DIIS
   @RHF iter   3:  -479.76250165159445   -3.97661e-02   2.94346e-04 DIIS
   @RHF iter   4:  -479.76617167619673   -3.67002e-03   1.35894e-04 DIIS
   @RHF iter   5:  -479.76678545778498   -6.13782e-04   1.98288e-05 DIIS
   @RHF iter   6:  -479.76681477128096   -2.93135e-05   9.01335e-06 DIIS
   @RHF iter   7:  -479.76682061251432   -5.84123e-06   3.78543e-06 DIIS
   @RHF iter   8:  -479.76682228918850   -1.67667e-06   1.46477e-06 DIIS
   @RHF iter   9:  -479.76682260488866   -3.15700e-07   6.33259e-07 DIIS
   @RHF iter  10:  -479.76682266733729   -6.24486e-08   3.00481e-07 DIIS
   @RHF iter  11:  -479.76682268312368   -1.57864e-08   1.12952e-07 DIIS
   @RHF iter  12:  -479.76682268535859   -2.23491e-09   3.75708e-08 DIIS
   @RHF iter  13:  -479.76682268552292   -1.64334e-10   1.10104e-08 DIIS
   @RHF iter  14:  -479.76682268553702   -1.40972e-11   5.03051e-09 DIIS
   @RHF iter  15:  -479.76682268553998   -2.95586e-12   2.67616e-09 DIIS
   @RHF iter  16:  -479.76682268553975    2.27374e-13   1.06644e-09 DIIS
   @RHF iter  17:  -479.76682268554134   -1.59162e-12   4.06261e-10 DIIS
   @RHF iter  18:  -479.76682268553793    3.41061e-12   1.59251e-10 DIIS
   @RHF iter  19:  -479.76682268554214   -4.20641e-12   5.74179e-11 DIIS
  Energy and wave function converged.

  ==> Post-Iterations <==

    Orbital Energies [Eh]
    ---------------------

    Doubly Occupied:

       1A    -15.600400     2A    -11.265301     3A    -11.264007
       4A    -11.233703     5A    -11.230331     6A    -11.229114
       7A    -11.226345     8A    -11.224634     9A    -11.222701
      10A    -11.219813    11A    -11.219046    12A    -11.216260
      13A     -1.289930    14A     -1.123564    15A     -1.071085
      16A     -1.013362    17A     -0.994033    18A     -0.987627
      19A     -0.929732    20A     -0.838992    21A     -0.835621
      22A     -0.801116    23A     -0.751086    24A     -0.717189
      25A     -0.663036    26A     -0.642180    27A     -0.599109
      28A     -0.597630    29A     -0.592126    30A     -0.590660
      31A     -0.585159    32A     -0.564778    33A     -0.551148
      34A     -0.540522    35A     -0.526827    36A     -0.497920
      37A     -0.496082    38A     -0.485962    39A     -0.482216
      40A     -0.468277    41A     -0.458634    42A     -0.370432
      43A     -0.294632    44A     -0.276726

    Virtual:

      45A      0.125212    46A      0.166810    47A      0.176305
      48A      0.181928    49A      0.191206    50A      0.207506
      51A      0.219005    52A      0.227820    53A      0.235472
      54A      0.241056    55A      0.255836    56A      0.266965
      57A      0.273749    58A      0.279373    59A      0.283762
      60A      0.289234    61A      0.298283    62A      0.349325
      63A      0.375864    64A      0.380569    65A      0.392158
      66A      0.406149    67A      0.422093    68A      0.439115
      69A      0.472518    70A      0.482313    71A      0.497278
      72A      0.514484    73A      0.593441    74A      0.598410
      75A      0.604937    76A      0.609588    77A      0.626976
      78A      0.633524    79A      0.643877    80A      0.664996
      81A      0.685125    82A      0.687771    83A      0.699840
      84A      0.711157    85A      0.721343    86A      0.734868
      87A      0.736570    88A      0.743829    89A      0.746558
      90A      0.761745    91A      0.765714    92A      0.767877
      93A      0.787796    94A      0.796812    95A      0.820644
      96A      0.835079    97A      0.844432    98A      0.859775
      99A      0.869542   100A      0.882441   101A      0.886932
     102A      0.890283   103A      0.893553   104A      0.897351
     105A      0.902982   106A      0.909221   107A      0.918718
     108A      0.927307   109A      0.946566   110A      0.950168
     111A      0.955326   112A      0.970314   113A      0.971324
     114A      0.983835   115A      1.003338   116A      1.025187
     117A      1.063389   118A      1.067817   119A      1.091860
     120A      1.109648   121A      1.120338   122A      1.124420
     123A      1.139801   124A      1.147018   125A      1.169139
     126A      1.197228   127A      1.200104   128A      1.227640
     129A      1.233482   130A      1.237770   131A      1.240306
     132A      1.255803   133A      1.266412   134A      1.285136
     135A      1.299157   136A      1.325423   137A      1.337979
     138A      1.358125   139A      1.379765   140A      1.395981
     141A      1.448692   142A      1.475371   143A      1.480780
     144A      1.507732   145A      1.545232   146A      1.571759
     147A      1.579176   148A      1.589163   149A      1.629824
     150A      1.637755   151A      1.657892   152A      1.679983
     153A      1.686829   154A      1.698256   155A      1.703411
     156A      1.736299   157A      1.759975   158A      1.775419
     159A      1.780752   160A      1.813259   161A      1.821239
     162A      1.833622   163A      1.869810   164A      1.875480
     165A      1.882144   166A      1.892268   167A      1.896893
     168A      1.905574   169A      1.916316   170A      1.921487
     171A      1.929344   172A      1.939012   173A      1.944066
     174A      1.945830   175A      1.953725   176A      1.959790
     177A      1.961269   178A      1.974722   179A      1.986890
     180A      1.990135   181A      2.008349   182A      2.014326
     183A      2.048357   184A      2.066801   185A      2.068960
     186A      2.085978   187A      2.096858   188A      2.099280
     189A      2.101375   190A      2.109671   191A      2.122590
     192A      2.139184   193A      2.153515   194A      2.174333
     195A      2.192631   196A      2.219092   197A      2.238565
     198A      2.292325   199A      2.302004   200A      2.303931
     201A      2.313910   202A      2.324925   203A      2.329772
     204A      2.344491   205A      2.387905   206A      2.415850
     207A      2.448814   208A      2.450626   209A      2.465916
     210A      2.470901   211A      2.517848   212A      2.563812
     213A      2.569444   214A      2.577862   215A      2.598223
     216A      2.625590   217A      2.642703   218A      2.668385
     219A      2.705051   220A      2.754919   221A      2.774106
     222A      2.779998   223A      2.787320   224A      2.795150
     225A      2.797857   226A      2.827933   227A      2.846161
     228A      2.861891   229A      2.875478   230A      2.900403
     231A      2.911884   232A      2.946081   233A      2.958790
     234A      2.968388   235A      3.030754   236A      3.038192
     237A      3.067856   238A      3.104006   239A      3.196102
     240A      3.289085   241A      3.359987   242A      3.718213
     243A      3.926295

    Final Occupation by Irrep:
              A
    DOCC [    44 ]

  @RHF Final Energy:  -479.76682268554214

   => Energetics <=

    Nuclear Repulsion Energy =            631.5231054045939345
    One-Electron Energy =               -1901.0017616463485410
    Two-Electron Energy =                 789.7118335562124685
    Total Energy =                       -479.7668226855421381

Computation Completed

Properties will be evaluated at   0.000000,   0.000000,   0.000000 [a0]

Properties computed using the SCF density matrix

  Nuclear Dipole Moment: [e a0]
     X:    14.0068      Y:   -12.4084      Z:    -3.2987

  Electronic Dipole Moment: [e a0]
     X:   -14.2751      Y:    13.1003      Z:     3.6202

  Dipole Moment: [e a0]
     X:    -0.2683      Y:     0.6919      Z:     0.3215     Total:     0.8087

  Dipole Moment: [D]
     X:    -0.6820      Y:     1.7586      Z:     0.8172     Total:     2.0556

*** tstop() called on ds3 at Mon Apr 27 22:37:58 2020
Module time:
	user time   =     161.46 seconds =       2.69 minutes
	system time =      79.40 seconds =       1.32 minutes
	total time  =        250 seconds =       4.17 minutes
Total time:
	user time   =     161.46 seconds =       2.69 minutes
	system time =      79.40 seconds =       1.32 minutes
	total time  =        250 seconds =       4.17 minutes
                                     G D M A

                                 by Anthony Stone

                           version 2.2.06, 22 June 2011

               Distributed Multipoles from Gaussian wavefunctions

Starting at 22:37:58 on 27 Apr 2020

Using SCF density matrix from file ./SSI/SSI-113TRP-126ALA-1-dimer.test.31296.fchk

                         Distributed Multipole Analysis

Standard DMA

Positions and radii in angstrom
Multipole moments in atomic units, ea_0^k for rank k

C          x = -1.387979  y =  2.071151  z = -2.741312 angstrom
           Maximum rank =  0   Radius =  0.650 angstrom
                   Q00  =  -0.208003

C          x = -0.813979  y =  0.745151  z = -0.508312 angstrom
           Maximum rank =  0   Radius =  0.650 angstrom
                   Q00  =  -0.066964

C          x = -1.453979  y =  1.811151  z = -1.266312 angstrom
           Maximum rank =  0   Radius =  0.650 angstrom
                   Q00  =  -0.122428

C          x = -1.031979  y =  1.026151  z =  0.869688 angstrom
           Maximum rank =  0   Radius =  0.650 angstrom
                   Q00  =   0.280411

C          x = -2.027979  y =  2.630151  z = -0.353312 angstrom
           Maximum rank =  0   Radius =  0.650 angstrom
                   Q00  =   0.087212

C          x =  0.424021  y = -1.235849  z =  0.179688 angstrom
           Maximum rank =  0   Radius =  0.650 angstrom
                   Q00  =  -0.100413

C          x =  0.182021  y = -0.921849  z =  1.524688 angstrom
           Maximum rank =  0   Radius =  0.650 angstrom
                   Q00  =  -0.036717

C          x = -0.063979  y = -0.402849  z = -0.847312 angstrom
           Maximum rank =  0   Radius =  0.650 angstrom
                   Q00  =  -0.089094

C          x = -0.542979  y =  0.207151  z =  1.879688 angstrom
           Maximum rank =  0   Radius =  0.650 angstrom
                   Q00  =  -0.121539

N          x = -1.776979  y =  2.182151  z =  0.928688 angstrom
           Maximum rank =  0   Radius =  0.650 angstrom
                   Q00  =  -0.509563

H          x =  0.994021  y = -2.117849  z = -0.076312 angstrom
           Maximum rank =  0   Radius =  0.325 angstrom
                   Q00  =   0.063395

H          x =  0.563021  y = -1.573849  z =  2.297688 angstrom
           Maximum rank =  0   Radius =  0.325 angstrom
                   Q00  =   0.064739

H          x =  0.145021  y = -0.639849  z = -1.877312 angstrom
           Maximum rank =  0   Radius =  0.325 angstrom
                   Q00  =   0.070025

H          x = -0.750979  y =  0.434151  z =  2.915688 angstrom
           Maximum rank =  0   Radius =  0.325 angstrom
                   Q00  =   0.072191

H          x = -0.362979  y =  2.055151  z = -3.082312 angstrom
           Maximum rank =  0   Radius =  0.325 angstrom
                   Q00  =   0.102971

H          x = -1.742979  y =  3.092151  z = -2.891312 angstrom
           Maximum rank =  0   Radius =  0.325 angstrom
                   Q00  =   0.097064

H          x = -2.553979  y =  3.538151  z = -0.609312 angstrom
           Maximum rank =  0   Radius =  0.325 angstrom
                   Q00  =   0.100804

H          x = -1.977979  y =  2.720151  z =  1.774688 angstrom
           Maximum rank =  0   Radius =  0.325 angstrom
                   Q00  =   0.218338

H          x = -1.977269  y =  1.401741  z = -3.385229 angstrom
           Maximum rank =  0   Radius =  0.325 angstrom
                   Q00  =   0.097453

C          x =  3.486021  y = -3.405849  z =  0.898688 angstrom
           Maximum rank =  0   Radius =  0.650 angstrom
                   Q00  =  -0.241573

C          x =  4.050021  y = -3.959849  z = -0.424312 angstrom
           Maximum rank =  0   Radius =  0.650 angstrom
                   Q00  =  -0.240337

H          x =  2.428021  y = -3.651849  z =  0.989688 angstrom
           Maximum rank =  0   Radius =  0.325 angstrom
                   Q00  =   0.077330

H          x =  4.022021  y = -3.837849  z =  1.743688 angstrom
           Maximum rank =  0   Radius =  0.325 angstrom
                   Q00  =   0.080684

H          x =  3.604021  y = -2.321849  z =  0.922688 angstrom
           Maximum rank =  0   Radius =  0.325 angstrom
                   Q00  =   0.085027

H          x =  5.130021  y = -3.801849  z = -0.447312 angstrom
           Maximum rank =  0   Radius =  0.325 angstrom
                   Q00  =   0.082171

H          x =  3.564191  y = -3.486749  z = -1.290420 angstrom
           Maximum rank =  0   Radius =  0.325 angstrom
                   Q00  =   0.079759

H          x =  3.851421  y = -5.039089  z = -0.500417 angstrom
           Maximum rank =  0   Radius =  0.325 angstrom
                   Q00  =   0.077057

Total multipoles referred to origin at
           x =   0.000000,  y =    0.000000,  z =    0.000000 angstrom
                   Q00  =  -0.000000

Finished at 22:37:58 on 27 Apr 2020

  DMA results are available in the Python driver through the
	  variable('DMA DISTRIBUTED MULTIPOLES')
  and
	  variable('DMA TOTAL MULTIPOLES')
  commands.

    Psi4 stopped on: Monday, 27 April 2020 10:37PM
    Psi4 wall time for execution: 0:04:09.86

*** Psi4 exiting successfully. Buy a developer a beer!
