                               Psi4 1.3.2 release

  ==> Input File <==

--------------------------------------------------------------------------
import numpy as np
set {scf_type pk
basis cc-pvdz
d_convergence 10
gdma_switch   0
gdma_limit    0
gdma_origin   [ 0.0,  0.0,  0.0 ]
}
molecule test {
    units Angstrom
    0 1
    --
    0 1
    C               -1.714578551348043     0.515274844813547    -1.484230858943043
    C               -0.479578551348043     1.217274844813548    -2.022230858943042
    O               -0.571578551348043     2.092274844813547    -2.881230858943043
    N                0.681421448651957     0.856274844813547    -1.500230858943043
    H                1.533421448651957     1.254274844813547    -1.858230858943043
    H                0.696421448651957     0.101274844813547    -0.818230858943043
    H               -2.170578551348043     1.174274844813547    -0.759230858943043
    H               -1.438578551348043    -0.410725155186453    -0.984230858943043
    H               -2.451668551348043     0.286594844813547    -2.268070858943042
    C               -0.570578551348043    -1.440725155186453     2.892769141056958
    C                0.512421448651957    -1.150725155186452     1.880769141056957
    O                0.284421448651957    -1.152725155186453     0.672769141056957
    N                1.720421448651957    -0.926725155186453     2.368769141056957
    H               -0.306578551348043    -0.994725155186453     3.849769141056957
    H               -0.597578551348043    -2.521725155186453     3.026769141056957
    H                2.463421448651957    -0.672725155186453     1.739769141056957
    H                1.840421448651957    -0.842725155186453     3.373769141056957
    H               -1.565438551348043    -1.079485155186452     2.593169141056957

}
e, wfn = energy('scf', return_wfn=True)
gdma(wfn)
dmavals = variable('DMA DISTRIBUTED MULTIPOLES')
charges = np.array(dmavals)
print(charges)
np.save('SSI-013ASN-149ASN-1-dimer.npy', np.array(charges))--------------------------------------------------------------------------

*** tstart() called on ds3
*** at Mon Apr 27 23:55:36 2020

   => Loading Basis Set <=

    Name: CC-PVDZ
    Role: ORBITAL
    Keyword: BASIS
    atoms 1-2, 10-11 entry C          line   138 file /theoryfs2/ds/metcalf/miniconda2/envs/tf2gpu/share/psi4/basis/cc-pvdz.gbs
    atoms 3, 12      entry O          line   198 file /theoryfs2/ds/metcalf/miniconda2/envs/tf2gpu/share/psi4/basis/cc-pvdz.gbs
    atoms 4, 13      entry N          line   168 file /theoryfs2/ds/metcalf/miniconda2/envs/tf2gpu/share/psi4/basis/cc-pvdz.gbs
    atoms 5-9, 14-18 entry H          line    22 file /theoryfs2/ds/metcalf/miniconda2/envs/tf2gpu/share/psi4/basis/cc-pvdz.gbs

         ---------------------------------------------------------
                                   SCF
               by Justin Turney, Rob Parrish, Andy Simmonett
                          and Daniel G. A. Smith
                              RHF Reference
                        1 Threads,    500 MiB Core
         ---------------------------------------------------------

  ==> Geometry <==

    Molecular point group: c1
    Full point group: C1

    Geometry (in Angstrom), charge = 0, multiplicity = 1:

       Center              X                  Y                   Z               Mass
    ------------   -----------------  -----------------  -----------------  -----------------
         C           -1.714578551348     0.515274844814    -1.484230858943    12.000000000000
         C           -0.479578551348     1.217274844814    -2.022230858943    12.000000000000
         O           -0.571578551348     2.092274844814    -2.881230858943    15.994914619570
         N            0.681421448652     0.856274844814    -1.500230858943    14.003074004430
         H            1.533421448652     1.254274844814    -1.858230858943     1.007825032230
         H            0.696421448652     0.101274844814    -0.818230858943     1.007825032230
         H           -2.170578551348     1.174274844814    -0.759230858943     1.007825032230
         H           -1.438578551348    -0.410725155186    -0.984230858943     1.007825032230
         H           -2.451668551348     0.286594844814    -2.268070858943     1.007825032230
         C           -0.570578551348    -1.440725155186     2.892769141057    12.000000000000
         C            0.512421448652    -1.150725155186     1.880769141057    12.000000000000
         O            0.284421448652    -1.152725155186     0.672769141057    15.994914619570
         N            1.720421448652    -0.926725155186     2.368769141057    14.003074004430
         H           -0.306578551348    -0.994725155186     3.849769141057     1.007825032230
         H           -0.597578551348    -2.521725155186     3.026769141057     1.007825032230
         H            2.463421448652    -0.672725155186     1.739769141057     1.007825032230
         H            1.840421448652    -0.842725155186     3.373769141057     1.007825032230
         H           -1.565438551348    -1.079485155186     2.593169141057     1.007825032230

  Running in c1 symmetry.

  Rotational constants: A =      0.14218  B =      0.02282  C =      0.02044 [cm^-1]
  Rotational constants: A =   4262.30043  B =    684.25565  C =    612.78422 [MHz]
  Nuclear repulsion =  361.987222027342398

  Charge       = 0
  Multiplicity = 1
  Electrons    = 64
  Nalpha       = 32
  Nbeta        = 32

  ==> Algorithm <==

  SCF Algorithm Type is PK.
  DIIS enabled.
  MOM disabled.
  Fractional occupation disabled.
  Guess Type is SAD.
  Energy threshold   = 1.00e-06
  Density threshold  = 1.00e-10
  Integral threshold = 0.00e+00

  ==> Primary Basis <==

  Basis Set: CC-PVDZ
    Blend: CC-PVDZ
    Number of shells: 78
    Number of basis function: 162
    Number of Cartesian functions: 170
    Spherical Harmonics?: true
    Max angular momentum: 2

  ==> Pre-Iterations <==

   -------------------------------------------------------
    Irrep   Nso     Nmo     Nalpha   Nbeta   Ndocc  Nsocc
   -------------------------------------------------------
     A        162     162       0       0       0       0
   -------------------------------------------------------
    Total     162     162      32      32      32       0
   -------------------------------------------------------

  ==> Integral Setup <==

  Using integral reordering PK algorithm.
  Sizing the integral batches needed.
  Building batch lookup table.
   Calculation information:
      Number of atoms:                  18
      Number of AO shells:              78
      Number of primitives:            226
      Number of atomic orbitals:       170
      Number of basis functions:       162

      Integral cutoff                 1.00e-12
      Number of threads:                 1

	Batch   1 pq = [       0,    9405] index = [             0,44231715] size =     44231715
	Batch   2 pq = [    9405,   13203] index = [      44231715,87166206] size =     42934491
  Task number: 8
  Buffer size: 11059200
  Buffer per thread: 2
  We computed 3650591 shell quartets total.
  Whereas there are 4747821 unique shell quartets.

  ==> DiskJK: Disk-Based J/K Matrices <==

    J tasked:                  Yes
    K tasked:                  Yes
    wK tasked:                  No
    Memory [MiB]:              375
    Schwarz Cutoff:          1E-12

    OpenMP threads:              1

  Minimum eigenvalue in the overlap matrix is 4.5386877414E-03.
  Using Symmetric Orthogonalization.

  SCF Guess: Superposition of Atomic Densities via on-the-fly atomic UHF.

  ==> Iterations <==

                        Total Energy        Delta E     RMS |[F,P]|

   @RHF iter SAD:  -414.58668080329494   -4.14587e+02   0.00000e+00
   @RHF iter   1:  -415.71442776166697   -1.12775e+00   4.61744e-03 DIIS
   @RHF iter   2:  -415.92578706183724   -2.11359e-01   2.65079e-03 DIIS
   @RHF iter   3:  -415.99153409300391   -6.57470e-02   5.04164e-04 DIIS
   @RHF iter   4:  -415.99560195377933   -4.06786e-03   1.94350e-04 DIIS
   @RHF iter   5:  -415.99629747292124   -6.95519e-04   3.58985e-05 DIIS
   @RHF iter   6:  -415.99634534154950   -4.78686e-05   1.79998e-05 DIIS
   @RHF iter   7:  -415.99635394956306   -8.60801e-06   6.64294e-06 DIIS
   @RHF iter   8:  -415.99635572109088   -1.77153e-06   1.95573e-06 DIIS
   @RHF iter   9:  -415.99635588193348   -1.60843e-07   4.25764e-07 DIIS
   @RHF iter  10:  -415.99635588849333   -6.55984e-09   1.42142e-07 DIIS
   @RHF iter  11:  -415.99635588883314   -3.39810e-10   5.15768e-08 DIIS
   @RHF iter  12:  -415.99635588888691   -5.37739e-11   1.30475e-08 DIIS
   @RHF iter  13:  -415.99635588889322   -6.30962e-12   3.42766e-09 DIIS
   @RHF iter  14:  -415.99635588889146    1.76215e-12   1.26592e-09 DIIS
   @RHF iter  15:  -415.99635588889248   -1.02318e-12   3.72097e-10 DIIS
   @RHF iter  16:  -415.99635588889367   -1.19371e-12   1.40017e-10 DIIS
   @RHF iter  17:  -415.99635588889146    2.21689e-12   4.73133e-11 DIIS
  Energy and wave function converged.

  ==> Post-Iterations <==

    Orbital Energies [Eh]
    ---------------------

    Doubly Occupied:

       1A    -20.535704     2A    -20.471979     3A    -15.615320
       4A    -15.551501     5A    -11.377447     6A    -11.317203
       7A    -11.262963     8A    -11.210088     9A     -1.400576
      10A     -1.336667    11A     -1.245968    12A     -1.183453
      13A     -1.024259    14A     -0.969317    15A     -0.825800
      16A     -0.767325    17A     -0.753222    18A     -0.706382
      19A     -0.673842    20A     -0.637841    21A     -0.624949
      22A     -0.600562    23A     -0.583033    24A     -0.580095
      25A     -0.548595    26A     -0.536722    27A     -0.524847
      28A     -0.492885    29A     -0.442060    30A     -0.435374
      31A     -0.379323    32A     -0.371900

    Virtual:

      33A      0.143981    34A      0.174110    35A      0.193353
      36A      0.199469    37A      0.223608    38A      0.226808
      39A      0.239693    40A      0.260604    41A      0.263868
      42A      0.298695    43A      0.313976    44A      0.348242
      45A      0.363104    46A      0.411524    47A      0.474354
      48A      0.499470    49A      0.534452    50A      0.594301
      51A      0.610555    52A      0.633215    53A      0.647634
      54A      0.672087    55A      0.694987    56A      0.704310
      57A      0.719491    58A      0.726550    59A      0.735680
      60A      0.753096    61A      0.768494    62A      0.787055
      63A      0.814404    64A      0.845396    65A      0.863547
      66A      0.878468    67A      0.888508    68A      0.900361
      69A      0.910951    70A      0.928181    71A      0.952862
      72A      0.970248    73A      0.978522    74A      0.986076
      75A      1.025898    76A      1.042763    77A      1.053352
      78A      1.098374    79A      1.113321    80A      1.150066
      81A      1.177342    82A      1.243089    83A      1.289299
      84A      1.322480    85A      1.358876    86A      1.376076
      87A      1.384016    88A      1.389651    89A      1.402062
      90A      1.423829    91A      1.454645    92A      1.462320
      93A      1.467684    94A      1.494320    95A      1.536114
      96A      1.537017    97A      1.622150    98A      1.634527
      99A      1.673336   100A      1.686793   101A      1.701456
     102A      1.755494   103A      1.792385   104A      1.831900
     105A      1.843179   106A      1.864747   107A      1.874466
     108A      1.884200   109A      1.912269   110A      1.922671
     111A      1.930177   112A      1.937003   113A      1.955779
     114A      1.965589   115A      1.988502   116A      2.016950
     117A      2.038469   118A      2.044395   119A      2.079792
     120A      2.139633   121A      2.159116   122A      2.186866
     123A      2.221921   124A      2.246808   125A      2.260572
     126A      2.329672   127A      2.382061   128A      2.425755
     129A      2.444401   130A      2.447118   131A      2.483777
     132A      2.507558   133A      2.526439   134A      2.548000
     135A      2.596216   136A      2.599196   137A      2.635438
     138A      2.666290   139A      2.714305   140A      2.738760
     141A      2.769342   142A      2.782759   143A      2.812305
     144A      2.854212   145A      2.857532   146A      2.884031
     147A      2.945443   148A      3.003781   149A      3.061203
     150A      3.109322   151A      3.126648   152A      3.162125
     153A      3.252230   154A      3.348053   155A      3.458236
     156A      3.523308   157A      3.525571   158A      3.577830
     159A      3.845871   160A      3.893304   161A      3.926312
     162A      3.942210

    Final Occupation by Irrep:
              A
    DOCC [    32 ]

  @RHF Final Energy:  -415.99635588889146

   => Energetics <=

    Nuclear Repulsion Energy =            361.9872220273423977
    One-Electron Energy =               -1285.9927515591487008
    Two-Electron Energy =                 508.0091736429149023
    Total Energy =                       -415.9963558888914577

Computation Completed

Properties will be evaluated at   0.000000,   0.000000,   0.000000 [a0]

Properties computed using the SCF density matrix

  Nuclear Dipole Moment: [e a0]
     X:    -1.8802      Y:    -3.4693      Z:     7.3884

  Electronic Dipole Moment: [e a0]
     X:     3.0157      Y:     2.1305      Z:    -4.1584

  Dipole Moment: [e a0]
     X:     1.1355      Y:    -1.3388      Z:     3.2300     Total:     3.6762

  Dipole Moment: [D]
     X:     2.8861      Y:    -3.4029      Z:     8.2098     Total:     9.3440

*** tstop() called on ds3 at Mon Apr 27 23:56:47 2020
Module time:
	user time   =      27.67 seconds =       0.46 minutes
	system time =      11.53 seconds =       0.19 minutes
	total time  =         71 seconds =       1.18 minutes
Total time:
	user time   =      27.67 seconds =       0.46 minutes
	system time =      11.53 seconds =       0.19 minutes
	total time  =         71 seconds =       1.18 minutes
                                     G D M A

                                 by Anthony Stone

                           version 2.2.06, 22 June 2011

               Distributed Multipoles from Gaussian wavefunctions

Starting at 23:56:47 on 27 Apr 2020

Using SCF density matrix from file ./SSI/SSI-013ASN-149ASN-1-dimer.test.4500.fchk

                         Distributed Multipole Analysis

Standard DMA

Positions and radii in angstrom
Multipole moments in atomic units, ea_0^k for rank k

C          x = -1.714579  y =  0.515275  z = -1.484231 angstrom
           Maximum rank =  0   Radius =  0.650 angstrom
                   Q00  =  -0.271197

C          x = -0.479579  y =  1.217275  z = -2.022231 angstrom
           Maximum rank =  0   Radius =  0.650 angstrom
                   Q00  =   0.823781

O          x = -0.571579  y =  2.092275  z = -2.881231 angstrom
           Maximum rank =  0   Radius =  0.650 angstrom
                   Q00  =  -0.820437

N          x =  0.681421  y =  0.856275  z = -1.500231 angstrom
           Maximum rank =  0   Radius =  0.650 angstrom
                   Q00  =  -0.537868

H          x =  1.533421  y =  1.254275  z = -1.858231 angstrom
           Maximum rank =  0   Radius =  0.325 angstrom
                   Q00  =   0.202879

H          x =  0.696421  y =  0.101275  z = -0.818231 angstrom
           Maximum rank =  0   Radius =  0.325 angstrom
                   Q00  =   0.241207

H          x = -2.170579  y =  1.174275  z = -0.759231 angstrom
           Maximum rank =  0   Radius =  0.325 angstrom
                   Q00  =   0.119633

H          x = -1.438579  y = -0.410725  z = -0.984231 angstrom
           Maximum rank =  0   Radius =  0.325 angstrom
                   Q00  =   0.101402

H          x = -2.451669  y =  0.286595  z = -2.268071 angstrom
           Maximum rank =  0   Radius =  0.325 angstrom
                   Q00  =   0.116193

C          x = -0.570579  y = -1.440725  z =  2.892769 angstrom
           Maximum rank =  0   Radius =  0.650 angstrom
                   Q00  =  -0.259443

C          x =  0.512421  y = -1.150725  z =  1.880769 angstrom
           Maximum rank =  0   Radius =  0.650 angstrom
                   Q00  =   0.820439

O          x =  0.284421  y = -1.152725  z =  0.672769 angstrom
           Maximum rank =  0   Radius =  0.650 angstrom
                   Q00  =  -0.804899

N          x =  1.720421  y = -0.926725  z =  2.368769 angstrom
           Maximum rank =  0   Radius =  0.650 angstrom
                   Q00  =  -0.530833

H          x = -0.306579  y = -0.994725  z =  3.849769 angstrom
           Maximum rank =  0   Radius =  0.325 angstrom
                   Q00  =   0.081377

H          x = -0.597579  y = -2.521725  z =  3.026769 angstrom
           Maximum rank =  0   Radius =  0.325 angstrom
                   Q00  =   0.137131

H          x =  2.463421  y = -0.672725  z =  1.739769 angstrom
           Maximum rank =  0   Radius =  0.325 angstrom
                   Q00  =   0.227545

H          x =  1.840421  y = -0.842725  z =  3.373769 angstrom
           Maximum rank =  0   Radius =  0.325 angstrom
                   Q00  =   0.214392

H          x = -1.565439  y = -1.079485  z =  2.593169 angstrom
           Maximum rank =  0   Radius =  0.325 angstrom
                   Q00  =   0.138696

Total multipoles referred to origin at
           x =   0.000000,  y =    0.000000,  z =    0.000000 angstrom
                   Q00  =  -0.000000

Finished at 23:56:47 on 27 Apr 2020

  DMA results are available in the Python driver through the
	  variable('DMA DISTRIBUTED MULTIPOLES')
  and
	  variable('DMA TOTAL MULTIPOLES')
  commands.

    Psi4 stopped on: Monday, 27 April 2020 11:56PM
    Psi4 wall time for execution: 0:01:10.88

*** Psi4 exiting successfully. Buy a developer a beer!
