                               Psi4 1.3.2 release

  ==> Input File <==

--------------------------------------------------------------------------
import numpy as np
set {scf_type pk
basis cc-pvdz
d_convergence 10
gdma_switch   0
gdma_limit    0
gdma_origin   [ 0.0,  0.0,  0.0 ]
}
molecule test {
    units Angstrom
    0 1
    --
    0 1
    C                1.233595777280479     0.447243030693795    -0.868023745117120
    C                0.983595777280479    -0.519756969306205    -2.033023745117120
    C                1.820595777280479    -0.232756969306205     0.414976254882880
    C                2.103595777280479     1.595243030693795    -1.322023745117120
    H                0.280595777280479     0.877243030693795    -0.575023745117120
    H                0.263595777280479    -1.263756969306205    -1.683023745117120
    H                2.854595777280478    -0.504756969306205     0.212976254882880
    H                1.794595777280479     0.469243030693795     1.249976254882880
    H                1.231595777280479    -1.117756969306205     0.666976254882880
    H                1.593595777280479     2.186243030693795    -2.083023745117120
    H                2.293595777280478     2.254243030693795    -0.472023745117120
    H                3.064595777280479     1.237243030693795    -1.696023745117120
    H                1.905875777280479    -1.016947069306205    -2.367988745117120
    H                0.497445777280479     0.028410530693795    -2.853492745117120
    C               -1.887404222719521     0.172243030693795     1.236976254882880
    C               -1.936404222719521    -0.776756969306205     2.426976254882880
    O               -1.959404222719521    -0.561756969306205     0.041976254882880
    H               -2.687404222719521     0.907243030693795     1.298976254882880
    H               -0.938404222719521     0.706243030693795     1.255976254882880
    H               -1.259404222719521    -1.612756969306205     2.233976254882880
    H               -2.834404222719521    -0.961756969306205    -0.068023745117120
    H               -2.957644222719521    -1.155326569306205     2.581096254882880
    H               -1.600624222719521    -0.279195669306205     3.348756254882880

}
e, wfn = energy('scf', return_wfn=True)
gdma(wfn)
dmavals = variable('DMA DISTRIBUTED MULTIPOLES')
charges = np.array(dmavals)
print(charges)
np.save('SSI-007VAL-022SER-1-dimer.npy', np.array(charges))--------------------------------------------------------------------------

*** tstart() called on ds3
*** at Sun Apr 26 17:41:40 2020

   => Loading Basis Set <=

    Name: CC-PVDZ
    Role: ORBITAL
    Keyword: BASIS
    atoms 1-4, 15-16  entry C          line   138 file /theoryfs2/ds/metcalf/miniconda2/envs/tf2gpu/share/psi4/basis/cc-pvdz.gbs
    atoms 5-14, 18-23 entry H          line    22 file /theoryfs2/ds/metcalf/miniconda2/envs/tf2gpu/share/psi4/basis/cc-pvdz.gbs
    atoms 17          entry O          line   198 file /theoryfs2/ds/metcalf/miniconda2/envs/tf2gpu/share/psi4/basis/cc-pvdz.gbs

         ---------------------------------------------------------
                                   SCF
               by Justin Turney, Rob Parrish, Andy Simmonett
                          and Daniel G. A. Smith
                              RHF Reference
                        1 Threads,    500 MiB Core
         ---------------------------------------------------------

  ==> Geometry <==

    Molecular point group: c1
    Full point group: C1

    Geometry (in Angstrom), charge = 0, multiplicity = 1:

       Center              X                  Y                   Z               Mass
    ------------   -----------------  -----------------  -----------------  -----------------
         C            1.233595777280     0.447243030694    -0.868023745117    12.000000000000
         C            0.983595777280    -0.519756969306    -2.033023745117    12.000000000000
         C            1.820595777280    -0.232756969306     0.414976254883    12.000000000000
         C            2.103595777280     1.595243030694    -1.322023745117    12.000000000000
         H            0.280595777280     0.877243030694    -0.575023745117     1.007825032230
         H            0.263595777280    -1.263756969306    -1.683023745117     1.007825032230
         H            2.854595777280    -0.504756969306     0.212976254883     1.007825032230
         H            1.794595777280     0.469243030694     1.249976254883     1.007825032230
         H            1.231595777280    -1.117756969306     0.666976254883     1.007825032230
         H            1.593595777280     2.186243030694    -2.083023745117     1.007825032230
         H            2.293595777280     2.254243030694    -0.472023745117     1.007825032230
         H            3.064595777280     1.237243030694    -1.696023745117     1.007825032230
         H            1.905875777280    -1.016947069306    -2.367988745117     1.007825032230
         H            0.497445777280     0.028410530694    -2.853492745117     1.007825032230
         C           -1.887404222720     0.172243030694     1.236976254883    12.000000000000
         C           -1.936404222720    -0.776756969306     2.426976254883    12.000000000000
         O           -1.959404222720    -0.561756969306     0.041976254883    15.994914619570
         H           -2.687404222720     0.907243030694     1.298976254883     1.007825032230
         H           -0.938404222720     0.706243030694     1.255976254883     1.007825032230
         H           -1.259404222720    -1.612756969306     2.233976254883     1.007825032230
         H           -2.834404222720    -0.961756969306    -0.068023745117     1.007825032230
         H           -2.957644222720    -1.155326569306     2.581096254883     1.007825032230
         H           -1.600624222720    -0.279195669306     3.348756254883     1.007825032230

  Running in c1 symmetry.

  Rotational constants: A =      0.11845  B =      0.03131  C =      0.02894 [cm^-1]
  Rotational constants: A =   3550.96914  B =    938.58448  C =    867.51470 [MHz]
  Nuclear repulsion =  323.247479055521353

  Charge       = 0
  Multiplicity = 1
  Electrons    = 60
  Nalpha       = 30
  Nbeta        = 30

  ==> Algorithm <==

  SCF Algorithm Type is PK.
  DIIS enabled.
  MOM disabled.
  Fractional occupation disabled.
  Guess Type is SAD.
  Energy threshold   = 1.00e-06
  Density threshold  = 1.00e-10
  Integral threshold = 0.00e+00

  ==> Primary Basis <==

  Basis Set: CC-PVDZ
    Blend: CC-PVDZ
    Number of shells: 90
    Number of basis function: 178
    Number of Cartesian functions: 185
    Spherical Harmonics?: true
    Max angular momentum: 2

  ==> Pre-Iterations <==

   -------------------------------------------------------
    Irrep   Nso     Nmo     Nalpha   Nbeta   Ndocc  Nsocc
   -------------------------------------------------------
     A        178     178       0       0       0       0
   -------------------------------------------------------
    Total     178     178      30      30      30       0
   -------------------------------------------------------

  ==> Integral Setup <==

  Using integral reordering PK algorithm.
  Sizing the integral batches needed.
  Building batch lookup table.
   Calculation information:
      Number of atoms:                  23
      Number of AO shells:              90
      Number of primitives:            234
      Number of atomic orbitals:       185
      Number of basis functions:       178

      Integral cutoff                 1.00e-12
      Number of threads:                 1

	Batch   1 pq = [       0,    9405] index = [             0,44231715] size =     44231715
	Batch   2 pq = [    9405,   13301] index = [      44231715,88464951] size =     44233236
	Batch   3 pq = [   13301,   15931] index = [      88464951,126906346] size =     38441395
  Task number: 12
  Buffer size: 11059200
  Buffer per thread: 2
  We computed 7955835 shell quartets total.
  Whereas there are 8386560 unique shell quartets.

  ==> DiskJK: Disk-Based J/K Matrices <==

    J tasked:                  Yes
    K tasked:                  Yes
    wK tasked:                  No
    Memory [MiB]:              375
    Schwarz Cutoff:          1E-12

    OpenMP threads:              1

  Minimum eigenvalue in the overlap matrix is 4.6075182168E-03.
  Using Symmetric Orthogonalization.

  SCF Guess: Superposition of Atomic Densities via on-the-fly atomic UHF.

  ==> Iterations <==

                        Total Energy        Delta E     RMS |[F,P]|

   @RHF iter SAD:  -310.13906654933999   -3.10139e+02   0.00000e+00
   @RHF iter   1:  -311.14811023751736   -1.00904e+00   3.52601e-03 DIIS
   @RHF iter   2:  -311.35452927017622   -2.06419e-01   1.62134e-03 DIIS
   @RHF iter   3:  -311.39346457287877   -3.89353e-02   3.32583e-04 DIIS
   @RHF iter   4:  -311.39636056664324   -2.89599e-03   1.02201e-04 DIIS
   @RHF iter   5:  -311.39654417009672   -1.83603e-04   1.94343e-05 DIIS
   @RHF iter   6:  -311.39655342377768   -9.25368e-06   5.15125e-06 DIIS
   @RHF iter   7:  -311.39655409355333   -6.69776e-07   1.43308e-06 DIIS
   @RHF iter   8:  -311.39655415458117   -6.10278e-08   4.20549e-07 DIIS
   @RHF iter   9:  -311.39655416160895   -7.02778e-09   1.01291e-07 DIIS
   @RHF iter  10:  -311.39655416205119   -4.42242e-10   2.79682e-08 DIIS
   @RHF iter  11:  -311.39655416208217   -3.09797e-11   7.84976e-09 DIIS
   @RHF iter  12:  -311.39655416208342   -1.25056e-12   2.43559e-09 DIIS
   @RHF iter  13:  -311.39655416208433   -9.09495e-13   6.93131e-10 DIIS
   @RHF iter  14:  -311.39655416208393    3.97904e-13   1.94601e-10 DIIS
   @RHF iter  15:  -311.39655416208387    5.68434e-14   6.81136e-11 DIIS
  Energy and wave function converged.

  ==> Post-Iterations <==

    Orbital Energies [Eh]
    ---------------------

    Doubly Occupied:

       1A    -20.553483     2A    -11.276320     3A    -11.222910
       4A    -11.212347     5A    -11.209542     6A    -11.203751
       7A    -11.203300     8A     -1.359963     9A     -1.068185
      10A     -1.009622    11A     -0.918099    12A     -0.914378
      13A     -0.846478    14A     -0.751797    15A     -0.691059
      16A     -0.632132    17A     -0.615241    18A     -0.601829
      19A     -0.578581    20A     -0.574504    21A     -0.541143
      22A     -0.530257    23A     -0.527229    24A     -0.521219
      25A     -0.499053    26A     -0.476460    27A     -0.450481
      28A     -0.444084    29A     -0.439409    30A     -0.437328

    Virtual:

      31A      0.167659    32A      0.191580    33A      0.209349
      34A      0.219271    35A      0.235372    36A      0.242979
      37A      0.250527    38A      0.253654    39A      0.266021
      40A      0.274754    41A      0.290306    42A      0.302442
      43A      0.313130    44A      0.317507    45A      0.338012
      46A      0.359089    47A      0.366160    48A      0.396027
      49A      0.411394    50A      0.413223    51A      0.432378
      52A      0.577710    53A      0.580417    54A      0.606712
      55A      0.612579    56A      0.621161    57A      0.636758
      58A      0.653429    59A      0.677270    60A      0.740322
      61A      0.764889    62A      0.772054    63A      0.790485
      64A      0.801614    65A      0.827730    66A      0.833432
      67A      0.849300    68A      0.863680    69A      0.878929
      70A      0.881920    71A      0.895885    72A      0.899538
      73A      0.902395    74A      0.908356    75A      0.919735
      76A      0.924225    77A      0.926962    78A      0.936334
      79A      0.941086    80A      0.945831    81A      0.967836
      82A      0.985794    83A      0.993549    84A      1.025182
      85A      1.026603    86A      1.129507    87A      1.132413
      88A      1.145072    89A      1.175926    90A      1.194066
      91A      1.204740    92A      1.298960    93A      1.330510
      94A      1.365268    95A      1.385855    96A      1.415731
      97A      1.451174    98A      1.481757    99A      1.524125
     100A      1.547981   101A      1.568810   102A      1.603782
     103A      1.644404   104A      1.662428   105A      1.681565
     106A      1.686560   107A      1.696080   108A      1.705921
     109A      1.719588   110A      1.740222   111A      1.744696
     112A      1.776753   113A      1.840248   114A      1.845689
     115A      1.860662   116A      1.870147   117A      1.884564
     118A      1.907515   119A      1.922047   120A      1.925493
     121A      1.937038   122A      1.956627   123A      1.965544
     124A      1.968490   125A      1.970564   126A      1.980595
     127A      1.990357   128A      2.002883   129A      2.017993
     130A      2.033207   131A      2.057300   132A      2.067040
     133A      2.086122   134A      2.098409   135A      2.130113
     136A      2.149898   137A      2.162917   138A      2.187500
     139A      2.240483   140A      2.253052   141A      2.266709
     142A      2.298040   143A      2.312348   144A      2.324575
     145A      2.346884   146A      2.351093   147A      2.383492
     148A      2.390630   149A      2.440625   150A      2.480761
     151A      2.498085   152A      2.533892   153A      2.571367
     154A      2.594451   155A      2.614399   156A      2.635923
     157A      2.723703   158A      2.734472   159A      2.750696
     160A      2.768289   161A      2.779525   162A      2.790750
     163A      2.800352   164A      2.815529   165A      2.821180
     166A      2.838007   167A      2.856872   168A      2.871307
     169A      2.896240   170A      2.922205   171A      3.010547
     172A      3.032454   173A      3.116794   174A      3.310551
     175A      3.410875   176A      3.468238   177A      3.661192
     178A      4.113204

    Final Occupation by Irrep:
              A
    DOCC [    30 ]

  @RHF Final Energy:  -311.39655416208387

   => Energetics <=

    Nuclear Repulsion Energy =            323.2474790555213531
    One-Electron Energy =               -1062.6676904028413446
    Two-Electron Energy =                 428.0236571852361180
    Total Energy =                       -311.3965541620838735

Computation Completed

Properties will be evaluated at   0.000000,   0.000000,   0.000000 [a0]

Properties computed using the SCF density matrix

  Nuclear Dipole Moment: [e a0]
     X:     3.2738      Y:     0.7040      Z:     0.9846

  Electronic Dipole Moment: [e a0]
     X:    -3.9550      Y:    -0.6800      Z:    -0.5334

  Dipole Moment: [e a0]
     X:    -0.6812      Y:     0.0241      Z:     0.4512     Total:     0.8174

  Dipole Moment: [D]
     X:    -1.7313      Y:     0.0611      Z:     1.1469     Total:     2.0777

*** tstop() called on ds3 at Sun Apr 26 17:43:03 2020
Module time:
	user time   =      43.33 seconds =       0.72 minutes
	system time =      15.95 seconds =       0.27 minutes
	total time  =         83 seconds =       1.38 minutes
Total time:
	user time   =      43.33 seconds =       0.72 minutes
	system time =      15.95 seconds =       0.27 minutes
	total time  =         83 seconds =       1.38 minutes
                                     G D M A

                                 by Anthony Stone

                           version 2.2.06, 22 June 2011

               Distributed Multipoles from Gaussian wavefunctions

Starting at 17:43:3 on 26 Apr 2020

Using SCF density matrix from file ./SSI/SSI-007VAL-022SER-1-dimer.test.3866.fchk

                         Distributed Multipole Analysis

Standard DMA

Positions and radii in angstrom
Multipole moments in atomic units, ea_0^k for rank k

C          x =  1.233596  y =  0.447243  z = -0.868024 angstrom
           Maximum rank =  0   Radius =  0.650 angstrom
                   Q00  =   0.018859

C          x =  0.983596  y = -0.519757  z = -2.033024 angstrom
           Maximum rank =  0   Radius =  0.650 angstrom
                   Q00  =  -0.242790

C          x =  1.820596  y = -0.232757  z =  0.414976 angstrom
           Maximum rank =  0   Radius =  0.650 angstrom
                   Q00  =  -0.258900

C          x =  2.103596  y =  1.595243  z = -1.322024 angstrom
           Maximum rank =  0   Radius =  0.650 angstrom
                   Q00  =  -0.242235

H          x =  0.280596  y =  0.877243  z = -0.575024 angstrom
           Maximum rank =  0   Radius =  0.325 angstrom
                   Q00  =   0.010283

H          x =  0.263596  y = -1.263757  z = -1.683024 angstrom
           Maximum rank =  0   Radius =  0.325 angstrom
                   Q00  =   0.091070

H          x =  2.854596  y = -0.504757  z =  0.212976 angstrom
           Maximum rank =  0   Radius =  0.325 angstrom
                   Q00  =   0.077199

H          x =  1.794596  y =  0.469243  z =  1.249976 angstrom
           Maximum rank =  0   Radius =  0.325 angstrom
                   Q00  =   0.078110

H          x =  1.231596  y = -1.117757  z =  0.666976 angstrom
           Maximum rank =  0   Radius =  0.325 angstrom
                   Q00  =   0.088513

H          x =  1.593596  y =  2.186243  z = -2.083024 angstrom
           Maximum rank =  0   Radius =  0.325 angstrom
                   Q00  =   0.078666

H          x =  2.293596  y =  2.254243  z = -0.472024 angstrom
           Maximum rank =  0   Radius =  0.325 angstrom
                   Q00  =   0.069104

H          x =  3.064596  y =  1.237243  z = -1.696024 angstrom
           Maximum rank =  0   Radius =  0.325 angstrom
                   Q00  =   0.072134

H          x =  1.905876  y = -1.016947  z = -2.367989 angstrom
           Maximum rank =  0   Radius =  0.325 angstrom
                   Q00  =   0.069670

H          x =  0.497446  y =  0.028411  z = -2.853493 angstrom
           Maximum rank =  0   Radius =  0.325 angstrom
                   Q00  =   0.079296

C          x = -1.887404  y =  0.172243  z =  1.236976 angstrom
           Maximum rank =  0   Radius =  0.650 angstrom
                   Q00  =   0.129815

C          x = -1.936404  y = -0.776757  z =  2.426976 angstrom
           Maximum rank =  0   Radius =  0.650 angstrom
                   Q00  =  -0.264477

O          x = -1.959404  y = -0.561757  z =  0.041976 angstrom
           Maximum rank =  0   Radius =  0.650 angstrom
                   Q00  =  -0.600156

H          x = -2.687404  y =  0.907243  z =  1.298976 angstrom
           Maximum rank =  0   Radius =  0.325 angstrom
                   Q00  =   0.037024

H          x = -0.938404  y =  0.706243  z =  1.255976 angstrom
           Maximum rank =  0   Radius =  0.325 angstrom
                   Q00  =   0.072999

H          x = -1.259404  y = -1.612757  z =  2.233976 angstrom
           Maximum rank =  0   Radius =  0.325 angstrom
                   Q00  =   0.092974

H          x = -2.834404  y = -0.961757  z = -0.068024 angstrom
           Maximum rank =  0   Radius =  0.325 angstrom
                   Q00  =   0.385296

H          x = -2.957644  y = -1.155327  z =  2.581096 angstrom
           Maximum rank =  0   Radius =  0.325 angstrom
                   Q00  =   0.073703

H          x = -1.600624  y = -0.279196  z =  3.348756 angstrom
           Maximum rank =  0   Radius =  0.325 angstrom
                   Q00  =   0.083844

Total multipoles referred to origin at
           x =   0.000000,  y =    0.000000,  z =    0.000000 angstrom
                   Q00  =  -0.000000

Finished at 17:43:3 on 26 Apr 2020

  DMA results are available in the Python driver through the
	  variable('DMA DISTRIBUTED MULTIPOLES')
  and
	  variable('DMA TOTAL MULTIPOLES')
  commands.

    Psi4 stopped on: Sunday, 26 April 2020 05:43PM
    Psi4 wall time for execution: 0:01:22.79

*** Psi4 exiting successfully. Buy a developer a beer!
