                               Psi4 1.3.2 release

  ==> Input File <==

--------------------------------------------------------------------------
import numpy as np
set {scf_type pk
basis cc-pvdz
d_convergence 10
gdma_switch   0
gdma_limit    0
gdma_origin   [ 0.0,  0.0,  0.0 ]
}
molecule test {
    units Angstrom
    0 1
    --
    0 1
    C               -0.994451043220756     2.106610272356749     2.018608972393614
    C               -2.183451043220756     1.152610272356749     1.944608972393614
    C                0.182548956779244     1.490610272356749     2.762608972393614
    H               -0.671451043220756     2.351610272356749     1.006608972393614
    H               -1.296451043220756     3.033610272356748     2.510608972393614
    H               -1.807451043220756     0.164610272356749     1.663608972393614
    H               -0.104451043220756     1.243610272356748     3.782608972393614
    H                0.476548956779244     0.574610272356748     2.248608972393614
    H               -2.891654043220756     1.488987272356749     1.173052972393614
    H               -2.670218043220756     1.069082272356748     2.927503292393613
    H                1.039249956779244     2.180009272356749     2.790733012393614
    C               -1.645451043220756    -2.726389727643252    -1.118391027606386
    C                0.060548956779244     0.685610272356749    -1.124391027606387
    C               -0.908451043220756    -0.317389727643251    -1.253391027606386
    C                1.364548956779244     0.332610272356749    -0.774391027606386
    C               -0.584451043220756    -1.664389727643251    -1.035391027606387
    C                1.709548956779244    -1.005389727643251    -0.585391027606387
    C                0.735548956779244    -2.007389727643252    -0.740391027606386
    O                2.332548956779244     1.296610272356748    -0.699391027606386
    H               -0.198451043220756     1.720610272356749    -1.302391027606386
    H               -1.923451043220756    -0.040389727643251    -1.497391027606387
    H                1.987548956779244     2.171610272356749    -0.906391027606386
    H                2.728548956779244    -1.265389727643252    -0.338391027606386
    H               -1.217451043220756    -3.635389727643251    -1.543391027606386
    H               -2.423451043220756    -2.382389727643252    -1.802391027606387
    H                1.004548956779244    -3.045389727643252    -0.590391027606387
    H               -2.099979043220756    -2.954734727643252    -0.143064027606386

}
e, wfn = energy('scf', return_wfn=True)
gdma(wfn)
dmavals = variable('DMA DISTRIBUTED MULTIPOLES')
charges = np.array(dmavals)
print(charges)
np.save('SSI-018LYS-024TYR-1-dimer.npy', np.array(charges))--------------------------------------------------------------------------

*** tstart() called on ds3
*** at Sun Apr 26 17:51:01 2020

   => Loading Basis Set <=

    Name: CC-PVDZ
    Role: ORBITAL
    Keyword: BASIS
    atoms 1-3, 12-18  entry C          line   138 file /theoryfs2/ds/metcalf/miniconda2/envs/tf2gpu/share/psi4/basis/cc-pvdz.gbs
    atoms 4-11, 20-27 entry H          line    22 file /theoryfs2/ds/metcalf/miniconda2/envs/tf2gpu/share/psi4/basis/cc-pvdz.gbs
    atoms 19          entry O          line   198 file /theoryfs2/ds/metcalf/miniconda2/envs/tf2gpu/share/psi4/basis/cc-pvdz.gbs

         ---------------------------------------------------------
                                   SCF
               by Justin Turney, Rob Parrish, Andy Simmonett
                          and Daniel G. A. Smith
                              RHF Reference
                        1 Threads,    500 MiB Core
         ---------------------------------------------------------

  ==> Geometry <==

    Molecular point group: c1
    Full point group: C1

    Geometry (in Angstrom), charge = 0, multiplicity = 1:

       Center              X                  Y                   Z               Mass
    ------------   -----------------  -----------------  -----------------  -----------------
         C           -0.994451043221     2.106610272357     2.018608972394    12.000000000000
         C           -2.183451043221     1.152610272357     1.944608972394    12.000000000000
         C            0.182548956779     1.490610272357     2.762608972394    12.000000000000
         H           -0.671451043221     2.351610272357     1.006608972394     1.007825032230
         H           -1.296451043221     3.033610272357     2.510608972394     1.007825032230
         H           -1.807451043221     0.164610272357     1.663608972394     1.007825032230
         H           -0.104451043221     1.243610272357     3.782608972394     1.007825032230
         H            0.476548956779     0.574610272357     2.248608972394     1.007825032230
         H           -2.891654043221     1.488987272357     1.173052972394     1.007825032230
         H           -2.670218043221     1.069082272357     2.927503292394     1.007825032230
         H            1.039249956779     2.180009272357     2.790733012394     1.007825032230
         C           -1.645451043221    -2.726389727643    -1.118391027606    12.000000000000
         C            0.060548956779     0.685610272357    -1.124391027606    12.000000000000
         C           -0.908451043221    -0.317389727643    -1.253391027606    12.000000000000
         C            1.364548956779     0.332610272357    -0.774391027606    12.000000000000
         C           -0.584451043221    -1.664389727643    -1.035391027606    12.000000000000
         C            1.709548956779    -1.005389727643    -0.585391027606    12.000000000000
         C            0.735548956779    -2.007389727643    -0.740391027606    12.000000000000
         O            2.332548956779     1.296610272357    -0.699391027606    15.994914619570
         H           -0.198451043221     1.720610272357    -1.302391027606     1.007825032230
         H           -1.923451043221    -0.040389727643    -1.497391027606     1.007825032230
         H            1.987548956779     2.171610272357    -0.906391027606     1.007825032230
         H            2.728548956779    -1.265389727643    -0.338391027606     1.007825032230
         H           -1.217451043221    -3.635389727643    -1.543391027606     1.007825032230
         H           -2.423451043221    -2.382389727643    -1.802391027606     1.007825032230
         H            1.004548956779    -3.045389727643    -0.590391027606     1.007825032230
         H           -2.099979043221    -2.954734727643    -0.143064027606     1.007825032230

  Running in c1 symmetry.

  Rotational constants: A =      0.03775  B =      0.02470  C =      0.01793 [cm^-1]
  Rotational constants: A =   1131.75981  B =    740.35603  C =    537.42524 [MHz]
  Nuclear repulsion =  598.553324476430817

  Charge       = 0
  Multiplicity = 1
  Electrons    = 84
  Nalpha       = 42
  Nbeta        = 42

  ==> Algorithm <==

  SCF Algorithm Type is PK.
  DIIS enabled.
  MOM disabled.
  Fractional occupation disabled.
  Guess Type is SAD.
  Energy threshold   = 1.00e-06
  Density threshold  = 1.00e-10
  Integral threshold = 0.00e+00

  ==> Primary Basis <==

  Basis Set: CC-PVDZ
    Blend: CC-PVDZ
    Number of shells: 114
    Number of basis function: 234
    Number of Cartesian functions: 245
    Spherical Harmonics?: true
    Max angular momentum: 2

  ==> Pre-Iterations <==

   -------------------------------------------------------
    Irrep   Nso     Nmo     Nalpha   Nbeta   Ndocc  Nsocc
   -------------------------------------------------------
     A        234     234       0       0       0       0
   -------------------------------------------------------
    Total     234     234      42      42      42       0
   -------------------------------------------------------

  ==> Integral Setup <==

  Using integral reordering PK algorithm.
  Sizing the integral batches needed.
  Building batch lookup table.
   Calculation information:
      Number of atoms:                  27
      Number of AO shells:             114
      Number of primitives:            322
      Number of atomic orbitals:       245
      Number of basis functions:       234

      Integral cutoff                 1.00e-12
      Number of threads:                 1

	Batch   1 pq = [       0,    9405] index = [             0,44231715] size =     44231715
	Batch   2 pq = [    9405,   13301] index = [      44231715,88464951] size =     44233236
	Batch   3 pq = [   13301,   16290] index = [      88464951,132690195] size =     44225244
	Batch   4 pq = [   16290,   18810] index = [     132690195,176917455] size =     44227260
	Batch   5 pq = [   18810,   21030] index = [     176917455,221140965] size =     44223510
	Batch   6 pq = [   21030,   23037] index = [     221140965,265363203] size =     44222238
	Batch   7 pq = [   23037,   24883] index = [     265363203,309594286] size =     44231083
	Batch   8 pq = [   24883,   26601] index = [     309594286,353819901] size =     44225615
	Batch   9 pq = [   26601,   27495] index = [     353819901,378001260] size =     24181359
  Task number: 35
  Buffer size: 11059200
  Buffer per thread: 2
  We computed 22498169 shell quartets total.
  Whereas there are 21487290 unique shell quartets.
     4.70 percent of shell quartets recomputed by reordering.

  ==> DiskJK: Disk-Based J/K Matrices <==

    J tasked:                  Yes
    K tasked:                  Yes
    wK tasked:                  No
    Memory [MiB]:              375
    Schwarz Cutoff:          1E-12

    OpenMP threads:              1

  Minimum eigenvalue in the overlap matrix is 3.3721743235E-04.
  Using Symmetric Orthogonalization.

  SCF Guess: Superposition of Atomic Densities via on-the-fly atomic UHF.

  ==> Iterations <==

                        Total Energy        Delta E     RMS |[F,P]|

   @RHF iter SAD:  -461.65128609613106   -4.61651e+02   0.00000e+00
   @RHF iter   1:  -462.60476441286659   -9.53478e-01   2.82377e-03 DIIS
   @RHF iter   2:  -462.84688349390467   -2.42119e-01   1.21542e-03 DIIS
   @RHF iter   3:  -462.88760600898217   -4.07225e-02   2.70114e-04 DIIS
   @RHF iter   4:  -462.89090572951102   -3.29972e-03   1.03190e-04 DIIS
   @RHF iter   5:  -462.89124599025433   -3.40261e-04   2.11806e-05 DIIS
   @RHF iter   6:  -462.89126630042711   -2.03102e-05   6.55489e-06 DIIS
   @RHF iter   7:  -462.89126837720141   -2.07677e-06   1.84175e-06 DIIS
   @RHF iter   8:  -462.89126860804851   -2.30847e-07   6.90388e-07 DIIS
   @RHF iter   9:  -462.89126864111597   -3.30675e-08   2.72913e-07 DIIS
   @RHF iter  10:  -462.89126864649245   -5.37648e-09   1.06046e-07 DIIS
   @RHF iter  11:  -462.89126864808088   -1.58843e-09   4.77361e-08 DIIS
   @RHF iter  12:  -462.89126864845809   -3.77213e-10   2.36684e-08 DIIS
   @RHF iter  13:  -462.89126864852699   -6.88942e-11   8.36756e-09 DIIS
   @RHF iter  14:  -462.89126864853148   -4.49063e-12   2.10076e-09 DIIS
   @RHF iter  15:  -462.89126864853296   -1.47793e-12   7.04213e-10 DIIS
   @RHF iter  16:  -462.89126864853267    2.84217e-13   1.93026e-10 DIIS
   @RHF iter  17:  -462.89126864853046    2.21689e-12   7.41832e-11 DIIS
  Energy and wave function converged.

  ==> Post-Iterations <==

    Orbital Energies [Eh]
    ---------------------

    Doubly Occupied:

       1A    -20.583239     2A    -11.301683     3A    -11.242148
       4A    -11.241628     5A    -11.236669     6A    -11.235771
       7A    -11.233837     8A    -11.228797     9A    -11.214503
      10A    -11.212638    11A    -11.208325    12A     -1.397832
      13A     -1.148988    14A     -1.050579    15A     -1.038211
      16A     -1.016730    17A     -0.926257    18A     -0.917261
      19A     -0.845443    20A     -0.801527    21A     -0.791377
      22A     -0.731193    23A     -0.667209    24A     -0.643593
      25A     -0.623640    26A     -0.607228    27A     -0.592175
      28A     -0.587403    29A     -0.584653    30A     -0.571929
      31A     -0.567997    32A     -0.542739    33A     -0.525568
      34A     -0.523921    35A     -0.499186    36A     -0.487309
      37A     -0.470401    38A     -0.465237    39A     -0.463562
      40A     -0.461000    41A     -0.337804    42A     -0.302618

    Virtual:

      43A      0.124593    44A      0.152755    45A      0.165596
      46A      0.179121    47A      0.203220    48A      0.206395
      49A      0.214553    50A      0.236601    51A      0.246981
      52A      0.252129    53A      0.260923    54A      0.266596
      55A      0.279964    56A      0.282024    57A      0.294969
      58A      0.300656    59A      0.324454    60A      0.332000
      61A      0.366944    62A      0.372492    63A      0.386716
      64A      0.425107    65A      0.438465    66A      0.452878
      67A      0.474722    68A      0.493250    69A      0.506422
      70A      0.577320    71A      0.587597    72A      0.599069
      73A      0.606922    74A      0.624179    75A      0.632064
      76A      0.636719    77A      0.656927    78A      0.668274
      79A      0.690423    80A      0.707156    81A      0.726924
      82A      0.735770    83A      0.739137    84A      0.756495
      85A      0.762133    86A      0.778385    87A      0.784249
      88A      0.792526    89A      0.817569    90A      0.821975
      91A      0.845042    92A      0.849744    93A      0.859189
      94A      0.873410    95A      0.875060    96A      0.878585
      97A      0.883462    98A      0.886984    99A      0.892602
     100A      0.913195   101A      0.918493   102A      0.922680
     103A      0.936610   104A      0.938994   105A      0.940331
     106A      0.947342   107A      0.959831   108A      0.971547
     109A      0.997943   110A      1.003260   111A      1.013026
     112A      1.026352   113A      1.035543   114A      1.069118
     115A      1.112145   116A      1.130984   117A      1.135889
     118A      1.142153   119A      1.156038   120A      1.178530
     121A      1.200718   122A      1.224618   123A      1.241094
     124A      1.261315   125A      1.273380   126A      1.286633
     127A      1.294938   128A      1.309861   129A      1.313873
     130A      1.342534   131A      1.368190   132A      1.380954
     133A      1.391739   134A      1.472147   135A      1.486115
     136A      1.486471   137A      1.523699   138A      1.527835
     139A      1.552840   140A      1.567819   141A      1.608465
     142A      1.617341   143A      1.635193   144A      1.671111
     145A      1.692106   146A      1.698089   147A      1.703629
     148A      1.710956   149A      1.741638   150A      1.746341
     151A      1.781934   152A      1.806439   153A      1.818843
     154A      1.848544   155A      1.865502   156A      1.875037
     157A      1.886573   158A      1.890181   159A      1.900302
     160A      1.904234   161A      1.909506   162A      1.918976
     163A      1.931761   164A      1.935880   165A      1.950193
     166A      1.958984   167A      1.967329   168A      1.970836
     169A      1.974987   170A      1.984520   171A      1.991181
     172A      2.008262   173A      2.011781   174A      2.030894
     175A      2.039894   176A      2.049017   177A      2.051610
     178A      2.060186   179A      2.069904   180A      2.084130
     181A      2.134022   182A      2.141583   183A      2.143421
     184A      2.159471   185A      2.174822   186A      2.206945
     187A      2.234421   188A      2.254590   189A      2.272061
     190A      2.291025   191A      2.295935   192A      2.302507
     193A      2.324737   194A      2.331853   195A      2.355103
     196A      2.379646   197A      2.427546   198A      2.457433
     199A      2.469709   200A      2.481078   201A      2.502458
     202A      2.528197   203A      2.541673   204A      2.555701
     205A      2.584470   206A      2.602530   207A      2.621341
     208A      2.641459   209A      2.642985   210A      2.746061
     211A      2.761160   212A      2.766622   213A      2.780117
     214A      2.790207   215A      2.798239   216A      2.815614
     217A      2.829361   218A      2.837305   219A      2.896946
     220A      2.922830   221A      2.960005   222A      2.971601
     223A      2.983253   224A      3.008078   225A      3.069850
     226A      3.078522   227A      3.107213   228A      3.247902
     229A      3.267755   230A      3.344358   231A      3.570101
     232A      3.664040   233A      3.960420   234A      4.187437

    Final Occupation by Irrep:
              A
    DOCC [    42 ]

  @RHF Final Energy:  -462.89126864853046

   => Energetics <=

    Nuclear Repulsion Energy =            598.5533244764308165
    One-Electron Energy =               -1814.6295596145967011
    Two-Electron Energy =                 753.1849664896353715
    Total Energy =                       -462.8912686485305130

Computation Completed

Properties will be evaluated at   0.000000,   0.000000,   0.000000 [a0]

Properties computed using the SCF density matrix

  Nuclear Dipole Moment: [e a0]
     X:    -9.4272      Y:     2.5136      Z:     9.3521

  Electronic Dipole Moment: [e a0]
     X:     8.9764      Y:    -2.3442      Z:    -9.5607

  Dipole Moment: [e a0]
     X:    -0.4509      Y:     0.1694      Z:    -0.2085     Total:     0.5248

  Dipole Moment: [D]
     X:    -1.1460      Y:     0.4306      Z:    -0.5301     Total:     1.3340

*** tstop() called on ds3 at Sun Apr 26 17:54:46 2020
Module time:
	user time   =     171.19 seconds =       2.85 minutes
	system time =      62.31 seconds =       1.04 minutes
	total time  =        225 seconds =       3.75 minutes
Total time:
	user time   =     171.19 seconds =       2.85 minutes
	system time =      62.31 seconds =       1.04 minutes
	total time  =        225 seconds =       3.75 minutes
                                     G D M A

                                 by Anthony Stone

                           version 2.2.06, 22 June 2011

               Distributed Multipoles from Gaussian wavefunctions

Starting at 17:54:46 on 26 Apr 2020

Using SCF density matrix from file ./SSI/SSI-018LYS-024TYR-1-dimer.test.30977.fchk

                         Distributed Multipole Analysis

Standard DMA

Positions and radii in angstrom
Multipole moments in atomic units, ea_0^k for rank k

C          x = -0.994451  y =  2.106610  z =  2.018609 angstrom
           Maximum rank =  0   Radius =  0.650 angstrom
                   Q00  =  -0.089225

C          x = -2.183451  y =  1.152610  z =  1.944609 angstrom
           Maximum rank =  0   Radius =  0.650 angstrom
                   Q00  =  -0.234470

C          x =  0.182549  y =  1.490610  z =  2.762609 angstrom
           Maximum rank =  0   Radius =  0.650 angstrom
                   Q00  =  -0.231439

H          x = -0.671451  y =  2.351610  z =  1.006609 angstrom
           Maximum rank =  0   Radius =  0.325 angstrom
                   Q00  =   0.034902

H          x = -1.296451  y =  3.033610  z =  2.510609 angstrom
           Maximum rank =  0   Radius =  0.325 angstrom
                   Q00  =   0.041913

H          x = -1.807451  y =  0.164610  z =  1.663609 angstrom
           Maximum rank =  0   Radius =  0.325 angstrom
                   Q00  =   0.082532

H          x = -0.104451  y =  1.243610  z =  3.782609 angstrom
           Maximum rank =  0   Radius =  0.325 angstrom
                   Q00  =   0.073075

H          x =  0.476549  y =  0.574610  z =  2.248609 angstrom
           Maximum rank =  0   Radius =  0.325 angstrom
                   Q00  =   0.087323

H          x = -2.891654  y =  1.488987  z =  1.173053 angstrom
           Maximum rank =  0   Radius =  0.325 angstrom
                   Q00  =   0.076728

H          x = -2.670218  y =  1.069082  z =  2.927503 angstrom
           Maximum rank =  0   Radius =  0.325 angstrom
                   Q00  =   0.076061

H          x =  1.039250  y =  2.180009  z =  2.790733 angstrom
           Maximum rank =  0   Radius =  0.325 angstrom
                   Q00  =   0.079720

C          x = -1.645451  y = -2.726390  z = -1.118391 angstrom
           Maximum rank =  0   Radius =  0.650 angstrom
                   Q00  =  -0.187863

C          x =  0.060549  y =  0.685610  z = -1.124391 angstrom
           Maximum rank =  0   Radius =  0.650 angstrom
                   Q00  =  -0.176710

C          x = -0.908451  y = -0.317390  z = -1.253391 angstrom
           Maximum rank =  0   Radius =  0.650 angstrom
                   Q00  =   0.017929

C          x =  1.364549  y =  0.332610  z = -0.774391 angstrom
           Maximum rank =  0   Radius =  0.650 angstrom
                   Q00  =   0.345382

C          x = -0.584451  y = -1.664390  z = -1.035391 angstrom
           Maximum rank =  0   Radius =  0.650 angstrom
                   Q00  =  -0.135267

C          x =  1.709549  y = -1.005390  z = -0.585391 angstrom
           Maximum rank =  0   Radius =  0.650 angstrom
                   Q00  =  -0.116624

C          x =  0.735549  y = -2.007390  z = -0.740391 angstrom
           Maximum rank =  0   Radius =  0.650 angstrom
                   Q00  =  -0.059059

O          x =  2.332549  y =  1.296610  z = -0.699391 angstrom
           Maximum rank =  0   Radius =  0.650 angstrom
                   Q00  =  -0.678672

H          x = -0.198451  y =  1.720610  z = -1.302391 angstrom
           Maximum rank =  0   Radius =  0.325 angstrom
                   Q00  =   0.074794

H          x = -1.923451  y = -0.040390  z = -1.497391 angstrom
           Maximum rank =  0   Radius =  0.325 angstrom
                   Q00  =   0.071424

H          x =  1.987549  y =  2.171610  z = -0.906391 angstrom
           Maximum rank =  0   Radius =  0.325 angstrom
                   Q00  =   0.406949

H          x =  2.728549  y = -1.265390  z = -0.338391 angstrom
           Maximum rank =  0   Radius =  0.325 angstrom
                   Q00  =   0.083594

H          x = -1.217451  y = -3.635390  z = -1.543391 angstrom
           Maximum rank =  0   Radius =  0.325 angstrom
                   Q00  =   0.096262

H          x = -2.423451  y = -2.382390  z = -1.802391 angstrom
           Maximum rank =  0   Radius =  0.325 angstrom
                   Q00  =   0.094105

H          x =  1.004549  y = -3.045390  z = -0.590391 angstrom
           Maximum rank =  0   Radius =  0.325 angstrom
                   Q00  =   0.066248

H          x = -2.099979  y = -2.954735  z = -0.143064 angstrom
           Maximum rank =  0   Radius =  0.325 angstrom
                   Q00  =   0.100388

Total multipoles referred to origin at
           x =   0.000000,  y =    0.000000,  z =    0.000000 angstrom
                   Q00  =  -0.000000

Finished at 17:54:46 on 26 Apr 2020

  DMA results are available in the Python driver through the
	  variable('DMA DISTRIBUTED MULTIPOLES')
  and
	  variable('DMA TOTAL MULTIPOLES')
  commands.

    Psi4 stopped on: Sunday, 26 April 2020 05:54PM
    Psi4 wall time for execution: 0:03:45.56

*** Psi4 exiting successfully. Buy a developer a beer!
