                               Psi4 1.3.2 release

  ==> Input File <==

--------------------------------------------------------------------------
import numpy as np
set {scf_type pk
basis cc-pvdz
d_convergence 10
gdma_switch   0
gdma_limit    0
gdma_origin   [ 0.0,  0.0,  0.0 ]
}
molecule test {
    units Angstrom
    0 1
    --
    0 1
    C                2.049231505429510    -0.659295313230043    -0.471418746203893
    C                3.082231505429510    -1.441295313230043     0.292581253796107
    H                1.538231505429510    -0.025295313230043     0.244581253796107
    H                2.552231505429510    -0.013295313230043    -1.192418746203893
    H                1.332231505429510    -1.282295313230043    -1.005418746203893
    H                3.937231505429510    -1.586295313230043    -0.367418746203893
    H                2.703081505429510    -2.431325313230043     0.585977253796107
    H                3.428751505429510    -0.854985313230043     1.156390253796107
    C               -1.283768494570490     0.848704686769957    -0.160418746203893
    C               -2.349768494570490     0.047704686769957    -0.952418746203893
    C               -1.592768494570491     1.251704686769957     1.294581253796107
    H               -0.400768494570490     0.237704686769957    -0.153418746203893
    H               -1.059768494570490     1.767704686769957    -0.704418746203893
    H               -3.318768494570490     0.549704686769957    -0.857418746203893
    H               -1.881768494570490     0.354704686769957     1.800581253796107
    H               -0.721768494570490     1.752704686769957     1.706581253796107
    H               -2.417827494570490    -0.996365313230043    -0.612872746203893
    H               -2.112632494570490     0.026214686769957    -2.026338746203893
    H               -2.449183494570490     1.935265686769957     1.391008253796107

}
e, wfn = energy('scf', return_wfn=True)
gdma(wfn)
dmavals = variable('DMA DISTRIBUTED MULTIPOLES')
charges = np.array(dmavals)
print(charges)
np.save('SSI-032VAL-080ARG-1-dimer.npy', np.array(charges))--------------------------------------------------------------------------

*** tstart() called on ds3
*** at Tue Apr 28 13:40:11 2020

   => Loading Basis Set <=

    Name: CC-PVDZ
    Role: ORBITAL
    Keyword: BASIS
    atoms 1-2, 9-11  entry C          line   138 file /theoryfs2/ds/metcalf/miniconda2/envs/tf2gpu/share/psi4/basis/cc-pvdz.gbs
    atoms 3-8, 12-19 entry H          line    22 file /theoryfs2/ds/metcalf/miniconda2/envs/tf2gpu/share/psi4/basis/cc-pvdz.gbs

         ---------------------------------------------------------
                                   SCF
               by Justin Turney, Rob Parrish, Andy Simmonett
                          and Daniel G. A. Smith
                              RHF Reference
                        1 Threads,    500 MiB Core
         ---------------------------------------------------------

  ==> Geometry <==

    Molecular point group: c1
    Full point group: C1

    Geometry (in Angstrom), charge = 0, multiplicity = 1:

       Center              X                  Y                   Z               Mass
    ------------   -----------------  -----------------  -----------------  -----------------
         C            2.049231505430    -0.659295313230    -0.471418746204    12.000000000000
         C            3.082231505430    -1.441295313230     0.292581253796    12.000000000000
         H            1.538231505430    -0.025295313230     0.244581253796     1.007825032230
         H            2.552231505430    -0.013295313230    -1.192418746204     1.007825032230
         H            1.332231505430    -1.282295313230    -1.005418746204     1.007825032230
         H            3.937231505430    -1.586295313230    -0.367418746204     1.007825032230
         H            2.703081505430    -2.431325313230     0.585977253796     1.007825032230
         H            3.428751505430    -0.854985313230     1.156390253796     1.007825032230
         C           -1.283768494570     0.848704686770    -0.160418746204    12.000000000000
         C           -2.349768494570     0.047704686770    -0.952418746204    12.000000000000
         C           -1.592768494570     1.251704686770     1.294581253796    12.000000000000
         H           -0.400768494570     0.237704686770    -0.153418746204     1.007825032230
         H           -1.059768494570     1.767704686770    -0.704418746204     1.007825032230
         H           -3.318768494570     0.549704686770    -0.857418746204     1.007825032230
         H           -1.881768494570     0.354704686770     1.800581253796     1.007825032230
         H           -0.721768494570     1.752704686770     1.706581253796     1.007825032230
         H           -2.417827494570    -0.996365313230    -0.612872746204     1.007825032230
         H           -2.112632494570     0.026214686770    -2.026338746204     1.007825032230
         H           -2.449183494570     1.935265686770     1.391008253796     1.007825032230

  Running in c1 symmetry.

  Rotational constants: A =      0.21181  B =      0.03940  C =      0.03528 [cm^-1]
  Rotational constants: A =   6350.03024  B =   1181.16159  C =   1057.58811 [MHz]
  Nuclear repulsion =  176.932981762958121

  Charge       = 0
  Multiplicity = 1
  Electrons    = 44
  Nalpha       = 22
  Nbeta        = 22

  ==> Algorithm <==

  SCF Algorithm Type is PK.
  DIIS enabled.
  MOM disabled.
  Fractional occupation disabled.
  Guess Type is SAD.
  Energy threshold   = 1.00e-06
  Density threshold  = 1.00e-10
  Integral threshold = 0.00e+00

  ==> Primary Basis <==

  Basis Set: CC-PVDZ
    Blend: CC-PVDZ
    Number of shells: 72
    Number of basis function: 140
    Number of Cartesian functions: 145
    Spherical Harmonics?: true
    Max angular momentum: 2

  ==> Pre-Iterations <==

   -------------------------------------------------------
    Irrep   Nso     Nmo     Nalpha   Nbeta   Ndocc  Nsocc
   -------------------------------------------------------
     A        140     140       0       0       0       0
   -------------------------------------------------------
    Total     140     140      22      22      22       0
   -------------------------------------------------------

  ==> Integral Setup <==

  Using integral reordering PK algorithm.
  Sizing the integral batches needed.
  Building batch lookup table.
   Calculation information:
      Number of atoms:                  19
      Number of AO shells:              72
      Number of primitives:            180
      Number of atomic orbitals:       145
      Number of basis functions:       140

      Integral cutoff                 1.00e-12
      Number of threads:                 1

	Batch   1 pq = [       0,    9405] index = [             0,44231715] size =     44231715
	Batch   2 pq = [    9405,    9870] index = [      44231715,48713385] size =      4481670
  Task number: 5
  Buffer size: 11059200
  Buffer per thread: 2
  We computed 2831067 shell quartets total.
  Whereas there are 3454506 unique shell quartets.

  ==> DiskJK: Disk-Based J/K Matrices <==

    J tasked:                  Yes
    K tasked:                  Yes
    wK tasked:                  No
    Memory [MiB]:              375
    Schwarz Cutoff:          1E-12

    OpenMP threads:              1

  Minimum eigenvalue in the overlap matrix is 5.3390628372E-03.
  Using Symmetric Orthogonalization.

  SCF Guess: Superposition of Atomic Densities via on-the-fly atomic UHF.

  ==> Iterations <==

                        Total Energy        Delta E     RMS |[F,P]|

   @RHF iter SAD:  -196.37828257890433   -1.96378e+02   0.00000e+00
   @RHF iter   1:  -197.30195061376213   -9.23668e-01   3.79170e-03 DIIS
   @RHF iter   2:  -197.46177918491125   -1.59829e-01   1.60893e-03 DIIS
   @RHF iter   3:  -197.48922940038335   -2.74502e-02   3.24031e-04 DIIS
   @RHF iter   4:  -197.49144561930845   -2.21622e-03   4.74360e-05 DIIS
   @RHF iter   5:  -197.49148454870686   -3.89294e-05   1.44266e-05 DIIS
   @RHF iter   6:  -197.49148783898252   -3.29028e-06   2.52101e-06 DIIS
   @RHF iter   7:  -197.49148795558355   -1.16601e-07   5.02237e-07 DIIS
   @RHF iter   8:  -197.49148796130822   -5.72467e-09   1.40197e-07 DIIS
   @RHF iter   9:  -197.49148796170127   -3.93044e-10   4.28056e-08 DIIS
   @RHF iter  10:  -197.49148796174404   -4.27747e-11   8.66333e-09 DIIS
   @RHF iter  11:  -197.49148796174583   -1.79057e-12   1.65020e-09 DIIS
   @RHF iter  12:  -197.49148796174629   -4.54747e-13   3.09989e-10 DIIS
   @RHF iter  13:  -197.49148796174549    7.95808e-13   6.05198e-11 DIIS
  Energy and wave function converged.

  ==> Post-Iterations <==

    Orbital Energies [Eh]
    ---------------------

    Doubly Occupied:

       1A    -11.218660     2A    -11.217078     3A    -11.216096
       4A    -11.214550     5A    -11.213872     6A     -1.044978
       7A     -1.026077     8A     -0.926310     9A     -0.836040
      10A     -0.795811    11A     -0.623150    12A     -0.605920
      13A     -0.601572    14A     -0.591573    15A     -0.548830
      16A     -0.531633    17A     -0.508293    18A     -0.487283
      19A     -0.483804    20A     -0.477482    21A     -0.458025
      22A     -0.453661

    Virtual:

      23A      0.171068    24A      0.195845    25A      0.206798
      26A      0.231875    27A      0.240331    28A      0.243459
      29A      0.253107    30A      0.265583    31A      0.273498
      32A      0.289091    33A      0.294978    34A      0.309496
      35A      0.324917    36A      0.352401    37A      0.370550
      38A      0.404508    39A      0.430621    40A      0.572302
      41A      0.581954    42A      0.595283    43A      0.605891
      44A      0.609285    45A      0.626014    46A      0.644862
      47A      0.675165    48A      0.715935    49A      0.761475
      50A      0.788436    51A      0.823400    52A      0.836041
      53A      0.868501    54A      0.871853    55A      0.883051
      56A      0.886546    57A      0.895102    58A      0.895769
      59A      0.899847    60A      0.908337    61A      0.912520
      62A      0.914130    63A      0.934295    64A      0.939678
      65A      0.947238    66A      0.970979    67A      0.993582
      68A      1.027322    69A      1.101125    70A      1.113800
      71A      1.133398    72A      1.153393    73A      1.224435
      74A      1.324254    75A      1.362864    76A      1.457786
      77A      1.469429    78A      1.477802    79A      1.530296
      80A      1.531473    81A      1.597332    82A      1.647074
      83A      1.670846    84A      1.681662    85A      1.683905
      86A      1.690556    87A      1.708254    88A      1.843632
      89A      1.849342    90A      1.850853    91A      1.865507
      92A      1.887760    93A      1.909836    94A      1.911596
      95A      1.922205    96A      1.925839    97A      1.938051
      98A      1.941314    99A      1.945691   100A      1.951276
     101A      1.970189   102A      1.989187   103A      1.990726
     104A      2.000075   105A      2.027812   106A      2.037252
     107A      2.056358   108A      2.132042   109A      2.163753
     110A      2.181005   111A      2.250504   112A      2.262996
     113A      2.292769   114A      2.310715   115A      2.318427
     116A      2.319735   117A      2.346953   118A      2.406350
     119A      2.435535   120A      2.486404   121A      2.532880
     122A      2.590985   123A      2.599591   124A      2.608950
     125A      2.638201   126A      2.663014   127A      2.754639
     128A      2.755889   129A      2.765100   130A      2.793431
     131A      2.794103   132A      2.815735   133A      2.837076
     134A      2.842953   135A      2.933724   136A      2.943448
     137A      2.956800   138A      2.973583   139A      2.978639
     140A      3.100891

    Final Occupation by Irrep:
              A
    DOCC [    22 ]

  @RHF Final Energy:  -197.49148796174549

   => Energetics <=

    Nuclear Repulsion Energy =            176.9329817629581214
    One-Electron Energy =                -614.6875410090104879
    Two-Electron Energy =                 240.2630712843069034
    Total Energy =                       -197.4914879617454915

Computation Completed

Properties will be evaluated at   0.000000,   0.000000,   0.000000 [a0]

Properties computed using the SCF density matrix

  Nuclear Dipole Moment: [e a0]
     X:     1.0587      Y:    -0.5305      Z:    -0.0324

  Electronic Dipole Moment: [e a0]
     X:    -0.9850      Y:     0.5313      Z:     0.0083

  Dipole Moment: [e a0]
     X:     0.0737      Y:     0.0008      Z:    -0.0242     Total:     0.0775

  Dipole Moment: [D]
     X:     0.1873      Y:     0.0021      Z:    -0.0614     Total:     0.1971

*** tstop() called on ds3 at Tue Apr 28 13:40:32 2020
Module time:
	user time   =      15.25 seconds =       0.25 minutes
	system time =       6.66 seconds =       0.11 minutes
	total time  =         21 seconds =       0.35 minutes
Total time:
	user time   =      15.25 seconds =       0.25 minutes
	system time =       6.66 seconds =       0.11 minutes
	total time  =         21 seconds =       0.35 minutes
                                     G D M A

                                 by Anthony Stone

                           version 2.2.06, 22 June 2011

               Distributed Multipoles from Gaussian wavefunctions

Starting at 13:40:32 on 28 Apr 2020

Using SCF density matrix from file ./SSI/SSI-032VAL-080ARG-1-dimer.test.20910.fchk

                         Distributed Multipole Analysis

Standard DMA

Positions and radii in angstrom
Multipole moments in atomic units, ea_0^k for rank k

C          x =  2.049232  y = -0.659295  z = -0.471419 angstrom
           Maximum rank =  0   Radius =  0.650 angstrom
                   Q00  =  -0.228029

C          x =  3.082232  y = -1.441295  z =  0.292581 angstrom
           Maximum rank =  0   Radius =  0.650 angstrom
                   Q00  =  -0.247943

H          x =  1.538232  y = -0.025295  z =  0.244581 angstrom
           Maximum rank =  0   Radius =  0.325 angstrom
                   Q00  =   0.077647

H          x =  2.552232  y = -0.013295  z = -1.192419 angstrom
           Maximum rank =  0   Radius =  0.325 angstrom
                   Q00  =   0.082429

H          x =  1.332232  y = -1.282295  z = -1.005419 angstrom
           Maximum rank =  0   Radius =  0.325 angstrom
                   Q00  =   0.078120

H          x =  3.937232  y = -1.586295  z = -0.367419 angstrom
           Maximum rank =  0   Radius =  0.325 angstrom
                   Q00  =   0.078312

H          x =  2.703082  y = -2.431325  z =  0.585977 angstrom
           Maximum rank =  0   Radius =  0.325 angstrom
                   Q00  =   0.078405

H          x =  3.428752  y = -0.854985  z =  1.156390 angstrom
           Maximum rank =  0   Radius =  0.325 angstrom
                   Q00  =   0.082875

C          x = -1.283768  y =  0.848705  z = -0.160419 angstrom
           Maximum rank =  0   Radius =  0.650 angstrom
                   Q00  =  -0.088737

C          x = -2.349768  y =  0.047705  z = -0.952419 angstrom
           Maximum rank =  0   Radius =  0.650 angstrom
                   Q00  =  -0.258085

C          x = -1.592768  y =  1.251705  z =  1.294581 angstrom
           Maximum rank =  0   Radius =  0.650 angstrom
                   Q00  =  -0.219604

H          x = -0.400768  y =  0.237705  z = -0.153419 angstrom
           Maximum rank =  0   Radius =  0.325 angstrom
                   Q00  =   0.061497

H          x = -1.059768  y =  1.767705  z = -0.704419 angstrom
           Maximum rank =  0   Radius =  0.325 angstrom
                   Q00  =   0.042090

H          x = -3.318768  y =  0.549705  z = -0.857419 angstrom
           Maximum rank =  0   Radius =  0.325 angstrom
                   Q00  =   0.076474

H          x = -1.881768  y =  0.354705  z =  1.800581 angstrom
           Maximum rank =  0   Radius =  0.325 angstrom
                   Q00  =   0.064409

H          x = -0.721768  y =  1.752705  z =  1.706581 angstrom
           Maximum rank =  0   Radius =  0.325 angstrom
                   Q00  =   0.075762

H          x = -2.417827  y = -0.996365  z = -0.612873 angstrom
           Maximum rank =  0   Radius =  0.325 angstrom
                   Q00  =   0.079351

H          x = -2.112632  y =  0.026215  z = -2.026339 angstrom
           Maximum rank =  0   Radius =  0.325 angstrom
                   Q00  =   0.086185

H          x = -2.449183  y =  1.935266  z =  1.391008 angstrom
           Maximum rank =  0   Radius =  0.325 angstrom
                   Q00  =   0.078841

Total multipoles referred to origin at
           x =   0.000000,  y =    0.000000,  z =    0.000000 angstrom
                   Q00  =  -0.000000

Finished at 13:40:32 on 28 Apr 2020

  DMA results are available in the Python driver through the
	  variable('DMA DISTRIBUTED MULTIPOLES')
  and
	  variable('DMA TOTAL MULTIPOLES')
  commands.

    Psi4 stopped on: Tuesday, 28 April 2020 01:40PM
    Psi4 wall time for execution: 0:00:21.23

*** Psi4 exiting successfully. Buy a developer a beer!
