                               Psi4 1.3.2 release

  ==> Input File <==

--------------------------------------------------------------------------
import numpy as np
set {scf_type pk
basis cc-pvdz
d_convergence 10
gdma_switch   0
gdma_limit    0
gdma_origin   [ 0.0,  0.0,  0.0 ]
}
molecule test {
    units Angstrom
    0 1
    --
    0 1
    C               -1.837390922871004     0.515022519441202    -1.156787603771430
    C               -2.624390922871004     1.087022519441202    -2.339787603771430
    C               -0.360390922871004     0.708022519441202    -1.299787603771430
    C                0.326609077128996     0.065022519441202    -2.323787603771430
    C                0.332609077128996     1.561022519441202    -0.446787603771430
    C                1.695609077128996     0.266022519441202    -2.492787603771430
    C                1.703609077128996     1.752022519441202    -0.608787603771430
    C                2.385609077128996     1.110022519441202    -1.637787603771430
    H               -2.184390922871004     0.988022519441202    -0.238787603771430
    H               -2.032390922871004    -0.549977480558798    -1.067787603771430
    H               -2.234390922871004     0.618022519441202    -3.239787603771430
    H               -0.197390922871004    -0.600977480558798    -2.993787603771430
    H               -0.184390922871004     2.065022519441202     0.353212396228570
    H                2.219609077128996    -0.238977480558798    -3.292787603771430
    H                2.236609077128996     2.396022519441202     0.075212396228570
    H                3.445609077128996     1.256022519441202    -1.755787603771430
    H               -2.453818822871004     2.171322519441202    -2.411927603771430
    H               -3.690736922871004     0.821333519441202    -2.291677603771430
    C                1.433609077128996    -1.838977480558798     0.660212396228570
    C               -1.003390922871004    -1.731977480558798     1.545212396228570
    C                0.312609077128996    -1.394977480558798     1.553212396228570
    C               -0.674390922871004    -0.307977480558798     3.189212396228570
    N               -1.593390922871004    -1.039977480558798     2.575212396228570
    N                0.496609077128996    -0.498977480558798     2.588212396228570
    H               -1.485390922871004    -2.406977480558798     0.856212396228570
    H               -2.592390922871004    -1.004977480558798     2.776212396228570
    H                1.872609077128996    -0.951977480558798     0.210212396228570
    H                1.029609077128996    -2.458977480558799    -0.141787603771430
    H               -0.858390922871004     0.353022519441202     4.029212396228570
    H                2.222490077128996    -2.389610480558798     1.193572396228570

}
e, wfn = energy('scf', return_wfn=True)
gdma(wfn)
dmavals = variable('DMA DISTRIBUTED MULTIPOLES')
charges = np.array(dmavals)
print(charges)
np.save('SSI-127PHE-140HIE-1-dimer.npy', np.array(charges))--------------------------------------------------------------------------

*** tstart() called on ds3
*** at Mon Apr 27 20:31:14 2020

   => Loading Basis Set <=

    Name: CC-PVDZ
    Role: ORBITAL
    Keyword: BASIS
    atoms 1-8, 19-22  entry C          line   138 file /theoryfs2/ds/metcalf/miniconda2/envs/tf2gpu/share/psi4/basis/cc-pvdz.gbs
    atoms 9-18, 25-30 entry H          line    22 file /theoryfs2/ds/metcalf/miniconda2/envs/tf2gpu/share/psi4/basis/cc-pvdz.gbs
    atoms 23-24       entry N          line   168 file /theoryfs2/ds/metcalf/miniconda2/envs/tf2gpu/share/psi4/basis/cc-pvdz.gbs

         ---------------------------------------------------------
                                   SCF
               by Justin Turney, Rob Parrish, Andy Simmonett
                          and Daniel G. A. Smith
                              RHF Reference
                        1 Threads,    500 MiB Core
         ---------------------------------------------------------

  ==> Geometry <==

    Molecular point group: c1
    Full point group: C1

    Geometry (in Angstrom), charge = 0, multiplicity = 1:

       Center              X                  Y                   Z               Mass
    ------------   -----------------  -----------------  -----------------  -----------------
         C           -1.837390922871     0.515022519441    -1.156787603771    12.000000000000
         C           -2.624390922871     1.087022519441    -2.339787603771    12.000000000000
         C           -0.360390922871     0.708022519441    -1.299787603771    12.000000000000
         C            0.326609077129     0.065022519441    -2.323787603771    12.000000000000
         C            0.332609077129     1.561022519441    -0.446787603771    12.000000000000
         C            1.695609077129     0.266022519441    -2.492787603771    12.000000000000
         C            1.703609077129     1.752022519441    -0.608787603771    12.000000000000
         C            2.385609077129     1.110022519441    -1.637787603771    12.000000000000
         H           -2.184390922871     0.988022519441    -0.238787603771     1.007825032230
         H           -2.032390922871    -0.549977480559    -1.067787603771     1.007825032230
         H           -2.234390922871     0.618022519441    -3.239787603771     1.007825032230
         H           -0.197390922871    -0.600977480559    -2.993787603771     1.007825032230
         H           -0.184390922871     2.065022519441     0.353212396229     1.007825032230
         H            2.219609077129    -0.238977480559    -3.292787603771     1.007825032230
         H            2.236609077129     2.396022519441     0.075212396229     1.007825032230
         H            3.445609077129     1.256022519441    -1.755787603771     1.007825032230
         H           -2.453818822871     2.171322519441    -2.411927603771     1.007825032230
         H           -3.690736922871     0.821333519441    -2.291677603771     1.007825032230
         C            1.433609077129    -1.838977480559     0.660212396229    12.000000000000
         C           -1.003390922871    -1.731977480559     1.545212396229    12.000000000000
         C            0.312609077129    -1.394977480559     1.553212396229    12.000000000000
         C           -0.674390922871    -0.307977480559     3.189212396229    12.000000000000
         N           -1.593390922871    -1.039977480559     2.575212396229    14.003074004430
         N            0.496609077129    -0.498977480559     2.588212396229    14.003074004430
         H           -1.485390922871    -2.406977480559     0.856212396229     1.007825032230
         H           -2.592390922871    -1.004977480559     2.776212396229     1.007825032230
         H            1.872609077129    -0.951977480559     0.210212396229     1.007825032230
         H            1.029609077129    -2.458977480559    -0.141787603771     1.007825032230
         H           -0.858390922871     0.353022519441     4.029212396229     1.007825032230
         H            2.222490077129    -2.389610480559     1.193572396229     1.007825032230

  Running in c1 symmetry.

  Rotational constants: A =      0.03034  B =      0.01677  C =      0.01337 [cm^-1]
  Rotational constants: A =    909.43534  B =    502.70489  C =    400.93238 [MHz]
  Nuclear repulsion =  858.739572125121185

  Charge       = 0
  Multiplicity = 1
  Electrons    = 102
  Nalpha       = 51
  Nbeta        = 51

  ==> Algorithm <==

  SCF Algorithm Type is PK.
  DIIS enabled.
  MOM disabled.
  Fractional occupation disabled.
  Guess Type is SAD.
  Energy threshold   = 1.00e-06
  Density threshold  = 1.00e-10
  Integral threshold = 0.00e+00

  ==> Primary Basis <==

  Basis Set: CC-PVDZ
    Blend: CC-PVDZ
    Number of shells: 132
    Number of basis function: 276
    Number of Cartesian functions: 290
    Spherical Harmonics?: true
    Max angular momentum: 2

  ==> Pre-Iterations <==

   -------------------------------------------------------
    Irrep   Nso     Nmo     Nalpha   Nbeta   Ndocc  Nsocc
   -------------------------------------------------------
     A        276     276       0       0       0       0
   -------------------------------------------------------
    Total     276     276      51      51      51       0
   -------------------------------------------------------

  ==> Integral Setup <==

  Using integral reordering PK algorithm.
  Sizing the integral batches needed.
  Building batch lookup table.
   Calculation information:
      Number of atoms:                  30
      Number of AO shells:             132
      Number of primitives:            388
      Number of atomic orbitals:       290
      Number of basis functions:       276

      Integral cutoff                 1.00e-12
      Number of threads:                 1

	Batch   1 pq = [       0,    9405] index = [             0,44231715] size =     44231715
	Batch   2 pq = [    9405,   13301] index = [      44231715,88464951] size =     44233236
	Batch   3 pq = [   13301,   16290] index = [      88464951,132690195] size =     44225244
	Batch   4 pq = [   16290,   18810] index = [     132690195,176917455] size =     44227260
	Batch   5 pq = [   18810,   21030] index = [     176917455,221140965] size =     44223510
	Batch   6 pq = [   21030,   23037] index = [     221140965,265363203] size =     44222238
	Batch   7 pq = [   23037,   24883] index = [     265363203,309594286] size =     44231083
	Batch   8 pq = [   24883,   26601] index = [     309594286,353819901] size =     44225615
	Batch   9 pq = [   26601,   28214] index = [     353819901,398029005] size =     44209104
	Batch  10 pq = [   28214,   29740] index = [     398029005,442248670] size =     44219665
	Batch  11 pq = [   29740,   31191] index = [     442248670,486454836] size =     44206166
	Batch  12 pq = [   31191,   32578] index = [     486454836,530679331] size =     44224495
	Batch  13 pq = [   32578,   33908] index = [     530679331,574893186] size =     44213855
	Batch  14 pq = [   33908,   35188] index = [     574893186,619115266] size =     44222080
	Batch  15 pq = [   35188,   36423] index = [     619115266,663335676] size =     44220410
	Batch  16 pq = [   36423,   37617] index = [     663335676,707538153] size =     44202477
	Batch  17 pq = [   37617,   38226] index = [     707538153,730632651] size =     23094498
  Task number: 67
  Buffer size: 11059200
  Buffer per thread: 2
  We computed 47348806 shell quartets total.
  Whereas there are 38531031 unique shell quartets.
    22.88 percent of shell quartets recomputed by reordering.

  ==> DiskJK: Disk-Based J/K Matrices <==

    J tasked:                  Yes
    K tasked:                  Yes
    wK tasked:                  No
    Memory [MiB]:              375
    Schwarz Cutoff:          1E-12

    OpenMP threads:              1

  Minimum eigenvalue in the overlap matrix is 3.0519001309E-04.
  Using Symmetric Orthogonalization.

  SCF Guess: Superposition of Atomic Densities via on-the-fly atomic UHF.

  ==> Iterations <==

                        Total Energy        Delta E     RMS |[F,P]|

   @RHF iter SAD:  -571.82088572246050   -5.71821e+02   0.00000e+00
   @RHF iter   1:  -572.35063057159346   -5.29745e-01   2.46759e-03 DIIS
   @RHF iter   2:  -572.60365609153280   -2.53026e-01   1.22586e-03 DIIS
   @RHF iter   3:  -572.65902547916630   -5.53694e-02   3.32455e-04 DIIS
   @RHF iter   4:  -572.66415445947564   -5.12898e-03   1.35111e-04 DIIS
   @RHF iter   5:  -572.66492312476578   -7.68665e-04   1.89078e-05 DIIS
   @RHF iter   6:  -572.66494951588072   -2.63911e-05   8.20253e-06 DIIS
   @RHF iter   7:  -572.66495371182782   -4.19595e-06   2.75559e-06 DIIS
   @RHF iter   8:  -572.66495453511209   -8.23284e-07   1.24725e-06 DIIS
   @RHF iter   9:  -572.66495472516146   -1.90049e-07   5.24379e-07 DIIS
   @RHF iter  10:  -572.66495475842805   -3.32666e-08   1.64279e-07 DIIS
   @RHF iter  11:  -572.66495476220268   -3.77463e-09   6.27271e-08 DIIS
   @RHF iter  12:  -572.66495476267414   -4.71459e-10   2.79227e-08 DIIS
   @RHF iter  13:  -572.66495476275691   -8.27640e-11   9.26124e-09 DIIS
   @RHF iter  14:  -572.66495476276873   -1.18234e-11   3.82442e-09 DIIS
   @RHF iter  15:  -572.66495476277203   -3.29692e-12   1.39489e-09 DIIS
   @RHF iter  16:  -572.66495476276839    3.63798e-12   6.20223e-10 DIIS
   @RHF iter  17:  -572.66495476277146   -3.06954e-12   2.74640e-10 DIIS
   @RHF iter  18:  -572.66495476276850    2.95586e-12   8.84576e-11 DIIS
  Energy and wave function converged.

  ==> Post-Iterations <==

    Orbital Energies [Eh]
    ---------------------

    Doubly Occupied:

       1A    -15.617749     2A    -15.523652     3A    -11.289427
       4A    -11.244282     5A    -11.235765     6A    -11.231276
       7A    -11.230383     8A    -11.228434     9A    -11.225673
      10A    -11.224828    11A    -11.224620    12A    -11.223362
      13A    -11.221727    14A    -11.211041    15A     -1.338476
      16A     -1.151018    17A     -1.147947    18A     -1.061838
      19A     -1.024583    20A     -1.006109    21A     -0.977776
      22A     -0.932986    23A     -0.860483    24A     -0.820308
      25A     -0.812605    26A     -0.781037    27A     -0.757784
      28A     -0.735951    29A     -0.687836    30A     -0.636210
      31A     -0.629416    32A     -0.605523    33A     -0.599964
      34A     -0.594529    35A     -0.590469    36A     -0.582533
      37A     -0.571104    38A     -0.546106    39A     -0.536439
      40A     -0.531742    41A     -0.513464    42A     -0.513198
      43A     -0.496705    44A     -0.473668    45A     -0.470860
      46A     -0.466058    47A     -0.406170    48A     -0.373657
      49A     -0.325381    50A     -0.319769    51A     -0.302493

    Virtual:

      52A      0.137689    53A      0.146501    54A      0.168439
      55A      0.182990    56A      0.193782    57A      0.202361
      58A      0.207675    59A      0.221213    60A      0.226101
      61A      0.231916    62A      0.243881    63A      0.249949
      64A      0.254379    65A      0.264844    66A      0.267304
      67A      0.285688    68A      0.301776    69A      0.309720
      70A      0.326535    71A      0.337692    72A      0.353544
      73A      0.377764    74A      0.395312    75A      0.399799
      76A      0.404359    77A      0.429516    78A      0.456961
      79A      0.473679    80A      0.480170    81A      0.494467
      82A      0.497022    83A      0.506333    84A      0.570323
      85A      0.582870    86A      0.596776    87A      0.606018
      88A      0.615993    89A      0.622395    90A      0.634740
      91A      0.655006    92A      0.666566    93A      0.685621
      94A      0.695451    95A      0.708283    96A      0.720910
      97A      0.730735    98A      0.741576    99A      0.746119
     100A      0.750040   101A      0.757412   102A      0.770058
     103A      0.778278   104A      0.787675   105A      0.792009
     106A      0.811857   107A      0.817246   108A      0.836093
     109A      0.839355   110A      0.848990   111A      0.864710
     112A      0.878914   113A      0.882628   114A      0.890471
     115A      0.895093   116A      0.899686   117A      0.908603
     118A      0.909765   119A      0.918069   120A      0.927066
     121A      0.933246   122A      0.937961   123A      0.948860
     124A      0.957814   125A      0.969175   126A      0.979039
     127A      0.985082   128A      0.991963   129A      1.009657
     130A      1.012737   131A      1.043562   132A      1.050011
     133A      1.065152   134A      1.077431   135A      1.101530
     136A      1.108272   137A      1.120126   138A      1.126999
     139A      1.138222   140A      1.154855   141A      1.157977
     142A      1.162989   143A      1.175185   144A      1.199183
     145A      1.200510   146A      1.236043   147A      1.251719
     148A      1.257275   149A      1.266759   150A      1.280481
     151A      1.305483   152A      1.310691   153A      1.321954
     154A      1.323516   155A      1.326877   156A      1.334106
     157A      1.349877   158A      1.366867   159A      1.405456
     160A      1.428058   161A      1.443289   162A      1.456362
     163A      1.460520   164A      1.498137   165A      1.521523
     166A      1.528389   167A      1.550892   168A      1.580218
     169A      1.605733   170A      1.617737   171A      1.624049
     172A      1.670670   173A      1.682869   174A      1.688079
     175A      1.689052   176A      1.724658   177A      1.751496
     178A      1.764627   179A      1.774726   180A      1.777659
     181A      1.789932   182A      1.825805   183A      1.829540
     184A      1.843043   185A      1.861388   186A      1.877177
     187A      1.884244   188A      1.891509   189A      1.901027
     190A      1.914811   191A      1.923020   192A      1.927207
     193A      1.938224   194A      1.943181   195A      1.947337
     196A      1.957210   197A      1.958879   198A      1.967409
     199A      1.975001   200A      1.979355   201A      1.982509
     202A      1.995328   203A      2.007038   204A      2.021097
     205A      2.029793   206A      2.034933   207A      2.041313
     208A      2.065015   209A      2.078395   210A      2.090106
     211A      2.110833   212A      2.118324   213A      2.118505
     214A      2.135530   215A      2.138658   216A      2.164571
     217A      2.174959   218A      2.180687   219A      2.187209
     220A      2.197672   221A      2.204866   222A      2.233311
     223A      2.241882   224A      2.255562   225A      2.264624
     226A      2.282949   227A      2.312120   228A      2.331849
     229A      2.333700   230A      2.360230   231A      2.372447
     232A      2.403876   233A      2.429206   234A      2.458606
     235A      2.460994   236A      2.465850   237A      2.492619
     238A      2.499358   239A      2.510992   240A      2.544116
     241A      2.551449   242A      2.563090   243A      2.607760
     244A      2.619927   245A      2.649250   246A      2.703650
     247A      2.748556   248A      2.753377   249A      2.765278
     250A      2.770800   251A      2.784733   252A      2.793077
     253A      2.801771   254A      2.813633   255A      2.828040
     256A      2.837964   257A      2.849843   258A      2.874349
     259A      2.889301   260A      2.913145   261A      2.916985
     262A      2.924597   263A      2.976029   264A      2.977430
     265A      3.016878   266A      3.048469   267A      3.071769
     268A      3.083303   269A      3.172558   270A      3.194855
     271A      3.222366   272A      3.249473   273A      3.319951
     274A      3.484713   275A      3.803296   276A      3.989078

    Final Occupation by Irrep:
              A
    DOCC [    51 ]

  @RHF Final Energy:  -572.66495476276850

   => Energetics <=

    Nuclear Repulsion Energy =            858.7395721251211853
    One-Electron Energy =               -2480.5802246273442506
    Two-Electron Energy =                1049.1756977394545629
    Total Energy =                       -572.6649547627685024

Computation Completed

Properties will be evaluated at   0.000000,   0.000000,   0.000000 [a0]

Properties computed using the SCF density matrix

  Nuclear Dipole Moment: [e a0]
     X:    -4.5784      Y:     0.0667      Z:    -7.4588

  Electronic Dipole Moment: [e a0]
     X:     3.2204      Y:    -0.2783      Z:     7.4845

  Dipole Moment: [e a0]
     X:    -1.3580      Y:    -0.2117      Z:     0.0258     Total:     1.3746

  Dipole Moment: [D]
     X:    -3.4517      Y:    -0.5380      Z:     0.0655     Total:     3.4940

*** tstop() called on ds3 at Mon Apr 27 20:43:42 2020
Module time:
	user time   =     379.00 seconds =       6.32 minutes
	system time =     120.92 seconds =       2.02 minutes
	total time  =        748 seconds =      12.47 minutes
Total time:
	user time   =     379.00 seconds =       6.32 minutes
	system time =     120.92 seconds =       2.02 minutes
	total time  =        748 seconds =      12.47 minutes
                                     G D M A

                                 by Anthony Stone

                           version 2.2.06, 22 June 2011

               Distributed Multipoles from Gaussian wavefunctions

Starting at 20:43:42 on 27 Apr 2020

Using SCF density matrix from file ./SSI/SSI-127PHE-140HIE-1-dimer.test.15264.fchk

                         Distributed Multipole Analysis

Standard DMA

Positions and radii in angstrom
Multipole moments in atomic units, ea_0^k for rank k

C          x = -1.837391  y =  0.515023  z = -1.156788 angstrom
           Maximum rank =  0   Radius =  0.650 angstrom
                   Q00  =  -0.044398

C          x = -2.624391  y =  1.087023  z = -2.339788 angstrom
           Maximum rank =  0   Radius =  0.650 angstrom
                   Q00  =  -0.236255

C          x = -0.360391  y =  0.708023  z = -1.299788 angstrom
           Maximum rank =  0   Radius =  0.650 angstrom
                   Q00  =  -0.085566

C          x =  0.326609  y =  0.065023  z = -2.323788 angstrom
           Maximum rank =  0   Radius =  0.650 angstrom
                   Q00  =  -0.049148

C          x =  0.332609  y =  1.561023  z = -0.446788 angstrom
           Maximum rank =  0   Radius =  0.650 angstrom
                   Q00  =  -0.068930

C          x =  1.695609  y =  0.266023  z = -2.492788 angstrom
           Maximum rank =  0   Radius =  0.650 angstrom
                   Q00  =  -0.077426

C          x =  1.703609  y =  1.752023  z = -0.608788 angstrom
           Maximum rank =  0   Radius =  0.650 angstrom
                   Q00  =  -0.016201

C          x =  2.385609  y =  1.110023  z = -1.637788 angstrom
           Maximum rank =  0   Radius =  0.650 angstrom
                   Q00  =  -0.092516

H          x = -2.184391  y =  0.988023  z = -0.238788 angstrom
           Maximum rank =  0   Radius =  0.325 angstrom
                   Q00  =   0.059058

H          x = -2.032391  y = -0.549977  z = -1.067788 angstrom
           Maximum rank =  0   Radius =  0.325 angstrom
                   Q00  =   0.065332

H          x = -2.234391  y =  0.618023  z = -3.239788 angstrom
           Maximum rank =  0   Radius =  0.325 angstrom
                   Q00  =   0.078568

H          x = -0.197391  y = -0.600977  z = -2.993788 angstrom
           Maximum rank =  0   Radius =  0.325 angstrom
                   Q00  =   0.052807

H          x = -0.184391  y =  2.065023  z =  0.353212 angstrom
           Maximum rank =  0   Radius =  0.325 angstrom
                   Q00  =   0.059488

H          x =  2.219609  y = -0.238977  z = -3.292788 angstrom
           Maximum rank =  0   Radius =  0.325 angstrom
                   Q00  =   0.061842

H          x =  2.236609  y =  2.396023  z =  0.075212 angstrom
           Maximum rank =  0   Radius =  0.325 angstrom
                   Q00  =   0.068135

H          x =  3.445609  y =  1.256023  z = -1.755788 angstrom
           Maximum rank =  0   Radius =  0.325 angstrom
                   Q00  =   0.060036

H          x = -2.453819  y =  2.171323  z = -2.411928 angstrom
           Maximum rank =  0   Radius =  0.325 angstrom
                   Q00  =   0.085837

H          x = -3.690737  y =  0.821334  z = -2.291678 angstrom
           Maximum rank =  0   Radius =  0.325 angstrom
                   Q00  =   0.081450

C          x =  1.433609  y = -1.838977  z =  0.660212 angstrom
           Maximum rank =  0   Radius =  0.650 angstrom
                   Q00  =  -0.195676

C          x = -1.003391  y = -1.731977  z =  1.545212 angstrom
           Maximum rank =  0   Radius =  0.650 angstrom
                   Q00  =  -0.009193

C          x =  0.312609  y = -1.394977  z =  1.553212 angstrom
           Maximum rank =  0   Radius =  0.650 angstrom
                   Q00  =   0.232397

C          x = -0.674391  y = -0.307977  z =  3.189212 angstrom
           Maximum rank =  0   Radius =  0.650 angstrom
                   Q00  =   0.456521

N          x = -1.593391  y = -1.039977  z =  2.575212 angstrom
           Maximum rank =  0   Radius =  0.650 angstrom
                   Q00  =  -0.477434

N          x =  0.496609  y = -0.498977  z =  2.588212 angstrom
           Maximum rank =  0   Radius =  0.650 angstrom
                   Q00  =  -0.766654

H          x = -1.485391  y = -2.406977  z =  0.856212 angstrom
           Maximum rank =  0   Radius =  0.325 angstrom
                   Q00  =   0.099929

H          x = -2.592391  y = -1.004977  z =  2.776212 angstrom
           Maximum rank =  0   Radius =  0.325 angstrom
                   Q00  =   0.216761

H          x =  1.872609  y = -0.951977  z =  0.210212 angstrom
           Maximum rank =  0   Radius =  0.325 angstrom
                   Q00  =   0.129585

H          x =  1.029609  y = -2.458977  z = -0.141788 angstrom
           Maximum rank =  0   Radius =  0.325 angstrom
                   Q00  =   0.087076

H          x = -0.858391  y =  0.353023  z =  4.029212 angstrom
           Maximum rank =  0   Radius =  0.325 angstrom
                   Q00  =   0.121062

H          x =  2.222490  y = -2.389610  z =  1.193572 angstrom
           Maximum rank =  0   Radius =  0.325 angstrom
                   Q00  =   0.103510

Total multipoles referred to origin at
           x =   0.000000,  y =    0.000000,  z =    0.000000 angstrom
                   Q00  =  -0.000000

Finished at 20:43:42 on 27 Apr 2020

  DMA results are available in the Python driver through the
	  variable('DMA DISTRIBUTED MULTIPOLES')
  and
	  variable('DMA TOTAL MULTIPOLES')
  commands.

    Psi4 stopped on: Monday, 27 April 2020 08:43PM
    Psi4 wall time for execution: 0:12:28.32

*** Psi4 exiting successfully. Buy a developer a beer!
