                               Psi4 1.3.2 release

  ==> Input File <==

--------------------------------------------------------------------------
import numpy as np
set {scf_type pk
basis cc-pvdz
d_convergence 10
gdma_switch   0
gdma_limit    0
gdma_origin   [ 0.0,  0.0,  0.0 ]
}
molecule test {
    units Angstrom
    0 1
    --
    0 1
    C               -0.554517593076495    -1.607960596683494     0.774822572223617
    C               -0.336517593076494    -2.521960596683494     1.991822572223617
    H               -1.617517593076494    -1.536960596683494     0.541822572223617
    H               -0.199517593076494    -0.606960596683494     1.013822572223617
    H               -0.003517593076494    -1.988960596683494    -0.085177427776383
    H               -0.998517593076494    -2.200960596683494     2.789822572223617
    H               -0.548967593076494    -3.571160596683494     1.738762572223617
    H                0.697722406923506    -2.459450596683495     2.361192572223617
    C               -0.106517593076494     1.519039403316506    -1.391177427776383
    C                0.991482406923506     2.614039403316506    -1.385177427776383
    H               -0.345517593076494     1.232039403316506    -2.416177427776383
    H                0.260482406923506     0.643039403316506    -0.861177427776383
    H               -1.006517593076494     1.889039403316506    -0.900177427776383
    H                1.881482406923506     2.211039403316506    -1.869177427776383
    H                1.230482406923506     2.782039403316506    -0.339177427776383
    H                0.722182406923506     3.569659403316505    -1.858746427776383

}
e, wfn = energy('scf', return_wfn=True)
gdma(wfn)
dmavals = variable('DMA DISTRIBUTED MULTIPOLES')
charges = np.array(dmavals)
print(charges)
np.save('SSI-195LEU-237ILE-1-dimer.npy', np.array(charges))--------------------------------------------------------------------------

*** tstart() called on ds3
*** at Tue Apr 28 20:00:12 2020

   => Loading Basis Set <=

    Name: CC-PVDZ
    Role: ORBITAL
    Keyword: BASIS
    atoms 1-2, 9-10  entry C          line   138 file /theoryfs2/ds/metcalf/miniconda2/envs/tf2gpu/share/psi4/basis/cc-pvdz.gbs
    atoms 3-8, 11-16 entry H          line    22 file /theoryfs2/ds/metcalf/miniconda2/envs/tf2gpu/share/psi4/basis/cc-pvdz.gbs

         ---------------------------------------------------------
                                   SCF
               by Justin Turney, Rob Parrish, Andy Simmonett
                          and Daniel G. A. Smith
                              RHF Reference
                        1 Threads,    500 MiB Core
         ---------------------------------------------------------

  ==> Geometry <==

    Molecular point group: c1
    Full point group: C1

    Geometry (in Angstrom), charge = 0, multiplicity = 1:

       Center              X                  Y                   Z               Mass
    ------------   -----------------  -----------------  -----------------  -----------------
         C           -0.554517593076    -1.607960596683     0.774822572224    12.000000000000
         C           -0.336517593076    -2.521960596683     1.991822572224    12.000000000000
         H           -1.617517593076    -1.536960596683     0.541822572224     1.007825032230
         H           -0.199517593076    -0.606960596683     1.013822572224     1.007825032230
         H           -0.003517593076    -1.988960596683    -0.085177427776     1.007825032230
         H           -0.998517593076    -2.200960596683     2.789822572224     1.007825032230
         H           -0.548967593076    -3.571160596683     1.738762572224     1.007825032230
         H            0.697722406924    -2.459450596683     2.361192572224     1.007825032230
         C           -0.106517593076     1.519039403317    -1.391177427776    12.000000000000
         C            0.991482406924     2.614039403317    -1.385177427776    12.000000000000
         H           -0.345517593076     1.232039403317    -2.416177427776     1.007825032230
         H            0.260482406924     0.643039403317    -0.861177427776     1.007825032230
         H           -1.006517593076     1.889039403317    -0.900177427776     1.007825032230
         H            1.881482406924     2.211039403317    -1.869177427776     1.007825032230
         H            1.230482406924     2.782039403317    -0.339177427776     1.007825032230
         H            0.722182406924     3.569659403317    -1.858746427776     1.007825032230

  Running in c1 symmetry.

  Rotational constants: A =      0.64250  B =      0.04007  C =      0.03884 [cm^-1]
  Rotational constants: A =  19261.64873  B =   1201.14783  C =   1164.50913 [MHz]
  Nuclear repulsion =  119.111949879006460

  Charge       = 0
  Multiplicity = 1
  Electrons    = 36
  Nalpha       = 18
  Nbeta        = 18

  ==> Algorithm <==

  SCF Algorithm Type is PK.
  DIIS enabled.
  MOM disabled.
  Fractional occupation disabled.
  Guess Type is SAD.
  Energy threshold   = 1.00e-06
  Density threshold  = 1.00e-10
  Integral threshold = 0.00e+00

  ==> Primary Basis <==

  Basis Set: CC-PVDZ
    Blend: CC-PVDZ
    Number of shells: 60
    Number of basis function: 116
    Number of Cartesian functions: 120
    Spherical Harmonics?: true
    Max angular momentum: 2

  ==> Pre-Iterations <==

   -------------------------------------------------------
    Irrep   Nso     Nmo     Nalpha   Nbeta   Ndocc  Nsocc
   -------------------------------------------------------
     A        116     116       0       0       0       0
   -------------------------------------------------------
    Total     116     116      18      18      18       0
   -------------------------------------------------------

  ==> Integral Setup <==

  Using integral reordering PK algorithm.
  Sizing the integral batches needed.
  Building batch lookup table.
   Calculation information:
      Number of atoms:                  16
      Number of AO shells:              60
      Number of primitives:            148
      Number of atomic orbitals:       120
      Number of basis functions:       116

      Integral cutoff                 1.00e-12
      Number of threads:                 1

	Batch   1 pq = [       0,    6786] index = [             0,23028291] size =     23028291
  Task number: 3
  Buffer size: 11059200
  Buffer per thread: 2
  We computed 1316444 shell quartets total.
  Whereas there are 1675365 unique shell quartets.

  ==> DiskJK: Disk-Based J/K Matrices <==

    J tasked:                  Yes
    K tasked:                  Yes
    wK tasked:                  No
    Memory [MiB]:              375
    Schwarz Cutoff:          1E-12

    OpenMP threads:              1

  Minimum eigenvalue in the overlap matrix is 6.6079123268E-03.
  Using Symmetric Orthogonalization.

  SCF Guess: Superposition of Atomic Densities via on-the-fly atomic UHF.

  ==> Iterations <==

                        Total Energy        Delta E     RMS |[F,P]|

   @RHF iter SAD:  -157.30763668366569   -1.57308e+02   0.00000e+00
   @RHF iter   1:  -158.30956346663959   -1.00193e+00   4.16506e-03 DIIS
   @RHF iter   2:  -158.44069598120919   -1.31133e-01   1.75965e-03 DIIS
   @RHF iter   3:  -158.46324935591286   -2.25534e-02   3.47483e-04 DIIS
   @RHF iter   4:  -158.46505823709472   -1.80888e-03   3.92401e-05 DIIS
   @RHF iter   5:  -158.46508240510212   -2.41680e-05   7.07600e-06 DIIS
   @RHF iter   6:  -158.46508311064343   -7.05541e-07   1.44265e-06 DIIS
   @RHF iter   7:  -158.46508312978528   -1.91419e-08   3.26313e-07 DIIS
   @RHF iter   8:  -158.46508313087170   -1.08642e-09   3.95904e-08 DIIS
   @RHF iter   9:  -158.46508313089728   -2.55795e-11   7.77596e-09 DIIS
   @RHF iter  10:  -158.46508313089814   -8.52651e-13   2.62728e-09 DIIS
   @RHF iter  11:  -158.46508313089859   -4.54747e-13   5.67007e-10 DIIS
   @RHF iter  12:  -158.46508313089859    0.00000e+00   8.81171e-11 DIIS
  Energy and wave function converged.

  ==> Post-Iterations <==

    Orbital Energies [Eh]
    ---------------------

    Doubly Occupied:

       1A    -11.219593     2A    -11.218493     3A    -11.218244
       4A    -11.216997     5A     -1.016814     6A     -1.012591
       7A     -0.841470     8A     -0.836051     9A     -0.600134
      10A     -0.598468    11A     -0.595315    12A     -0.591498
      13A     -0.507131    14A     -0.494604    15A     -0.489639
      16A     -0.486774    17A     -0.484789    18A     -0.479188

    Virtual:

      19A      0.175666    20A      0.194963    21A      0.223053
      22A      0.243029    23A      0.246950    24A      0.255936
      25A      0.262364    26A      0.272993    27A      0.280447
      28A      0.287937    29A      0.305148    30A      0.323133
      31A      0.379468    32A      0.408955    33A      0.579189
      34A      0.589204    35A      0.595998    36A      0.602299
      37A      0.607179    38A      0.647952    39A      0.669589
      40A      0.690587    41A      0.703924    42A      0.755944
      43A      0.823641    44A      0.881527    45A      0.888348
      46A      0.889879    47A      0.893972    48A      0.897061
      49A      0.899019    50A      0.900623    51A      0.915914
      52A      0.921497    53A      0.922142    54A      0.935195
      55A      0.974006    56A      1.001178    57A      1.118577
      58A      1.123703    59A      1.133757    60A      1.152850
      61A      1.229220    62A      1.261730    63A      1.443267
      64A      1.468338    65A      1.472894    66A      1.490312
      67A      1.576103    68A      1.593219    69A      1.682656
      70A      1.686477    71A      1.692775    72A      1.700395
      73A      1.845431    74A      1.858433    75A      1.862224
      76A      1.876477    77A      1.883991    78A      1.909771
      79A      1.926942    80A      1.941222    81A      1.944162
      82A      1.946686    83A      1.951745    84A      1.956779
      85A      1.957474    86A      1.963120    87A      1.978347
      88A      2.032353    89A      2.074983    90A      2.104129
      91A      2.115566    92A      2.144484    93A      2.292270
      94A      2.298650    95A      2.310601    96A      2.328566
      97A      2.438358    98A      2.448009    99A      2.462770
     100A      2.486787   101A      2.550175   102A      2.558841
     103A      2.576864   104A      2.589122   105A      2.756386
     106A      2.772872   107A      2.780938   108A      2.802865
     109A      2.837342   110A      2.845662   111A      2.856812
     112A      2.875457   113A      2.935732   114A      2.942217
     115A      2.958046   116A      2.973244

    Final Occupation by Irrep:
              A
    DOCC [    18 ]

  @RHF Final Energy:  -158.46508313089859

   => Energetics <=

    Nuclear Repulsion Energy =            119.1119498790064597
    One-Electron Energy =                -447.3384851489001335
    Two-Electron Energy =                 169.7614521389951108
    Total Energy =                       -158.4650831308985914

Computation Completed

Properties will be evaluated at   0.000000,   0.000000,   0.000000 [a0]

Properties computed using the SCF density matrix

  Nuclear Dipole Moment: [e a0]
     X:     0.0678      Y:    -0.0352      Z:     0.1084

  Electronic Dipole Moment: [e a0]
     X:    -0.0705      Y:     0.0184      Z:    -0.0875

  Dipole Moment: [e a0]
     X:    -0.0027      Y:    -0.0168      Z:     0.0209     Total:     0.0270

  Dipole Moment: [D]
     X:    -0.0069      Y:    -0.0428      Z:     0.0532     Total:     0.0686

*** tstop() called on ds3 at Tue Apr 28 20:00:22 2020
Module time:
	user time   =       7.18 seconds =       0.12 minutes
	system time =       3.08 seconds =       0.05 minutes
	total time  =         10 seconds =       0.17 minutes
Total time:
	user time   =       7.18 seconds =       0.12 minutes
	system time =       3.08 seconds =       0.05 minutes
	total time  =         10 seconds =       0.17 minutes
                                     G D M A

                                 by Anthony Stone

                           version 2.2.06, 22 June 2011

               Distributed Multipoles from Gaussian wavefunctions

Starting at 20:0:22 on 28 Apr 2020

Using SCF density matrix from file ./SSI/SSI-195LEU-237ILE-1-dimer.test.6784.fchk

                         Distributed Multipole Analysis

Standard DMA

Positions and radii in angstrom
Multipole moments in atomic units, ea_0^k for rank k

C          x = -0.554518  y = -1.607961  z =  0.774823 angstrom
           Maximum rank =  0   Radius =  0.650 angstrom
                   Q00  =  -0.237399

C          x = -0.336518  y = -2.521961  z =  1.991823 angstrom
           Maximum rank =  0   Radius =  0.650 angstrom
                   Q00  =  -0.240109

H          x = -1.617518  y = -1.536961  z =  0.541823 angstrom
           Maximum rank =  0   Radius =  0.325 angstrom
                   Q00  =   0.083032

H          x = -0.199518  y = -0.606961  z =  1.013823 angstrom
           Maximum rank =  0   Radius =  0.325 angstrom
                   Q00  =   0.077203

H          x = -0.003518  y = -1.988961  z = -0.085177 angstrom
           Maximum rank =  0   Radius =  0.325 angstrom
                   Q00  =   0.079110

H          x = -0.998518  y = -2.200961  z =  2.789823 angstrom
           Maximum rank =  0   Radius =  0.325 angstrom
                   Q00  =   0.081011

H          x = -0.548968  y = -3.571161  z =  1.738763 angstrom
           Maximum rank =  0   Radius =  0.325 angstrom
                   Q00  =   0.079565

H          x =  0.697722  y = -2.459451  z =  2.361193 angstrom
           Maximum rank =  0   Radius =  0.325 angstrom
                   Q00  =   0.078850

C          x = -0.106518  y =  1.519039  z = -1.391177 angstrom
           Maximum rank =  0   Radius =  0.650 angstrom
                   Q00  =  -0.241841

C          x =  0.991482  y =  2.614039  z = -1.385177 angstrom
           Maximum rank =  0   Radius =  0.650 angstrom
                   Q00  =  -0.245978

H          x = -0.345518  y =  1.232039  z = -2.416177 angstrom
           Maximum rank =  0   Radius =  0.325 angstrom
                   Q00  =   0.078780

H          x =  0.260482  y =  0.643039  z = -0.861177 angstrom
           Maximum rank =  0   Radius =  0.325 angstrom
                   Q00  =   0.088341

H          x = -1.006518  y =  1.889039  z = -0.900177 angstrom
           Maximum rank =  0   Radius =  0.325 angstrom
                   Q00  =   0.079722

H          x =  1.881482  y =  2.211039  z = -1.869177 angstrom
           Maximum rank =  0   Radius =  0.325 angstrom
                   Q00  =   0.078701

H          x =  1.230482  y =  2.782039  z = -0.339177 angstrom
           Maximum rank =  0   Radius =  0.325 angstrom
                   Q00  =   0.075560

H          x =  0.722182  y =  3.569659  z = -1.858746 angstrom
           Maximum rank =  0   Radius =  0.325 angstrom
                   Q00  =   0.085450

Total multipoles referred to origin at
           x =   0.000000,  y =    0.000000,  z =    0.000000 angstrom
                   Q00  =  -0.000000

Finished at 20:0:22 on 28 Apr 2020

  DMA results are available in the Python driver through the
	  variable('DMA DISTRIBUTED MULTIPOLES')
  and
	  variable('DMA TOTAL MULTIPOLES')
  commands.

    Psi4 stopped on: Tuesday, 28 April 2020 08:00PM
    Psi4 wall time for execution: 0:00:10.32

*** Psi4 exiting successfully. Buy a developer a beer!
