                               Psi4 1.3.2 release

  ==> Input File <==

--------------------------------------------------------------------------
import numpy as np
set {scf_type pk
basis cc-pvdz
d_convergence 10
gdma_switch   0
gdma_limit    0
gdma_origin   [ 0.0,  0.0,  0.0 ]
}
molecule test {
    units Angstrom
    0 1
    --
    0 1
    C                1.331816014626437     1.257973882571167    -1.677409617109135
    C                0.275816014626437     2.361973882571167    -1.570409617109135
    H                2.218816014626437     1.647973882571167    -2.177409617109136
    H                1.617816014626437     0.920973882571167    -0.684409617109135
    H                0.949816014626437     0.405973882571167    -2.236409617109135
    H               -0.624183985373563     1.910973882571167    -1.162409617109135
    H                0.048266014626437     2.829083882571167    -2.539961617109135
    H                0.545156014626437     3.095623882571167    -0.796321617109135
    C               -0.345183985373563    -1.959026117428833    -0.166409617109135
    C               -0.457183985373563    -0.875026117428833     0.856590382890865
    O               -1.565183985373563    -0.436026117428833     1.178590382890865
    N                0.669816014626437    -0.435026117428833     1.391590382890865
    H                0.482816014626437    -2.626026117428833     0.078590382890865
    H               -0.176183985373563    -1.516026117428833    -1.147409617109135
    H                0.620816014626437     0.284973882571167     2.098590382890865
    H                1.556816014626437    -0.832026117428833     1.117590382890865
    H               -1.294143985373563    -2.514566117428833    -0.137405617109135

}
e, wfn = energy('scf', return_wfn=True)
gdma(wfn)
dmavals = variable('DMA DISTRIBUTED MULTIPOLES')
charges = np.array(dmavals)
print(charges)
np.save('SSI-002LEU-006GLN-1-dimer.npy', np.array(charges))--------------------------------------------------------------------------

*** tstart() called on ds3
*** at Mon Apr 27 12:56:06 2020

   => Loading Basis Set <=

    Name: CC-PVDZ
    Role: ORBITAL
    Keyword: BASIS
    atoms 1-2, 9-10  entry C          line   138 file /theoryfs2/ds/metcalf/miniconda2/envs/tf2gpu/share/psi4/basis/cc-pvdz.gbs
    atoms 3-8, 13-17 entry H          line    22 file /theoryfs2/ds/metcalf/miniconda2/envs/tf2gpu/share/psi4/basis/cc-pvdz.gbs
    atoms 11         entry O          line   198 file /theoryfs2/ds/metcalf/miniconda2/envs/tf2gpu/share/psi4/basis/cc-pvdz.gbs
    atoms 12         entry N          line   168 file /theoryfs2/ds/metcalf/miniconda2/envs/tf2gpu/share/psi4/basis/cc-pvdz.gbs

         ---------------------------------------------------------
                                   SCF
               by Justin Turney, Rob Parrish, Andy Simmonett
                          and Daniel G. A. Smith
                              RHF Reference
                        1 Threads,    500 MiB Core
         ---------------------------------------------------------

  ==> Geometry <==

    Molecular point group: c1
    Full point group: C1

    Geometry (in Angstrom), charge = 0, multiplicity = 1:

       Center              X                  Y                   Z               Mass
    ------------   -----------------  -----------------  -----------------  -----------------
         C            1.331816014626     1.257973882571    -1.677409617109    12.000000000000
         C            0.275816014626     2.361973882571    -1.570409617109    12.000000000000
         H            2.218816014626     1.647973882571    -2.177409617109     1.007825032230
         H            1.617816014626     0.920973882571    -0.684409617109     1.007825032230
         H            0.949816014626     0.405973882571    -2.236409617109     1.007825032230
         H           -0.624183985374     1.910973882571    -1.162409617109     1.007825032230
         H            0.048266014626     2.829083882571    -2.539961617109     1.007825032230
         H            0.545156014626     3.095623882571    -0.796321617109     1.007825032230
         C           -0.345183985374    -1.959026117429    -0.166409617109    12.000000000000
         C           -0.457183985374    -0.875026117429     0.856590382891    12.000000000000
         O           -1.565183985374    -0.436026117429     1.178590382891    15.994914619570
         N            0.669816014626    -0.435026117429     1.391590382891    14.003074004430
         H            0.482816014626    -2.626026117429     0.078590382891     1.007825032230
         H           -0.176183985374    -1.516026117429    -1.147409617109     1.007825032230
         H            0.620816014626     0.284973882571     2.098590382891     1.007825032230
         H            1.556816014626    -0.832026117429     1.117590382891     1.007825032230
         H           -1.294143985374    -2.514566117429    -0.137405617109     1.007825032230

  Running in c1 symmetry.

  Rotational constants: A =      0.14491  B =      0.04745  C =      0.04534 [cm^-1]
  Rotational constants: A =   4344.35569  B =   1422.57221  C =   1359.11313 [MHz]
  Nuclear repulsion =  239.283210543928561

  Charge       = 0
  Multiplicity = 1
  Electrons    = 50
  Nalpha       = 25
  Nbeta        = 25

  ==> Algorithm <==

  SCF Algorithm Type is PK.
  DIIS enabled.
  MOM disabled.
  Fractional occupation disabled.
  Guess Type is SAD.
  Energy threshold   = 1.00e-06
  Density threshold  = 1.00e-10
  Integral threshold = 0.00e+00

  ==> Primary Basis <==

  Basis Set: CC-PVDZ
    Blend: CC-PVDZ
    Number of shells: 69
    Number of basis function: 139
    Number of Cartesian functions: 145
    Spherical Harmonics?: true
    Max angular momentum: 2

  ==> Pre-Iterations <==

   -------------------------------------------------------
    Irrep   Nso     Nmo     Nalpha   Nbeta   Ndocc  Nsocc
   -------------------------------------------------------
     A        139     139       0       0       0       0
   -------------------------------------------------------
    Total     139     139      25      25      25       0
   -------------------------------------------------------

  ==> Integral Setup <==

  Using integral reordering PK algorithm.
  Sizing the integral batches needed.
  Building batch lookup table.
   Calculation information:
      Number of atoms:                  17
      Number of AO shells:              69
      Number of primitives:            187
      Number of atomic orbitals:       145
      Number of basis functions:       139

      Integral cutoff                 1.00e-12
      Number of threads:                 1

	Batch   1 pq = [       0,    9730] index = [             0,47341315] size =     47341315
  Task number: 5
  Buffer size: 11059200
  Buffer per thread: 2
  We computed 2775388 shell quartets total.
  Whereas there are 2917320 unique shell quartets.

  ==> DiskJK: Disk-Based J/K Matrices <==

    J tasked:                  Yes
    K tasked:                  Yes
    wK tasked:                  No
    Memory [MiB]:              375
    Schwarz Cutoff:          1E-12

    OpenMP threads:              1

  Minimum eigenvalue in the overlap matrix is 4.3090687275E-03.
  Using Symmetric Orthogonalization.

  SCF Guess: Superposition of Atomic Densities via on-the-fly atomic UHF.

  ==> Iterations <==

                        Total Energy        Delta E     RMS |[F,P]|

   @RHF iter SAD:  -285.97715967994100   -2.85977e+02   0.00000e+00
   @RHF iter   1:  -286.99430375360782   -1.01714e+00   4.63066e-03 DIIS
   @RHF iter   2:  -287.16977013909354   -1.75466e-01   2.60078e-03 DIIS
   @RHF iter   3:  -287.21994480142854   -5.01747e-02   5.44311e-04 DIIS
   @RHF iter   4:  -287.22333391201107   -3.38911e-03   2.20766e-04 DIIS
   @RHF iter   5:  -287.22394000694885   -6.06095e-04   3.40630e-05 DIIS
   @RHF iter   6:  -287.22396997789565   -2.99709e-05   1.51171e-05 DIIS
   @RHF iter   7:  -287.22397462985236   -4.65196e-06   6.13761e-06 DIIS
   @RHF iter   8:  -287.22397567225045   -1.04240e-06   2.15482e-06 DIIS
   @RHF iter   9:  -287.22397580744473   -1.35194e-07   5.48609e-07 DIIS
   @RHF iter  10:  -287.22397581373104   -6.28631e-09   1.69376e-07 DIIS
   @RHF iter  11:  -287.22397581441305   -6.82007e-10   3.76621e-08 DIIS
   @RHF iter  12:  -287.22397581444704   -3.39924e-11   8.38660e-09 DIIS
   @RHF iter  13:  -287.22397581444960   -2.55795e-12   1.70527e-09 DIIS
   @RHF iter  14:  -287.22397581445011   -5.11591e-13   6.50868e-10 DIIS
   @RHF iter  15:  -287.22397581444932    7.95808e-13   2.45651e-10 DIIS
   @RHF iter  16:  -287.22397581444943   -1.13687e-13   7.94963e-11 DIIS
  Energy and wave function converged.

  ==> Post-Iterations <==

    Orbital Energies [Eh]
    ---------------------

    Doubly Occupied:

       1A    -20.503295     2A    -15.592107     3A    -11.346237
       4A    -11.240057     5A    -11.220596     6A    -11.217743
       7A     -1.365414     8A     -1.220316     9A     -1.019367
      10A     -1.004784    11A     -0.840800    12A     -0.801306
      13A     -0.730045    14A     -0.657097    15A     -0.621328
      16A     -0.602357    17A     -0.592264    18A     -0.568268
      19A     -0.555318    20A     -0.523539    21A     -0.504273
      22A     -0.493107    23A     -0.478797    24A     -0.410623
      25A     -0.403401

    Virtual:

      26A      0.155420    27A      0.186756    28A      0.204671
      29A      0.205947    30A      0.230111    31A      0.242933
      32A      0.260858    33A      0.264803    34A      0.269314
      35A      0.286948    36A      0.315643    37A      0.351067
      38A      0.391185    39A      0.394652    40A      0.471608
      41A      0.545727    42A      0.588859    43A      0.592903
      44A      0.605017    45A      0.637452    46A      0.654927
      47A      0.685089    48A      0.699533    49A      0.716354
      50A      0.728076    51A      0.746817    52A      0.814385
      53A      0.838334    54A      0.847253    55A      0.878349
      56A      0.887628    57A      0.893856    58A      0.900493
      59A      0.909732    60A      0.920631    61A      0.926229
      62A      0.949803    63A      0.967620    64A      0.978999
      65A      1.023998    66A      1.053947    67A      1.085706
      68A      1.116017    69A      1.133883    70A      1.139328
      71A      1.152850    72A      1.249614    73A      1.342110
      74A      1.355320    75A      1.384998    76A      1.407495
      77A      1.430648    78A      1.458861    79A      1.462102
      80A      1.490964    81A      1.505712    82A      1.581643
      83A      1.646041    84A      1.654067    85A      1.682431
      86A      1.700096    87A      1.741470    88A      1.811795
      89A      1.850204    90A      1.856189    91A      1.869982
      92A      1.886227    93A      1.891341    94A      1.897919
      95A      1.921515    96A      1.942141    97A      1.944536
      98A      1.951037    99A      1.963440   100A      1.974775
     101A      1.993030   102A      2.006893   103A      2.038143
     104A      2.083757   105A      2.106395   106A      2.140495
     107A      2.194507   108A      2.230904   109A      2.254489
     110A      2.305622   111A      2.318602   112A      2.417886
     113A      2.435783   114A      2.458443   115A      2.471282
     116A      2.494992   117A      2.553543   118A      2.558087
     119A      2.573981   120A      2.590696   121A      2.624381
     122A      2.731802   123A      2.754518   124A      2.765346
     125A      2.792782   126A      2.814593   127A      2.845817
     128A      2.849188   129A      2.886299   130A      2.952457
     131A      2.976262   132A      2.992225   133A      3.092548
     134A      3.140487   135A      3.283592   136A      3.505551
     137A      3.529087   138A      3.859587   139A      3.899129

    Final Occupation by Irrep:
              A
    DOCC [    25 ]

  @RHF Final Energy:  -287.22397581444943

   => Energetics <=

    Nuclear Repulsion Energy =            239.2832105439285613
    One-Electron Energy =                -863.9894890834822263
    Two-Electron Energy =                 337.4823027251042049
    Total Energy =                       -287.2239758144494317

Computation Completed

Properties will be evaluated at   0.000000,   0.000000,   0.000000 [a0]

Properties computed using the SCF density matrix

  Nuclear Dipole Moment: [e a0]
     X:     5.5645      Y:     3.3806      Z:    -7.1109

  Electronic Dipole Moment: [e a0]
     X:    -3.9832      Y:    -3.7925      Z:     6.9438

  Dipole Moment: [e a0]
     X:     1.5814      Y:    -0.4120      Z:    -0.1671     Total:     1.6427

  Dipole Moment: [D]
     X:     4.0195      Y:    -1.0471      Z:    -0.4247     Total:     4.1753

*** tstop() called on ds3 at Mon Apr 27 12:56:35 2020
Module time:
	user time   =      21.36 seconds =       0.36 minutes
	system time =       7.58 seconds =       0.13 minutes
	total time  =         29 seconds =       0.48 minutes
Total time:
	user time   =      21.36 seconds =       0.36 minutes
	system time =       7.58 seconds =       0.13 minutes
	total time  =         29 seconds =       0.48 minutes
                                     G D M A

                                 by Anthony Stone

                           version 2.2.06, 22 June 2011

               Distributed Multipoles from Gaussian wavefunctions

Starting at 12:56:35 on 27 Apr 2020

Using SCF density matrix from file ./SSI/SSI-002LEU-006GLN-1-dimer.test.4691.fchk

                         Distributed Multipole Analysis

Standard DMA

Positions and radii in angstrom
Multipole moments in atomic units, ea_0^k for rank k

C          x =  1.331816  y =  1.257974  z = -1.677410 angstrom
           Maximum rank =  0   Radius =  0.650 angstrom
                   Q00  =  -0.236760

C          x =  0.275816  y =  2.361974  z = -1.570410 angstrom
           Maximum rank =  0   Radius =  0.650 angstrom
                   Q00  =  -0.239720

H          x =  2.218816  y =  1.647974  z = -2.177410 angstrom
           Maximum rank =  0   Radius =  0.325 angstrom
                   Q00  =   0.076513

H          x =  1.617816  y =  0.920974  z = -0.684410 angstrom
           Maximum rank =  0   Radius =  0.325 angstrom
                   Q00  =   0.068695

H          x =  0.949816  y =  0.405974  z = -2.236410 angstrom
           Maximum rank =  0   Radius =  0.325 angstrom
                   Q00  =   0.074584

H          x = -0.624184  y =  1.910974  z = -1.162410 angstrom
           Maximum rank =  0   Radius =  0.325 angstrom
                   Q00  =   0.087273

H          x =  0.048266  y =  2.829084  z = -2.539962 angstrom
           Maximum rank =  0   Radius =  0.325 angstrom
                   Q00  =   0.083941

H          x =  0.545156  y =  3.095624  z = -0.796322 angstrom
           Maximum rank =  0   Radius =  0.325 angstrom
                   Q00  =   0.078361

C          x = -0.345184  y = -1.959026  z = -0.166410 angstrom
           Maximum rank =  0   Radius =  0.650 angstrom
                   Q00  =  -0.257648

C          x = -0.457184  y = -0.875026  z =  0.856590 angstrom
           Maximum rank =  0   Radius =  0.650 angstrom
                   Q00  =   0.820414

O          x = -1.565184  y = -0.436026  z =  1.178590 angstrom
           Maximum rank =  0   Radius =  0.650 angstrom
                   Q00  =  -0.803990

N          x =  0.669816  y = -0.435026  z =  1.391590 angstrom
           Maximum rank =  0   Radius =  0.650 angstrom
                   Q00  =  -0.524918

H          x =  0.482816  y = -2.626026  z =  0.078590 angstrom
           Maximum rank =  0   Radius =  0.325 angstrom
                   Q00  =   0.083479

H          x = -0.176184  y = -1.516026  z = -1.147410 angstrom
           Maximum rank =  0   Radius =  0.325 angstrom
                   Q00  =   0.132588

H          x =  0.620816  y =  0.284974  z =  2.098590 angstrom
           Maximum rank =  0   Radius =  0.325 angstrom
                   Q00  =   0.221873

H          x =  1.556816  y = -0.832026  z =  1.117590 angstrom
           Maximum rank =  0   Radius =  0.325 angstrom
                   Q00  =   0.208285

H          x = -1.294144  y = -2.514566  z = -0.137406 angstrom
           Maximum rank =  0   Radius =  0.325 angstrom
                   Q00  =   0.127032

Total multipoles referred to origin at
           x =   0.000000,  y =    0.000000,  z =    0.000000 angstrom
                   Q00  =  -0.000000

Finished at 12:56:35 on 27 Apr 2020

  DMA results are available in the Python driver through the
	  variable('DMA DISTRIBUTED MULTIPOLES')
  and
	  variable('DMA TOTAL MULTIPOLES')
  commands.

    Psi4 stopped on: Monday, 27 April 2020 12:56PM
    Psi4 wall time for execution: 0:00:28.60

*** Psi4 exiting successfully. Buy a developer a beer!
