                               Psi4 1.3.2 release

  ==> Input File <==

--------------------------------------------------------------------------
import numpy as np
set {scf_type pk
basis cc-pvdz
d_convergence 10
gdma_switch   0
gdma_limit    0
gdma_origin   [ 0.0,  0.0,  0.0 ]
}
molecule test {
    units Angstrom
    -1 1
    --
    -1 1
    C               -0.936323142541889     0.029745298277732    -3.165719923059172
    C               -1.035323142541889    -1.473254701722268    -2.927719923059173
    O               -0.995323142541889    -1.895254701722268    -1.754719923059173
    O               -1.117323142541889    -2.241254701722267    -3.908719923059173
    H                0.110676857458111     0.280745298277732    -3.019719923059173
    H               -1.536323142541889     0.579745298277732    -2.439719923059172
    H               -1.235893142541889     0.317099298277732    -4.184389923059173
    C                2.820676857458111     1.839745298277732     3.120280076940828
    C               -0.494323142541889     0.249745298277732     0.889280076940827
    C               -0.717323142541889     0.924745298277732     2.084280076940827
    C                0.801676857458111     0.090745298277732     0.409280076940827
    C                0.358676857458111     1.437745298277732     2.796280076940827
    C                1.872676857458111     0.607745298277732     1.132280076940827
    C                1.659676857458111     1.297745298277732     2.323280076940827
    O               -1.551323142541889    -0.248254701722268     0.198280076940827
    H               -2.370323142541889    -0.180254701722268     0.690280076940827
    H               -1.720323142541889     1.044745298277732     2.468280076940827
    H                0.957676857458111    -0.434254701722268    -0.519719923059173
    H                0.179676857458111     1.964745298277732     3.722280076940827
    H                2.882676857458111     0.468745298277732     0.769280076940827
    H                2.568676857458111     2.837745298277732     3.479280076940827
    H                3.697676857458111     1.931745298277732     2.478280076940827
    H                3.057994857458111     1.188384298277732     3.974335076940827

}
e, wfn = energy('scf', return_wfn=True)
gdma(wfn)
dmavals = variable('DMA DISTRIBUTED MULTIPOLES')
charges = np.array(dmavals)
print(charges)
np.save('SSI-223ASP-286TYR-1-dimer.npy', np.array(charges))--------------------------------------------------------------------------

*** tstart() called on ds3
*** at Mon Apr 27 07:00:18 2020

   => Loading Basis Set <=

    Name: CC-PVDZ
    Role: ORBITAL
    Keyword: BASIS
    atoms 1-2, 8-14  entry C          line   138 file /theoryfs2/ds/metcalf/miniconda2/envs/tf2gpu/share/psi4/basis/cc-pvdz.gbs
    atoms 3-4, 15    entry O          line   198 file /theoryfs2/ds/metcalf/miniconda2/envs/tf2gpu/share/psi4/basis/cc-pvdz.gbs
    atoms 5-7, 16-23 entry H          line    22 file /theoryfs2/ds/metcalf/miniconda2/envs/tf2gpu/share/psi4/basis/cc-pvdz.gbs

         ---------------------------------------------------------
                                   SCF
               by Justin Turney, Rob Parrish, Andy Simmonett
                          and Daniel G. A. Smith
                              RHF Reference
                        1 Threads,    500 MiB Core
         ---------------------------------------------------------

  ==> Geometry <==

    Molecular point group: c1
    Full point group: C1

    Geometry (in Angstrom), charge = -1, multiplicity = 1:

       Center              X                  Y                   Z               Mass
    ------------   -----------------  -----------------  -----------------  -----------------
         C           -0.936323142542     0.029745298278    -3.165719923059    12.000000000000
         C           -1.035323142542    -1.473254701722    -2.927719923059    12.000000000000
         O           -0.995323142542    -1.895254701722    -1.754719923059    15.994914619570
         O           -1.117323142542    -2.241254701722    -3.908719923059    15.994914619570
         H            0.110676857458     0.280745298278    -3.019719923059     1.007825032230
         H           -1.536323142542     0.579745298278    -2.439719923059     1.007825032230
         H           -1.235893142542     0.317099298278    -4.184389923059     1.007825032230
         C            2.820676857458     1.839745298278     3.120280076941    12.000000000000
         C           -0.494323142542     0.249745298278     0.889280076941    12.000000000000
         C           -0.717323142542     0.924745298278     2.084280076941    12.000000000000
         C            0.801676857458     0.090745298278     0.409280076941    12.000000000000
         C            0.358676857458     1.437745298278     2.796280076941    12.000000000000
         C            1.872676857458     0.607745298278     1.132280076941    12.000000000000
         C            1.659676857458     1.297745298278     2.323280076941    12.000000000000
         O           -1.551323142542    -0.248254701722     0.198280076941    15.994914619570
         H           -2.370323142542    -0.180254701722     0.690280076941     1.007825032230
         H           -1.720323142542     1.044745298278     2.468280076941     1.007825032230
         H            0.957676857458    -0.434254701722    -0.519719923059     1.007825032230
         H            0.179676857458     1.964745298278     3.722280076941     1.007825032230
         H            2.882676857458     0.468745298278     0.769280076941     1.007825032230
         H            2.568676857458     2.837745298278     3.479280076941     1.007825032230
         H            3.697676857458     1.931745298278     2.478280076941     1.007825032230
         H            3.057994857458     1.188384298278     3.974335076941     1.007825032230

  Running in c1 symmetry.

  Rotational constants: A =      0.07779  B =      0.01189  C =      0.01100 [cm^-1]
  Rotational constants: A =   2332.19754  B =    356.30399  C =    329.63769 [MHz]
  Nuclear repulsion =  644.643370622529233

  Charge       = -1
  Multiplicity = 1
  Electrons    = 90
  Nalpha       = 45
  Nbeta        = 45

  ==> Algorithm <==

  SCF Algorithm Type is PK.
  DIIS enabled.
  MOM disabled.
  Fractional occupation disabled.
  Guess Type is SAD.
  Energy threshold   = 1.00e-06
  Density threshold  = 1.00e-10
  Integral threshold = 0.00e+00

  ==> Primary Basis <==

  Basis Set: CC-PVDZ
    Blend: CC-PVDZ
    Number of shells: 105
    Number of basis function: 223
    Number of Cartesian functions: 235
    Spherical Harmonics?: true
    Max angular momentum: 2

  ==> Pre-Iterations <==

   -------------------------------------------------------
    Irrep   Nso     Nmo     Nalpha   Nbeta   Ndocc  Nsocc
   -------------------------------------------------------
     A        223     223       0       0       0       0
   -------------------------------------------------------
    Total     223     223      45      45      45       0
   -------------------------------------------------------

  ==> Integral Setup <==

  Using integral reordering PK algorithm.
  Sizing the integral batches needed.
  Building batch lookup table.
   Calculation information:
      Number of atoms:                  23
      Number of AO shells:             105
      Number of primitives:            319
      Number of atomic orbitals:       235
      Number of basis functions:       223

      Integral cutoff                 1.00e-12
      Number of threads:                 1

	Batch   1 pq = [       0,    9405] index = [             0,44231715] size =     44231715
	Batch   2 pq = [    9405,   13301] index = [      44231715,88464951] size =     44233236
	Batch   3 pq = [   13301,   16290] index = [      88464951,132690195] size =     44225244
	Batch   4 pq = [   16290,   18810] index = [     132690195,176917455] size =     44227260
	Batch   5 pq = [   18810,   21030] index = [     176917455,221140965] size =     44223510
	Batch   6 pq = [   21030,   23037] index = [     221140965,265363203] size =     44222238
	Batch   7 pq = [   23037,   24976] index = [     265363203,311912776] size =     46549573
  Task number: 29
  Buffer size: 11059200
  Buffer per thread: 2
  We computed 13117554 shell quartets total.
  Whereas there are 15487395 unique shell quartets.

  ==> DiskJK: Disk-Based J/K Matrices <==

    J tasked:                  Yes
    K tasked:                  Yes
    wK tasked:                  No
    Memory [MiB]:              375
    Schwarz Cutoff:          1E-12

    OpenMP threads:              1

  Minimum eigenvalue in the overlap matrix is 3.1304262002E-04.
  Using Symmetric Orthogonalization.

  SCF Guess: Superposition of Atomic Densities via on-the-fly atomic UHF.

  ==> Iterations <==

                        Total Energy        Delta E     RMS |[F,P]|

   @RHF iter SAD:  -570.23550900626731   -5.70236e+02   0.00000e+00
   @RHF iter   1:  -571.48160847145118   -1.24610e+00   3.75545e-03 DIIS
   @RHF iter   2:  -571.77304649259543   -2.91438e-01   1.99874e-03 DIIS
   @RHF iter   3:  -571.84694554468285   -7.38991e-02   3.45281e-04 DIIS
   @RHF iter   4:  -571.85082129779539   -3.87575e-03   1.26380e-04 DIIS
   @RHF iter   5:  -571.85135342795138   -5.32130e-04   2.12525e-05 DIIS
   @RHF iter   6:  -571.85137511415485   -2.16862e-05   7.87093e-06 DIIS
   @RHF iter   7:  -571.85137784327878   -2.72912e-06   3.28971e-06 DIIS
   @RHF iter   8:  -571.85137838163178   -5.38353e-07   1.02279e-06 DIIS
   @RHF iter   9:  -571.85137847943747   -9.78057e-08   4.51824e-07 DIIS
   @RHF iter  10:  -571.85137850007948   -2.06420e-08   1.89570e-07 DIIS
   @RHF iter  11:  -571.85137850544606   -5.36659e-09   8.38115e-08 DIIS
   @RHF iter  12:  -571.85137850637170   -9.25638e-10   4.07925e-08 DIIS
   @RHF iter  13:  -571.85137850652109   -1.49385e-10   1.18412e-08 DIIS
   @RHF iter  14:  -571.85137850654337   -2.22826e-11   4.87830e-09 DIIS
   @RHF iter  15:  -571.85137850654405   -6.82121e-13   1.83163e-09 DIIS
   @RHF iter  16:  -571.85137850654496   -9.09495e-13   8.61471e-10 DIIS
   @RHF iter  17:  -571.85137850655065   -5.68434e-12   3.75189e-10 DIIS
   @RHF iter  18:  -571.85137850653746    1.31877e-11   1.31435e-10 DIIS
   @RHF iter  19:  -571.85137850654155   -4.09273e-12   6.07390e-11 DIIS
  Energy and wave function converged.

  ==> Post-Iterations <==

    Orbital Energies [Eh]
    ---------------------

    Doubly Occupied:

       1A    -20.452394     2A    -20.246117     3A    -20.245193
       4A    -11.189646     5A    -11.148843     6A    -11.141789
       7A    -11.137531     8A    -11.135854     9A    -11.131798
      10A    -11.117772    11A    -11.104246    12A    -11.042109
      13A     -1.275804    14A     -1.139963    15A     -1.051873
      16A     -1.023739    17A     -0.941127    18A     -0.916744
      19A     -0.832802    20A     -0.788670    21A     -0.741233
      22A     -0.698673    23A     -0.622008    24A     -0.564108
      25A     -0.539035    26A     -0.507592    27A     -0.496235
      28A     -0.490258    29A     -0.484339    30A     -0.464415
      31A     -0.460105    32A     -0.426362    33A     -0.405084
      34A     -0.403687    35A     -0.397347    36A     -0.392950
      37A     -0.373085    38A     -0.363056    39A     -0.329962
      40A     -0.294624    41A     -0.239191    42A     -0.195823
      43A     -0.172205    44A     -0.156520    45A     -0.148546

    Virtual:

      46A      0.230636    47A      0.255861    48A      0.265373
      49A      0.281932    50A      0.310015    51A      0.311778
      52A      0.343729    53A      0.353429    54A      0.363457
      55A      0.370863    56A      0.404081    57A      0.427780
      58A      0.450705    59A      0.456420    60A      0.476886
      61A      0.504197    62A      0.540664    63A      0.556186
      64A      0.581411    65A      0.585980    66A      0.593237
      67A      0.611739    68A      0.700671    69A      0.705742
      70A      0.719660    71A      0.730012    72A      0.757466
      73A      0.766693    74A      0.787009    75A      0.787460
      76A      0.805945    77A      0.818614    78A      0.835192
      79A      0.835827    80A      0.841141    81A      0.854995
      82A      0.871779    83A      0.884857    84A      0.885483
      85A      0.911333    86A      0.940031    87A      0.950072
      88A      0.953365    89A      0.963282    90A      0.969472
      91A      0.977107    92A      0.984972    93A      0.992436
      94A      1.010862    95A      1.023151    96A      1.028545
      97A      1.038300    98A      1.045130    99A      1.050601
     100A      1.053176   101A      1.089243   102A      1.114025
     103A      1.126390   104A      1.137005   105A      1.151183
     106A      1.153586   107A      1.221329   108A      1.241175
     109A      1.251454   110A      1.264288   111A      1.277487
     112A      1.299598   113A      1.332985   114A      1.344591
     115A      1.350667   116A      1.356232   117A      1.376755
     118A      1.382233   119A      1.398039   120A      1.412764
     121A      1.434003   122A      1.458158   123A      1.464804
     124A      1.475986   125A      1.485888   126A      1.545305
     127A      1.568941   128A      1.573740   129A      1.592251
     130A      1.603547   131A      1.617538   132A      1.650206
     133A      1.657583   134A      1.684850   135A      1.738570
     136A      1.754110   137A      1.760783   138A      1.762804
     139A      1.781567   140A      1.833373   141A      1.843330
     142A      1.853685   143A      1.869140   144A      1.876638
     145A      1.902643   146A      1.911913   147A      1.945044
     148A      1.974061   149A      1.980970   150A      1.997757
     151A      2.016421   152A      2.022429   153A      2.041369
     154A      2.045618   155A      2.054354   156A      2.060971
     157A      2.077912   158A      2.087480   159A      2.093385
     160A      2.117544   161A      2.142337   162A      2.155822
     163A      2.158182   164A      2.168528   165A      2.170671
     166A      2.183799   167A      2.218024   168A      2.236284
     169A      2.258310   170A      2.266592   171A      2.291849
     172A      2.303668   173A      2.329102   174A      2.354176
     175A      2.365969   176A      2.378426   177A      2.394493
     178A      2.426268   179A      2.431298   180A      2.451594
     181A      2.494802   182A      2.507181   183A      2.568139
     184A      2.584075   185A      2.589276   186A      2.590359
     187A      2.631944   188A      2.667134   189A      2.698182
     190A      2.710631   191A      2.726254   192A      2.764892
     193A      2.804277   194A      2.842856   195A      2.856733
     196A      2.895151   197A      2.911740   198A      2.924296
     199A      2.941069   200A      2.992260   201A      2.998158
     202A      3.006158   203A      3.067686   204A      3.113732
     205A      3.194199   206A      3.210641   207A      3.260437
     208A      3.291592   209A      3.309623   210A      3.374889
     211A      3.389041   212A      3.391362   213A      3.484523
     214A      3.653686   215A      3.735866   216A      3.787526
     217A      3.811565   218A      3.846817   219A      4.072278
     220A      4.100914   221A      4.124970   222A      4.219919
     223A      4.337150

    Final Occupation by Irrep:
              A
    DOCC [    45 ]

  @RHF Final Energy:  -571.85137850654155

   => Energetics <=

    Nuclear Repulsion Energy =            644.6433706225292326
    One-Electron Energy =               -2074.1285869532216566
    Two-Electron Energy =                 857.6338378241507598
    Total Energy =                       -571.8513785065415505

Computation Completed

Properties will be evaluated at   0.000000,   0.000000,   0.000000 [a0]

Properties computed using the SCF density matrix

  Nuclear Dipole Moment: [e a0]
     X:     6.1624      Y:     9.3529      Z:     6.9283

  Electronic Dipole Moment: [e a0]
     X:    -4.7253      Y:    -5.5633      Z:    -1.7996

  Dipole Moment: [e a0]
     X:     1.4371      Y:     3.7896      Z:     5.1287     Total:     6.5368

  Dipole Moment: [D]
     X:     3.6527      Y:     9.6321      Z:    13.0360     Total:    16.6149

*** tstop() called on ds3 at Mon Apr 27 07:04:10 2020
Module time:
	user time   =     111.41 seconds =       1.86 minutes
	system time =      47.09 seconds =       0.78 minutes
	total time  =        232 seconds =       3.87 minutes
Total time:
	user time   =     111.41 seconds =       1.86 minutes
	system time =      47.09 seconds =       0.78 minutes
	total time  =        232 seconds =       3.87 minutes
                                     G D M A

                                 by Anthony Stone

                           version 2.2.06, 22 June 2011

               Distributed Multipoles from Gaussian wavefunctions

Starting at 7:4:10 on 27 Apr 2020

Using SCF density matrix from file ./SSI/SSI-223ASP-286TYR-1-dimer.test.15980.fchk

                         Distributed Multipole Analysis

Standard DMA

Positions and radii in angstrom
Multipole moments in atomic units, ea_0^k for rank k

C          x = -0.936323  y =  0.029745  z = -3.165720 angstrom
           Maximum rank =  0   Radius =  0.650 angstrom
                   Q00  =  -0.287275

C          x = -1.035323  y = -1.473255  z = -2.927720 angstrom
           Maximum rank =  0   Radius =  0.650 angstrom
                   Q00  =   0.972712

O          x = -0.995323  y = -1.895255  z = -1.754720 angstrom
           Maximum rank =  0   Radius =  0.650 angstrom
                   Q00  =  -0.927468

O          x = -1.117323  y = -2.241255  z = -3.908720 angstrom
           Maximum rank =  0   Radius =  0.650 angstrom
                   Q00  =  -0.936059

H          x =  0.110677  y =  0.280745  z = -3.019720 angstrom
           Maximum rank =  0   Radius =  0.325 angstrom
                   Q00  =   0.070155

H          x = -1.536323  y =  0.579745  z = -2.439720 angstrom
           Maximum rank =  0   Radius =  0.325 angstrom
                   Q00  =   0.068747

H          x = -1.235893  y =  0.317099  z = -4.184390 angstrom
           Maximum rank =  0   Radius =  0.325 angstrom
                   Q00  =   0.046819

C          x =  2.820677  y =  1.839745  z =  3.120280 angstrom
           Maximum rank =  0   Radius =  0.650 angstrom
                   Q00  =  -0.190258

C          x = -0.494323  y =  0.249745  z =  0.889280 angstrom
           Maximum rank =  0   Radius =  0.650 angstrom
                   Q00  =   0.362280

C          x = -0.717323  y =  0.924745  z =  2.084280 angstrom
           Maximum rank =  0   Radius =  0.650 angstrom
                   Q00  =  -0.174888

C          x =  0.801677  y =  0.090745  z =  0.409280 angstrom
           Maximum rank =  0   Radius =  0.650 angstrom
                   Q00  =  -0.083724

C          x =  0.358677  y =  1.437745  z =  2.796280 angstrom
           Maximum rank =  0   Radius =  0.650 angstrom
                   Q00  =   0.014412

C          x =  1.872677  y =  0.607745  z =  1.132280 angstrom
           Maximum rank =  0   Radius =  0.650 angstrom
                   Q00  =  -0.028500

C          x =  1.659677  y =  1.297745  z =  2.323280 angstrom
           Maximum rank =  0   Radius =  0.650 angstrom
                   Q00  =  -0.143811

O          x = -1.551323  y = -0.248255  z =  0.198280 angstrom
           Maximum rank =  0   Radius =  0.650 angstrom
                   Q00  =  -0.613232

H          x = -2.370323  y = -0.180255  z =  0.690280 angstrom
           Maximum rank =  0   Radius =  0.325 angstrom
                   Q00  =   0.370108

H          x = -1.720323  y =  1.044745  z =  2.468280 angstrom
           Maximum rank =  0   Radius =  0.325 angstrom
                   Q00  =   0.052392

H          x =  0.957677  y = -0.434255  z = -0.519720 angstrom
           Maximum rank =  0   Radius =  0.325 angstrom
                   Q00  =   0.087652

H          x =  0.179677  y =  1.964745  z =  3.722280 angstrom
           Maximum rank =  0   Radius =  0.325 angstrom
                   Q00  =   0.039493

H          x =  2.882677  y =  0.468745  z =  0.769280 angstrom
           Maximum rank =  0   Radius =  0.325 angstrom
                   Q00  =   0.045149

H          x =  2.568677  y =  2.837745  z =  3.479280 angstrom
           Maximum rank =  0   Radius =  0.325 angstrom
                   Q00  =   0.081791

H          x =  3.697677  y =  1.931745  z =  2.478280 angstrom
           Maximum rank =  0   Radius =  0.325 angstrom
                   Q00  =   0.088977

H          x =  3.057995  y =  1.188384  z =  3.974335 angstrom
           Maximum rank =  0   Radius =  0.325 angstrom
                   Q00  =   0.084526

Total multipoles referred to origin at
           x =   0.000000,  y =    0.000000,  z =    0.000000 angstrom
                   Q00  =  -1.000000

Finished at 7:4:10 on 27 Apr 2020

  DMA results are available in the Python driver through the
	  variable('DMA DISTRIBUTED MULTIPOLES')
  and
	  variable('DMA TOTAL MULTIPOLES')
  commands.

    Psi4 stopped on: Monday, 27 April 2020 07:04AM
    Psi4 wall time for execution: 0:03:52.35

*** Psi4 exiting successfully. Buy a developer a beer!
