                               Psi4 1.3.2 release

  ==> Input File <==

--------------------------------------------------------------------------
import numpy as np
set {scf_type pk
basis cc-pvdz
d_convergence 10
gdma_switch   0
gdma_limit    0
gdma_origin   [ 0.0,  0.0,  0.0 ]
}
molecule test {
    units Angstrom
    0 1
    --
    0 1
    C                1.484651813833934    -1.623754240057449     3.063454278534998
    C                0.741651813833934    -0.485754240057450    -0.460545721465002
    C                0.834651813833934    -1.285754240057450     0.673454278534998
    C                1.219651813833934     0.816245759942551    -0.432545721465002
    C                1.404651813833934    -0.780754240057449     1.837454278534998
    C                1.797651813833934     1.315245759942550     0.726454278534998
    C                1.880651813833934     0.525245759942551     1.858454278534998
    H                0.339651813833934    -0.894754240057450    -1.373545721465002
    H                0.467651813833934    -2.301754240057449     0.644454278534998
    H                1.155651813833934     1.436245759942550    -1.317545721465002
    H                2.155651813833934     2.324245759942551     0.752454278534998
    H                2.412651813833934    -1.406754240057450     3.595454278534998
    H                1.529651813833934    -2.667754240057449     2.750454278534998
    H                2.323651813833934     0.928245759942551     2.756454278534998
    H                0.627782813833934    -1.474204240057449     3.736814278534998
    C               -2.470348186166066     0.250245759942551    -1.778545721465002
    C               -2.899348186166066    -0.411754240057449    -3.046545721465002
    C               -3.010348186166066     1.656245759942550    -1.872545721465002
    H               -1.392348186166066     0.277245759942551    -1.703545721465002
    H               -2.912348186166066    -0.262754240057449    -0.922545721465002
    H               -2.193348186166066    -0.180754240057449    -3.841545721465002
    H               -2.938348186166066    -1.482754240057449    -2.868545721465002
    H               -2.254348186166066     2.294245759942551    -2.335545721465002
    H               -3.256348186166066     2.046245759942551    -0.883545721465002
    H               -3.870134186166066     0.063505759942551    -3.250765721465002
    H               -3.905704186166066     1.593725759942550    -2.508495721465002

}
e, wfn = energy('scf', return_wfn=True)
gdma(wfn)
dmavals = variable('DMA DISTRIBUTED MULTIPOLES')
charges = np.array(dmavals)
print(charges)
np.save('SSI-062PHE-128PRO-1-dimer.npy', np.array(charges))--------------------------------------------------------------------------

*** tstart() called on ds3
*** at Mon Apr 27 08:06:29 2020

   => Loading Basis Set <=

    Name: CC-PVDZ
    Role: ORBITAL
    Keyword: BASIS
    atoms 1-7, 16-18  entry C          line   138 file /theoryfs2/ds/metcalf/miniconda2/envs/tf2gpu/share/psi4/basis/cc-pvdz.gbs
    atoms 8-15, 19-26 entry H          line    22 file /theoryfs2/ds/metcalf/miniconda2/envs/tf2gpu/share/psi4/basis/cc-pvdz.gbs

         ---------------------------------------------------------
                                   SCF
               by Justin Turney, Rob Parrish, Andy Simmonett
                          and Daniel G. A. Smith
                              RHF Reference
                        1 Threads,    500 MiB Core
         ---------------------------------------------------------

  ==> Geometry <==

    Molecular point group: c1
    Full point group: C1

    Geometry (in Angstrom), charge = 0, multiplicity = 1:

       Center              X                  Y                   Z               Mass
    ------------   -----------------  -----------------  -----------------  -----------------
         C            1.484651813834    -1.623754240057     3.063454278535    12.000000000000
         C            0.741651813834    -0.485754240057    -0.460545721465    12.000000000000
         C            0.834651813834    -1.285754240057     0.673454278535    12.000000000000
         C            1.219651813834     0.816245759943    -0.432545721465    12.000000000000
         C            1.404651813834    -0.780754240057     1.837454278535    12.000000000000
         C            1.797651813834     1.315245759943     0.726454278535    12.000000000000
         C            1.880651813834     0.525245759943     1.858454278535    12.000000000000
         H            0.339651813834    -0.894754240057    -1.373545721465     1.007825032230
         H            0.467651813834    -2.301754240057     0.644454278535     1.007825032230
         H            1.155651813834     1.436245759943    -1.317545721465     1.007825032230
         H            2.155651813834     2.324245759943     0.752454278535     1.007825032230
         H            2.412651813834    -1.406754240057     3.595454278535     1.007825032230
         H            1.529651813834    -2.667754240057     2.750454278535     1.007825032230
         H            2.323651813834     0.928245759943     2.756454278535     1.007825032230
         H            0.627782813834    -1.474204240057     3.736814278535     1.007825032230
         C           -2.470348186166     0.250245759943    -1.778545721465    12.000000000000
         C           -2.899348186166    -0.411754240057    -3.046545721465    12.000000000000
         C           -3.010348186166     1.656245759943    -1.872545721465    12.000000000000
         H           -1.392348186166     0.277245759943    -1.703545721465     1.007825032230
         H           -2.912348186166    -0.262754240057    -0.922545721465     1.007825032230
         H           -2.193348186166    -0.180754240057    -3.841545721465     1.007825032230
         H           -2.938348186166    -1.482754240057    -2.868545721465     1.007825032230
         H           -2.254348186166     2.294245759943    -2.335545721465     1.007825032230
         H           -3.256348186166     2.046245759943    -0.883545721465     1.007825032230
         H           -3.870134186166     0.063505759943    -3.250765721465     1.007825032230
         H           -3.905704186166     1.593725759943    -2.508495721465     1.007825032230

  Running in c1 symmetry.

  Rotational constants: A =      0.07470  B =      0.01610  C =      0.01477 [cm^-1]
  Rotational constants: A =   2239.38119  B =    482.55636  C =    442.64796 [MHz]
  Nuclear repulsion =  482.582240011925705

  Charge       = 0
  Multiplicity = 1
  Electrons    = 76
  Nalpha       = 38
  Nbeta        = 38

  ==> Algorithm <==

  SCF Algorithm Type is PK.
  DIIS enabled.
  MOM disabled.
  Fractional occupation disabled.
  Guess Type is SAD.
  Energy threshold   = 1.00e-06
  Density threshold  = 1.00e-10
  Integral threshold = 0.00e+00

  ==> Primary Basis <==

  Basis Set: CC-PVDZ
    Blend: CC-PVDZ
    Number of shells: 108
    Number of basis function: 220
    Number of Cartesian functions: 230
    Spherical Harmonics?: true
    Max angular momentum: 2

  ==> Pre-Iterations <==

   -------------------------------------------------------
    Irrep   Nso     Nmo     Nalpha   Nbeta   Ndocc  Nsocc
   -------------------------------------------------------
     A        220     220       0       0       0       0
   -------------------------------------------------------
    Total     220     220      38      38      38       0
   -------------------------------------------------------

  ==> Integral Setup <==

  Using integral reordering PK algorithm.
  Sizing the integral batches needed.
  Building batch lookup table.
   Calculation information:
      Number of atoms:                  26
      Number of AO shells:             108
      Number of primitives:            300
      Number of atomic orbitals:       230
      Number of basis functions:       220

      Integral cutoff                 1.00e-12
      Number of threads:                 1

	Batch   1 pq = [       0,    9405] index = [             0,44231715] size =     44231715
	Batch   2 pq = [    9405,   13301] index = [      44231715,88464951] size =     44233236
	Batch   3 pq = [   13301,   16290] index = [      88464951,132690195] size =     44225244
	Batch   4 pq = [   16290,   18810] index = [     132690195,176917455] size =     44227260
	Batch   5 pq = [   18810,   21030] index = [     176917455,221140965] size =     44223510
	Batch   6 pq = [   21030,   23037] index = [     221140965,265363203] size =     44222238
	Batch   7 pq = [   23037,   24310] index = [     265363203,295500205] size =     30137002
  Task number: 27
  Buffer size: 11059200
  Buffer per thread: 2
  We computed 14064346 shell quartets total.
  Whereas there are 17325441 unique shell quartets.

  ==> DiskJK: Disk-Based J/K Matrices <==

    J tasked:                  Yes
    K tasked:                  Yes
    wK tasked:                  No
    Memory [MiB]:              375
    Schwarz Cutoff:          1E-12

    OpenMP threads:              1

  Minimum eigenvalue in the overlap matrix is 3.0426753435E-04.
  Using Symmetric Orthogonalization.

  SCF Guess: Superposition of Atomic Densities via on-the-fly atomic UHF.

  ==> Iterations <==

                        Total Energy        Delta E     RMS |[F,P]|

   @RHF iter SAD:  -387.18798451934367   -3.87188e+02   0.00000e+00
   @RHF iter   1:  -387.73925461865082   -5.51270e-01   2.82701e-03 DIIS
   @RHF iter   2:  -387.96552013745332   -2.26266e-01   1.20480e-03 DIIS
   @RHF iter   3:  -388.00333999399328   -3.78199e-02   2.55076e-04 DIIS
   @RHF iter   4:  -388.00627358438106   -2.93359e-03   5.38480e-05 DIIS
   @RHF iter   5:  -388.00636736474729   -9.37804e-05   1.70342e-05 DIIS
   @RHF iter   6:  -388.00637649604118   -9.13129e-06   5.12152e-06 DIIS
   @RHF iter   7:  -388.00637744849342   -9.52452e-07   1.24236e-06 DIIS
   @RHF iter   8:  -388.00637752259172   -7.40983e-08   3.71735e-07 DIIS
   @RHF iter   9:  -388.00637753542730   -1.28356e-08   1.67060e-07 DIIS
   @RHF iter  10:  -388.00637753910269   -3.67538e-09   8.89402e-08 DIIS
   @RHF iter  11:  -388.00637754011461   -1.01193e-09   3.00292e-08 DIIS
   @RHF iter  12:  -388.00637754022461   -1.09992e-10   9.86634e-09 DIIS
   @RHF iter  13:  -388.00637754023285   -8.24230e-12   4.52092e-09 DIIS
   @RHF iter  14:  -388.00637754023609   -3.24007e-12   1.08715e-09 DIIS
   @RHF iter  15:  -388.00637754023433    1.76215e-12   3.26285e-10 DIIS
   @RHF iter  16:  -388.00637754023245    1.87583e-12   1.00706e-10 DIIS
   @RHF iter  17:  -388.00637754023165    7.95808e-13   3.41782e-11 DIIS
  Energy and wave function converged.

  ==> Post-Iterations <==

    Orbital Energies [Eh]
    ---------------------

    Doubly Occupied:

       1A    -11.238327     2A    -11.234485     3A    -11.233127
       4A    -11.230008     5A    -11.229456     6A    -11.228006
       7A    -11.227771     8A    -11.208226     9A    -11.208141
      10A    -11.204989    11A     -1.156074    12A     -1.070016
      13A     -1.047718    14A     -1.014427    15A     -0.931573
      16A     -0.914434    17A     -0.827352    18A     -0.796920
      19A     -0.792058    20A     -0.692703    21A     -0.640520
      22A     -0.633605    23A     -0.629674    24A     -0.613565
      25A     -0.585347    26A     -0.579721    27A     -0.563274
      28A     -0.541375    29A     -0.533940    30A     -0.513603
      31A     -0.491892    32A     -0.487186    33A     -0.483359
      34A     -0.473060    35A     -0.462417    36A     -0.455652
      37A     -0.333308    38A     -0.321778

    Virtual:

      39A      0.136410    40A      0.140130    41A      0.170098
      42A      0.191732    43A      0.205740    44A      0.214730
      45A      0.222276    46A      0.231119    47A      0.240434
      48A      0.255460    49A      0.267176    50A      0.268654
      51A      0.284320    52A      0.287066    53A      0.292139
      54A      0.302492    55A      0.332192    56A      0.355892
      57A      0.369122    58A      0.373856    59A      0.385394
      60A      0.444706    61A      0.455934    62A      0.469167
      63A      0.484157    64A      0.500590    65A      0.564354
      66A      0.572316    67A      0.598567    68A      0.599653
      69A      0.619813    70A      0.634715    71A      0.640025
      72A      0.661270    73A      0.688695    74A      0.691920
      75A      0.704663    76A      0.714672    77A      0.744182
      78A      0.744972    79A      0.751143    80A      0.760655
      81A      0.774363    82A      0.779211    83A      0.781015
      84A      0.805966    85A      0.811456    86A      0.840561
      87A      0.847612    88A      0.860204    89A      0.869261
      90A      0.874981    91A      0.879541    92A      0.888053
      93A      0.895177    94A      0.900353    95A      0.906294
      96A      0.912382    97A      0.918502    98A      0.922067
      99A      0.923656   100A      0.930875   101A      0.937500
     102A      0.945410   103A      0.961977   104A      0.987088
     105A      0.989930   106A      1.018910   107A      1.033071
     108A      1.075876   109A      1.080678   110A      1.109746
     111A      1.129869   112A      1.147646   113A      1.156514
     114A      1.172686   115A      1.186649   116A      1.238703
     117A      1.241775   118A      1.249235   119A      1.262191
     120A      1.297799   121A      1.301302   122A      1.315792
     123A      1.321743   124A      1.338418   125A      1.413603
     126A      1.422603   127A      1.497878   128A      1.498394
     129A      1.514940   130A      1.535297   131A      1.565325
     132A      1.604575   133A      1.623966   134A      1.624875
     135A      1.648620   136A      1.675657   137A      1.702914
     138A      1.721033   139A      1.728455   140A      1.738708
     141A      1.751977   142A      1.768231   143A      1.791904
     144A      1.805052   145A      1.815239   146A      1.857010
     147A      1.866248   148A      1.883142   149A      1.895509
     150A      1.899566   151A      1.914845   152A      1.916632
     153A      1.922567   154A      1.926476   155A      1.927828
     156A      1.944531   157A      1.950147   158A      1.955902
     159A      1.966861   160A      1.977909   161A      1.985730
     162A      2.001914   163A      2.013215   164A      2.026016
     165A      2.039440   166A      2.052310   167A      2.065715
     168A      2.073037   169A      2.078513   170A      2.114057
     171A      2.118613   172A      2.152228   173A      2.160903
     174A      2.171235   175A      2.181262   176A      2.185751
     177A      2.191058   178A      2.225090   179A      2.248319
     180A      2.261913   181A      2.285931   182A      2.295579
     183A      2.304927   184A      2.311613   185A      2.321543
     186A      2.336066   187A      2.356398   188A      2.457408
     189A      2.467653   190A      2.481492   191A      2.485232
     192A      2.501175   193A      2.506407   194A      2.547827
     195A      2.567936   196A      2.629981   197A      2.669575
     198A      2.703313   199A      2.747167   200A      2.755415
     201A      2.769165   202A      2.771739   203A      2.787895
     204A      2.795301   205A      2.803936   206A      2.822274
     207A      2.848563   208A      2.862701   209A      2.877432
     210A      2.879043   211A      2.926127   212A      2.966577
     213A      2.993975   214A      3.022849   215A      3.029503
     216A      3.095295   217A      3.166367   218A      3.215971
     219A      3.315122   220A      3.993126

    Final Occupation by Irrep:
              A
    DOCC [    38 ]

  @RHF Final Energy:  -388.00637754023165

   => Energetics <=

    Nuclear Repulsion Energy =            482.5822400119257054
    One-Electron Energy =               -1479.5190600440200797
    Two-Electron Energy =                 608.9304424918626637
    Total Energy =                       -388.0063775402317106

Computation Completed

Properties will be evaluated at   0.000000,   0.000000,   0.000000 [a0]

Properties computed using the SCF density matrix

  Nuclear Dipole Moment: [e a0]
     X:   -10.9783      Y:     0.2739      Z:    -6.3462

  Electronic Dipole Moment: [e a0]
     X:    11.0690      Y:    -0.3546      Z:     6.5357

  Dipole Moment: [e a0]
     X:     0.0907      Y:    -0.0806      Z:     0.1895     Total:     0.2250

  Dipole Moment: [D]
     X:     0.2306      Y:    -0.2049      Z:     0.4816     Total:     0.5719

*** tstop() called on ds3 at Mon Apr 27 08:11:16 2020
Module time:
	user time   =      99.38 seconds =       1.66 minutes
	system time =      41.01 seconds =       0.68 minutes
	total time  =        287 seconds =       4.78 minutes
Total time:
	user time   =      99.38 seconds =       1.66 minutes
	system time =      41.01 seconds =       0.68 minutes
	total time  =        287 seconds =       4.78 minutes
                                     G D M A

                                 by Anthony Stone

                           version 2.2.06, 22 June 2011

               Distributed Multipoles from Gaussian wavefunctions

Starting at 8:11:16 on 27 Apr 2020

Using SCF density matrix from file ./SSI/SSI-062PHE-128PRO-1-dimer.test.625.fchk

                         Distributed Multipole Analysis

Standard DMA

Positions and radii in angstrom
Multipole moments in atomic units, ea_0^k for rank k

C          x =  1.484652  y = -1.623754  z =  3.063454 angstrom
           Maximum rank =  0   Radius =  0.650 angstrom
                   Q00  =  -0.193428

C          x =  0.741652  y = -0.485754  z = -0.460546 angstrom
           Maximum rank =  0   Radius =  0.650 angstrom
                   Q00  =  -0.084476

C          x =  0.834652  y = -1.285754  z =  0.673454 angstrom
           Maximum rank =  0   Radius =  0.650 angstrom
                   Q00  =  -0.081404

C          x =  1.219652  y =  0.816246  z = -0.432546 angstrom
           Maximum rank =  0   Radius =  0.650 angstrom
                   Q00  =  -0.086792

C          x =  1.404652  y = -0.780754  z =  1.837454 angstrom
           Maximum rank =  0   Radius =  0.650 angstrom
                   Q00  =  -0.096233

C          x =  1.797652  y =  1.315246  z =  0.726454 angstrom
           Maximum rank =  0   Radius =  0.650 angstrom
                   Q00  =  -0.034254

C          x =  1.880652  y =  0.525246  z =  1.858454 angstrom
           Maximum rank =  0   Radius =  0.650 angstrom
                   Q00  =  -0.016867

H          x =  0.339652  y = -0.894754  z = -1.373546 angstrom
           Maximum rank =  0   Radius =  0.325 angstrom
                   Q00  =   0.064081

H          x =  0.467652  y = -2.301754  z =  0.644454 angstrom
           Maximum rank =  0   Radius =  0.325 angstrom
                   Q00  =   0.057247

H          x =  1.155652  y =  1.436246  z = -1.317546 angstrom
           Maximum rank =  0   Radius =  0.325 angstrom
                   Q00  =   0.059333

H          x =  2.155652  y =  2.324246  z =  0.752454 angstrom
           Maximum rank =  0   Radius =  0.325 angstrom
                   Q00  =   0.063243

H          x =  2.412652  y = -1.406754  z =  3.595454 angstrom
           Maximum rank =  0   Radius =  0.325 angstrom
                   Q00  =   0.097249

H          x =  1.529652  y = -2.667754  z =  2.750454 angstrom
           Maximum rank =  0   Radius =  0.325 angstrom
                   Q00  =   0.095002

H          x =  2.323652  y =  0.928246  z =  2.756454 angstrom
           Maximum rank =  0   Radius =  0.325 angstrom
                   Q00  =   0.054650

H          x =  0.627783  y = -1.474204  z =  3.736814 angstrom
           Maximum rank =  0   Radius =  0.325 angstrom
                   Q00  =   0.104694

C          x = -2.470348  y =  0.250246  z = -1.778546 angstrom
           Maximum rank =  0   Radius =  0.650 angstrom
                   Q00  =  -0.108920

C          x = -2.899348  y = -0.411754  z = -3.046546 angstrom
           Maximum rank =  0   Radius =  0.650 angstrom
                   Q00  =  -0.196924

C          x = -3.010348  y =  1.656246  z = -1.872546 angstrom
           Maximum rank =  0   Radius =  0.650 angstrom
                   Q00  =  -0.214687

H          x = -1.392348  y =  0.277246  z = -1.703546 angstrom
           Maximum rank =  0   Radius =  0.325 angstrom
                   Q00  =   0.064408

H          x = -2.912348  y = -0.262754  z = -0.922546 angstrom
           Maximum rank =  0   Radius =  0.325 angstrom
                   Q00  =   0.054709

H          x = -2.193348  y = -0.180754  z = -3.841546 angstrom
           Maximum rank =  0   Radius =  0.325 angstrom
                   Q00  =   0.071822

H          x = -2.938348  y = -1.482754  z = -2.868546 angstrom
           Maximum rank =  0   Radius =  0.325 angstrom
                   Q00  =   0.069724

H          x = -2.254348  y =  2.294246  z = -2.335546 angstrom
           Maximum rank =  0   Radius =  0.325 angstrom
                   Q00  =   0.079514

H          x = -3.256348  y =  2.046246  z = -0.883546 angstrom
           Maximum rank =  0   Radius =  0.325 angstrom
                   Q00  =   0.081756

H          x = -3.870134  y =  0.063506  z = -3.250766 angstrom
           Maximum rank =  0   Radius =  0.325 angstrom
                   Q00  =   0.048264

H          x = -3.905704  y =  1.593726  z = -2.508496 angstrom
           Maximum rank =  0   Radius =  0.325 angstrom
                   Q00  =   0.048289

Total multipoles referred to origin at
           x =   0.000000,  y =    0.000000,  z =    0.000000 angstrom
                   Q00  =  -0.000000

Finished at 8:11:16 on 27 Apr 2020

  DMA results are available in the Python driver through the
	  variable('DMA DISTRIBUTED MULTIPOLES')
  and
	  variable('DMA TOTAL MULTIPOLES')
  commands.

    Psi4 stopped on: Monday, 27 April 2020 08:11AM
    Psi4 wall time for execution: 0:04:47.15

*** Psi4 exiting successfully. Buy a developer a beer!
