                               Psi4 1.3.2 release

  ==> Input File <==

--------------------------------------------------------------------------
import numpy as np
set {scf_type pk
basis cc-pvdz
d_convergence 10
gdma_switch   0
gdma_limit    0
gdma_origin   [ 0.0,  0.0,  0.0 ]
}
molecule test {
    units Angstrom
    -1 1
    --
    -1 1
    C                3.142867107622827    -1.846780075101049     1.915765267990099
    C                3.295867107622827    -1.272780075101049     0.541765267990099
    O                2.298867107622827    -0.906780075101049    -0.118234732009901
    O                4.474867107622827    -1.153780075101049     0.133765267990099
    H                2.980867107622827    -1.013780075101049     2.603765267990099
    H                4.054867107622827    -2.361780075101049     2.224765267990099
    H                2.294417107622827    -2.543000075101049     1.989355267990099
    C               -3.593132892377173     3.021219924898951    -0.415234732009901
    C               -0.953132892377173    -0.368780075101049    -0.310234732009901
    C               -2.231132892377173    -0.494780075101049    -0.844234732009901
    C               -0.537132892377173     0.857219924898951     0.215765267990099
    C               -3.072132892377173     0.601219924898951    -0.861234732009901
    C               -1.387132892377173     1.941219924898951     0.183765267990099
    C               -2.667132892377173     1.836219924898951    -0.348234732009901
    O               -0.137132892377173    -1.438780075101049    -0.297234732009901
    H               -2.569132892377173    -1.445780075101049    -1.226234732009901
    H               -0.538132892377173    -2.203780075101049    -0.705234732009901
    H                0.459867107622827     0.947219924898951     0.619765267990099
    H               -4.077132892377174     0.486219924898951    -1.233234732009901
    H               -1.044132892377173     2.877219924898951     0.562765267990099
    H               -3.740132892377174     3.456219924898951     0.557765267990099
    H               -4.565132892377173     2.642219924898951    -0.721234732009901
    H               -3.303122892377173     3.806549924898951    -1.128784732009901

}
e, wfn = energy('scf', return_wfn=True)
gdma(wfn)
dmavals = variable('DMA DISTRIBUTED MULTIPOLES')
charges = np.array(dmavals)
print(charges)
np.save('SSI-195ASP-241TYR-1-dimer.npy', np.array(charges))--------------------------------------------------------------------------

*** tstart() called on ds3
*** at Tue Apr 28 10:55:57 2020

   => Loading Basis Set <=

    Name: CC-PVDZ
    Role: ORBITAL
    Keyword: BASIS
    atoms 1-2, 8-14  entry C          line   138 file /theoryfs2/ds/metcalf/miniconda2/envs/tf2gpu/share/psi4/basis/cc-pvdz.gbs
    atoms 3-4, 15    entry O          line   198 file /theoryfs2/ds/metcalf/miniconda2/envs/tf2gpu/share/psi4/basis/cc-pvdz.gbs
    atoms 5-7, 16-23 entry H          line    22 file /theoryfs2/ds/metcalf/miniconda2/envs/tf2gpu/share/psi4/basis/cc-pvdz.gbs

         ---------------------------------------------------------
                                   SCF
               by Justin Turney, Rob Parrish, Andy Simmonett
                          and Daniel G. A. Smith
                              RHF Reference
                        1 Threads,    500 MiB Core
         ---------------------------------------------------------

  ==> Geometry <==

    Molecular point group: c1
    Full point group: C1

    Geometry (in Angstrom), charge = -1, multiplicity = 1:

       Center              X                  Y                   Z               Mass
    ------------   -----------------  -----------------  -----------------  -----------------
         C            3.142867107623    -1.846780075101     1.915765267990    12.000000000000
         C            3.295867107623    -1.272780075101     0.541765267990    12.000000000000
         O            2.298867107623    -0.906780075101    -0.118234732010    15.994914619570
         O            4.474867107623    -1.153780075101     0.133765267990    15.994914619570
         H            2.980867107623    -1.013780075101     2.603765267990     1.007825032230
         H            4.054867107623    -2.361780075101     2.224765267990     1.007825032230
         H            2.294417107623    -2.543000075101     1.989355267990     1.007825032230
         C           -3.593132892377     3.021219924899    -0.415234732010    12.000000000000
         C           -0.953132892377    -0.368780075101    -0.310234732010    12.000000000000
         C           -2.231132892377    -0.494780075101    -0.844234732010    12.000000000000
         C           -0.537132892377     0.857219924899     0.215765267990    12.000000000000
         C           -3.072132892377     0.601219924899    -0.861234732010    12.000000000000
         C           -1.387132892377     1.941219924899     0.183765267990    12.000000000000
         C           -2.667132892377     1.836219924899    -0.348234732010    12.000000000000
         O           -0.137132892377    -1.438780075101    -0.297234732010    15.994914619570
         H           -2.569132892377    -1.445780075101    -1.226234732010     1.007825032230
         H           -0.538132892377    -2.203780075101    -0.705234732010     1.007825032230
         H            0.459867107623     0.947219924899     0.619765267990     1.007825032230
         H           -4.077132892377     0.486219924899    -1.233234732010     1.007825032230
         H           -1.044132892377     2.877219924899     0.562765267990     1.007825032230
         H           -3.740132892377     3.456219924899     0.557765267990     1.007825032230
         H           -4.565132892377     2.642219924899    -0.721234732010     1.007825032230
         H           -3.303122892377     3.806549924899    -1.128784732010     1.007825032230

  Running in c1 symmetry.

  Rotational constants: A =      0.08167  B =      0.01089  C =      0.01018 [cm^-1]
  Rotational constants: A =   2448.36785  B =    326.37851  C =    305.09994 [MHz]
  Nuclear repulsion =  636.769978068706223

  Charge       = -1
  Multiplicity = 1
  Electrons    = 90
  Nalpha       = 45
  Nbeta        = 45

  ==> Algorithm <==

  SCF Algorithm Type is PK.
  DIIS enabled.
  MOM disabled.
  Fractional occupation disabled.
  Guess Type is SAD.
  Energy threshold   = 1.00e-06
  Density threshold  = 1.00e-10
  Integral threshold = 0.00e+00

  ==> Primary Basis <==

  Basis Set: CC-PVDZ
    Blend: CC-PVDZ
    Number of shells: 105
    Number of basis function: 223
    Number of Cartesian functions: 235
    Spherical Harmonics?: true
    Max angular momentum: 2

  ==> Pre-Iterations <==

   -------------------------------------------------------
    Irrep   Nso     Nmo     Nalpha   Nbeta   Ndocc  Nsocc
   -------------------------------------------------------
     A        223     223       0       0       0       0
   -------------------------------------------------------
    Total     223     223      45      45      45       0
   -------------------------------------------------------

  ==> Integral Setup <==

  Using integral reordering PK algorithm.
  Sizing the integral batches needed.
  Building batch lookup table.
   Calculation information:
      Number of atoms:                  23
      Number of AO shells:             105
      Number of primitives:            319
      Number of atomic orbitals:       235
      Number of basis functions:       223

      Integral cutoff                 1.00e-12
      Number of threads:                 1

	Batch   1 pq = [       0,    9405] index = [             0,44231715] size =     44231715
	Batch   2 pq = [    9405,   13301] index = [      44231715,88464951] size =     44233236
	Batch   3 pq = [   13301,   16290] index = [      88464951,132690195] size =     44225244
	Batch   4 pq = [   16290,   18810] index = [     132690195,176917455] size =     44227260
	Batch   5 pq = [   18810,   21030] index = [     176917455,221140965] size =     44223510
	Batch   6 pq = [   21030,   23037] index = [     221140965,265363203] size =     44222238
	Batch   7 pq = [   23037,   24976] index = [     265363203,311912776] size =     46549573
  Task number: 29
  Buffer size: 11059200
  Buffer per thread: 2
  We computed 12015141 shell quartets total.
  Whereas there are 15487395 unique shell quartets.

  ==> DiskJK: Disk-Based J/K Matrices <==

    J tasked:                  Yes
    K tasked:                  Yes
    wK tasked:                  No
    Memory [MiB]:              375
    Schwarz Cutoff:          1E-12

    OpenMP threads:              1

  Minimum eigenvalue in the overlap matrix is 3.0996988988E-04.
  Using Symmetric Orthogonalization.

  SCF Guess: Superposition of Atomic Densities via on-the-fly atomic UHF.

  ==> Iterations <==

                        Total Energy        Delta E     RMS |[F,P]|

   @RHF iter SAD:  -570.32330067715327   -5.70323e+02   0.00000e+00
   @RHF iter   1:  -571.47252102043035   -1.14922e+00   3.77685e-03 DIIS
   @RHF iter   2:  -571.76797321957054   -2.95452e-01   2.01247e-03 DIIS
   @RHF iter   3:  -571.84306474634366   -7.50915e-02   3.48085e-04 DIIS
   @RHF iter   4:  -571.84698348584504   -3.91874e-03   1.27850e-04 DIIS
   @RHF iter   5:  -571.84753096576492   -5.47480e-04   2.14961e-05 DIIS
   @RHF iter   6:  -571.84755480813988   -2.38424e-05   8.04115e-06 DIIS
   @RHF iter   7:  -571.84755812677793   -3.31864e-06   3.79732e-06 DIIS
   @RHF iter   8:  -571.84755899493882   -8.68161e-07   1.38700e-06 DIIS
   @RHF iter   9:  -571.84755923125783   -2.36319e-07   6.56107e-07 DIIS
   @RHF iter  10:  -571.84755928558366   -5.43258e-08   2.81688e-07 DIIS
   @RHF iter  11:  -571.84755929728203   -1.16984e-08   1.06838e-07 DIIS
   @RHF iter  12:  -571.84755929842368   -1.14164e-09   4.70892e-08 DIIS
   @RHF iter  13:  -571.84755929857761   -1.53932e-10   1.26116e-08 DIIS
   @RHF iter  14:  -571.84755929859625   -1.86446e-11   5.11951e-09 DIIS
   @RHF iter  15:  -571.84755929859784   -1.59162e-12   2.22853e-09 DIIS
   @RHF iter  16:  -571.84755929859739    4.54747e-13   1.00640e-09 DIIS
   @RHF iter  17:  -571.84755929859807   -6.82121e-13   4.50641e-10 DIIS
   @RHF iter  18:  -571.84755929859762    4.54747e-13   1.58935e-10 DIIS
   @RHF iter  19:  -571.84755929859318    4.43379e-12   6.94866e-11 DIIS
  Energy and wave function converged.

  ==> Post-Iterations <==

    Orbital Energies [Eh]
    ---------------------

    Doubly Occupied:

       1A    -20.448271     2A    -20.248404     3A    -20.246185
       4A    -11.187654     5A    -11.143759     6A    -11.138665
       7A    -11.132142     8A    -11.130423     9A    -11.125438
      10A    -11.113373    11A    -11.104086    12A    -11.043317
      13A     -1.277705    14A     -1.138974    15A     -1.049615
      16A     -1.025550    17A     -0.937978    18A     -0.916605
      19A     -0.831003    20A     -0.793876    21A     -0.737672
      22A     -0.699446    23A     -0.621926    24A     -0.564506
      25A     -0.537923    26A     -0.502059    27A     -0.496221
      28A     -0.492903    29A     -0.483008    30A     -0.463924
      31A     -0.457909    32A     -0.422745    33A     -0.407357
      34A     -0.405771    35A     -0.399704    36A     -0.392119
      37A     -0.368310    38A     -0.361318    39A     -0.327849
      40A     -0.292726    41A     -0.238411    42A     -0.190083
      43A     -0.174505    44A     -0.159292    45A     -0.150021

    Virtual:

      46A      0.237620    47A      0.258862    48A      0.268253
      49A      0.284045    50A      0.310040    51A      0.319708
      52A      0.346053    53A      0.350578    54A      0.356393
      55A      0.381705    56A      0.398031    57A      0.422413
      58A      0.430822    59A      0.461064    60A      0.479296
      61A      0.494498    62A      0.556765    63A      0.558787
      64A      0.576765    65A      0.585048    66A      0.605975
      67A      0.619507    68A      0.704103    69A      0.709561
      70A      0.720128    71A      0.727528    72A      0.766269
      73A      0.774010    74A      0.787681    75A      0.795749
      76A      0.812567    77A      0.828121    78A      0.829438
      79A      0.835194    80A      0.844927    81A      0.863272
      82A      0.874640    83A      0.883329    84A      0.899238
      85A      0.902072    86A      0.921597    87A      0.944953
      88A      0.952854    89A      0.965839    90A      0.972883
      91A      0.985323    92A      0.987426    93A      0.996345
      94A      1.004630    95A      1.021289    96A      1.028850
      97A      1.037969    98A      1.040832    99A      1.045875
     100A      1.050349   101A      1.061184   102A      1.083919
     103A      1.128830   104A      1.134639   105A      1.152468
     106A      1.159986   107A      1.223671   108A      1.238226
     109A      1.251163   110A      1.260782   111A      1.279314
     112A      1.301162   113A      1.326642   114A      1.347853
     115A      1.350709   116A      1.354138   117A      1.376159
     118A      1.384675   119A      1.401896   120A      1.415098
     121A      1.429240   122A      1.458545   123A      1.470902
     124A      1.493371   125A      1.511342   126A      1.543219
     127A      1.567343   128A      1.572556   129A      1.578107
     130A      1.605061   131A      1.626270   132A      1.632760
     133A      1.665959   134A      1.693789   135A      1.740045
     136A      1.751782   137A      1.769006   138A      1.771568
     139A      1.801859   140A      1.838842   141A      1.846936
     142A      1.850028   143A      1.864681   144A      1.878665
     145A      1.914195   146A      1.915281   147A      1.973628
     148A      1.980943   149A      2.000156   150A      2.000416
     151A      2.019112   152A      2.028301   153A      2.047991
     154A      2.055523   155A      2.058778   156A      2.066188
     157A      2.074334   158A      2.083743   159A      2.102478
     160A      2.130248   161A      2.132880   162A      2.148359
     163A      2.161291   164A      2.171615   165A      2.184345
     166A      2.195820   167A      2.221103   168A      2.228720
     169A      2.257426   170A      2.289234   171A      2.301804
     172A      2.315010   173A      2.325087   174A      2.357352
     175A      2.378212   176A      2.382699   177A      2.418295
     178A      2.438687   179A      2.441092   180A      2.445910
     181A      2.494451   182A      2.512852   183A      2.577715
     184A      2.581286   185A      2.599667   186A      2.610321
     187A      2.627475   188A      2.680972   189A      2.688494
     190A      2.711123   191A      2.728405   192A      2.775233
     193A      2.792339   194A      2.856805   195A      2.868107
     196A      2.903207   197A      2.919353   198A      2.934782
     199A      2.955755   200A      2.972725   201A      2.992572
     202A      3.005757   203A      3.085986   204A      3.115190
     205A      3.215891   206A      3.229361   207A      3.256573
     208A      3.286502   209A      3.307187   210A      3.372820
     211A      3.395996   212A      3.407796   213A      3.493647
     214A      3.642876   215A      3.749466   216A      3.802075
     217A      3.830684   218A      3.856237   219A      4.069450
     220A      4.113334   221A      4.138894   222A      4.205992
     223A      4.351706

    Final Occupation by Irrep:
              A
    DOCC [    45 ]

  @RHF Final Energy:  -571.84755929859318

   => Energetics <=

    Nuclear Repulsion Energy =            636.7699780687062230
    One-Electron Energy =               -2058.4736187009352761
    Two-Electron Energy =                 849.8560813336358706
    Total Energy =                       -571.8475592985931826

Computation Completed

Properties will be evaluated at   0.000000,   0.000000,   0.000000 [a0]

Properties computed using the SCF density matrix

  Nuclear Dipole Moment: [e a0]
     X:    -9.3868      Y:     4.3401      Z:     3.3205

  Electronic Dipole Moment: [e a0]
     X:     3.4137      Y:    -3.0831      Z:    -3.2618

  Dipole Moment: [e a0]
     X:    -5.9731      Y:     1.2570      Z:     0.0587     Total:     6.1042

  Dipole Moment: [D]
     X:   -15.1822      Y:     3.1951      Z:     0.1492     Total:    15.5154

*** tstop() called on ds3 at Tue Apr 28 10:59:19 2020
Module time:
	user time   =     101.72 seconds =       1.70 minutes
	system time =      49.33 seconds =       0.82 minutes
	total time  =        202 seconds =       3.37 minutes
Total time:
	user time   =     101.72 seconds =       1.70 minutes
	system time =      49.33 seconds =       0.82 minutes
	total time  =        202 seconds =       3.37 minutes
                                     G D M A

                                 by Anthony Stone

                           version 2.2.06, 22 June 2011

               Distributed Multipoles from Gaussian wavefunctions

Starting at 10:59:19 on 28 Apr 2020

Using SCF density matrix from file ./SSI/SSI-195ASP-241TYR-1-dimer.test.22970.fchk

                         Distributed Multipole Analysis

Standard DMA

Positions and radii in angstrom
Multipole moments in atomic units, ea_0^k for rank k

C          x =  3.142867  y = -1.846780  z =  1.915765 angstrom
           Maximum rank =  0   Radius =  0.650 angstrom
                   Q00  =  -0.275158

C          x =  3.295867  y = -1.272780  z =  0.541765 angstrom
           Maximum rank =  0   Radius =  0.650 angstrom
                   Q00  =   0.982725

O          x =  2.298867  y = -0.906780  z = -0.118235 angstrom
           Maximum rank =  0   Radius =  0.650 angstrom
                   Q00  =  -0.931344

O          x =  4.474867  y = -1.153780  z =  0.133765 angstrom
           Maximum rank =  0   Radius =  0.650 angstrom
                   Q00  =  -0.941409

H          x =  2.980867  y = -1.013780  z =  2.603765 angstrom
           Maximum rank =  0   Radius =  0.325 angstrom
                   Q00  =   0.072656

H          x =  4.054867  y = -2.361780  z =  2.224765 angstrom
           Maximum rank =  0   Radius =  0.325 angstrom
                   Q00  =   0.051514

H          x =  2.294417  y = -2.543000  z =  1.989355 angstrom
           Maximum rank =  0   Radius =  0.325 angstrom
                   Q00  =   0.049523

C          x = -3.593133  y =  3.021220  z = -0.415235 angstrom
           Maximum rank =  0   Radius =  0.650 angstrom
                   Q00  =  -0.201547

C          x = -0.953133  y = -0.368780  z = -0.310235 angstrom
           Maximum rank =  0   Radius =  0.650 angstrom
                   Q00  =   0.375978

C          x = -2.231133  y = -0.494780  z = -0.844235 angstrom
           Maximum rank =  0   Radius =  0.650 angstrom
                   Q00  =  -0.184731

C          x = -0.537133  y =  0.857220  z =  0.215765 angstrom
           Maximum rank =  0   Radius =  0.650 angstrom
                   Q00  =  -0.095208

C          x = -3.072133  y =  0.601220  z = -0.861235 angstrom
           Maximum rank =  0   Radius =  0.650 angstrom
                   Q00  =   0.035315

C          x = -1.387133  y =  1.941220  z =  0.183765 angstrom
           Maximum rank =  0   Radius =  0.650 angstrom
                   Q00  =  -0.020724

C          x = -2.667133  y =  1.836220  z = -0.348235 angstrom
           Maximum rank =  0   Radius =  0.650 angstrom
                   Q00  =  -0.155706

O          x = -0.137133  y = -1.438780  z = -0.297235 angstrom
           Maximum rank =  0   Radius =  0.650 angstrom
                   Q00  =  -0.599122

H          x = -2.569133  y = -1.445780  z = -1.226235 angstrom
           Maximum rank =  0   Radius =  0.325 angstrom
                   Q00  =   0.050634

H          x = -0.538133  y = -2.203780  z = -0.705235 angstrom
           Maximum rank =  0   Radius =  0.325 angstrom
                   Q00  =   0.366506

H          x =  0.459867  y =  0.947220  z =  0.619765 angstrom
           Maximum rank =  0   Radius =  0.325 angstrom
                   Q00  =   0.090310

H          x = -4.077133  y =  0.486220  z = -1.233235 angstrom
           Maximum rank =  0   Radius =  0.325 angstrom
                   Q00  =   0.040830

H          x = -1.044133  y =  2.877220  z =  0.562765 angstrom
           Maximum rank =  0   Radius =  0.325 angstrom
                   Q00  =   0.038353

H          x = -3.740133  y =  3.456220  z =  0.557765 angstrom
           Maximum rank =  0   Radius =  0.325 angstrom
                   Q00  =   0.087121

H          x = -4.565133  y =  2.642220  z = -0.721235 angstrom
           Maximum rank =  0   Radius =  0.325 angstrom
                   Q00  =   0.077667

H          x = -3.303123  y =  3.806550  z = -1.128785 angstrom
           Maximum rank =  0   Radius =  0.325 angstrom
                   Q00  =   0.085817

Total multipoles referred to origin at
           x =   0.000000,  y =    0.000000,  z =    0.000000 angstrom
                   Q00  =  -1.000000

Finished at 10:59:19 on 28 Apr 2020

  DMA results are available in the Python driver through the
	  variable('DMA DISTRIBUTED MULTIPOLES')
  and
	  variable('DMA TOTAL MULTIPOLES')
  commands.

    Psi4 stopped on: Tuesday, 28 April 2020 10:59AM
    Psi4 wall time for execution: 0:03:22.72

*** Psi4 exiting successfully. Buy a developer a beer!
