                               Psi4 1.3.2 release

  ==> Input File <==

--------------------------------------------------------------------------
import numpy as np
set {scf_type pk
basis cc-pvdz
d_convergence 10
gdma_switch   0
gdma_limit    0
gdma_origin   [ 0.0,  0.0,  0.0 ]
}
molecule test {
    units Angstrom
    0 1
    --
    0 1
    C               -0.522566275891771    -0.167665056689768    -2.935106625253169
    C               -0.740566275891771     0.073334943310232    -0.330106625253170
    C               -1.155566275891771    -0.447665056689768    -1.603106625253170
    C               -1.634566275891771    -0.435665056689768     0.650893374746830
    C               -2.248566275891771    -1.221665056689768    -1.357106625253170
    C                0.299433724108229     0.918334943310232     0.082893374746830
    C                0.423433724108229     1.226334943310232     1.437893374746830
    C               -0.473566275891771     0.704334943310231     2.384893374746830
    C               -1.512566275891771    -0.130665056689768     2.001893374746830
    N               -2.539566275891771    -1.222665056689768    -0.012106625253170
    H                0.995433724108229     1.314334943310232    -0.642106625253170
    H                1.222433724108229     1.878334943310232     1.761893374746830
    H               -0.343566275891771     0.961334943310232     3.424893374746831
    H               -0.604566275891771    -1.062665056689768    -3.552106625253170
    H                0.536433724108229     0.031334943310232    -2.781106625253170
    H               -2.802566275891770    -1.762665056689768    -2.114106625253170
    H               -3.270566275891770    -1.785665056689768     0.432893374746830
    H               -2.212566275891771    -0.536665056689768     2.717893374746831
    H               -0.989846275891771     0.674154943310232    -3.467086625253170
    C                4.023433724108229     0.692334943310231    -0.530106625253170
    C                4.886433724108230     0.046334943310232     0.555893374746830
    H                3.246433724108230     0.000334943310232    -0.863106625253170
    H                3.551433724108230     1.582334943310232    -0.123106625253170
    H                4.648433724108228     0.987334943310232    -1.371106625253170
    H                5.767433724108230     0.668334943310232     0.712893374746830
    H                5.185813724108230    -0.965965056689768     0.246683374746830
    H                4.343493724108229     0.028894943310232     1.512403374746830

}
e, wfn = energy('scf', return_wfn=True)
gdma(wfn)
dmavals = variable('DMA DISTRIBUTED MULTIPOLES')
charges = np.array(dmavals)
print(charges)
np.save('SSI-025TRP-135ALA-1-dimer.npy', np.array(charges))--------------------------------------------------------------------------

*** tstart() called on ds3
*** at Mon Apr 27 16:35:29 2020

   => Loading Basis Set <=

    Name: CC-PVDZ
    Role: ORBITAL
    Keyword: BASIS
    atoms 1-9, 20-21   entry C          line   138 file /theoryfs2/ds/metcalf/miniconda2/envs/tf2gpu/share/psi4/basis/cc-pvdz.gbs
    atoms 10           entry N          line   168 file /theoryfs2/ds/metcalf/miniconda2/envs/tf2gpu/share/psi4/basis/cc-pvdz.gbs
    atoms 11-19, 22-27 entry H          line    22 file /theoryfs2/ds/metcalf/miniconda2/envs/tf2gpu/share/psi4/basis/cc-pvdz.gbs

         ---------------------------------------------------------
                                   SCF
               by Justin Turney, Rob Parrish, Andy Simmonett
                          and Daniel G. A. Smith
                              RHF Reference
                        1 Threads,    500 MiB Core
         ---------------------------------------------------------

  ==> Geometry <==

    Molecular point group: c1
    Full point group: C1

    Geometry (in Angstrom), charge = 0, multiplicity = 1:

       Center              X                  Y                   Z               Mass
    ------------   -----------------  -----------------  -----------------  -----------------
         C           -0.522566275892    -0.167665056690    -2.935106625253    12.000000000000
         C           -0.740566275892     0.073334943310    -0.330106625253    12.000000000000
         C           -1.155566275892    -0.447665056690    -1.603106625253    12.000000000000
         C           -1.634566275892    -0.435665056690     0.650893374747    12.000000000000
         C           -2.248566275892    -1.221665056690    -1.357106625253    12.000000000000
         C            0.299433724108     0.918334943310     0.082893374747    12.000000000000
         C            0.423433724108     1.226334943310     1.437893374747    12.000000000000
         C           -0.473566275892     0.704334943310     2.384893374747    12.000000000000
         C           -1.512566275892    -0.130665056690     2.001893374747    12.000000000000
         N           -2.539566275892    -1.222665056690    -0.012106625253    14.003074004430
         H            0.995433724108     1.314334943310    -0.642106625253     1.007825032230
         H            1.222433724108     1.878334943310     1.761893374747     1.007825032230
         H           -0.343566275892     0.961334943310     3.424893374747     1.007825032230
         H           -0.604566275892    -1.062665056690    -3.552106625253     1.007825032230
         H            0.536433724108     0.031334943310    -2.781106625253     1.007825032230
         H           -2.802566275892    -1.762665056690    -2.114106625253     1.007825032230
         H           -3.270566275892    -1.785665056690     0.432893374747     1.007825032230
         H           -2.212566275892    -0.536665056690     2.717893374747     1.007825032230
         H           -0.989846275892     0.674154943310    -3.467086625253     1.007825032230
         C            4.023433724108     0.692334943310    -0.530106625253    12.000000000000
         C            4.886433724108     0.046334943310     0.555893374747    12.000000000000
         H            3.246433724108     0.000334943310    -0.863106625253     1.007825032230
         H            3.551433724108     1.582334943310    -0.123106625253     1.007825032230
         H            4.648433724108     0.987334943310    -1.371106625253     1.007825032230
         H            5.767433724108     0.668334943310     0.712893374747     1.007825032230
         H            5.185813724108    -0.965965056690     0.246683374747     1.007825032230
         H            4.343493724108     0.028894943310     1.512403374747     1.007825032230

  Running in c1 symmetry.

  Rotational constants: A =      0.03804  B =      0.01736  C =      0.01299 [cm^-1]
  Rotational constants: A =   1140.37814  B =    520.51780  C =    389.48573 [MHz]
  Nuclear repulsion =  645.225164364407078

  Charge       = 0
  Multiplicity = 1
  Electrons    = 88
  Nalpha       = 44
  Nbeta        = 44

  ==> Algorithm <==

  SCF Algorithm Type is PK.
  DIIS enabled.
  MOM disabled.
  Fractional occupation disabled.
  Guess Type is SAD.
  Energy threshold   = 1.00e-06
  Density threshold  = 1.00e-10
  Integral threshold = 0.00e+00

  ==> Primary Basis <==

  Basis Set: CC-PVDZ
    Blend: CC-PVDZ
    Number of shells: 117
    Number of basis function: 243
    Number of Cartesian functions: 255
    Spherical Harmonics?: true
    Max angular momentum: 2

  ==> Pre-Iterations <==

   -------------------------------------------------------
    Irrep   Nso     Nmo     Nalpha   Nbeta   Ndocc  Nsocc
   -------------------------------------------------------
     A        243     243       0       0       0       0
   -------------------------------------------------------
    Total     243     243      44      44      44       0
   -------------------------------------------------------

  ==> Integral Setup <==

  Using integral reordering PK algorithm.
  Sizing the integral batches needed.
  Building batch lookup table.
   Calculation information:
      Number of atoms:                  27
      Number of AO shells:             117
      Number of primitives:            339
      Number of atomic orbitals:       255
      Number of basis functions:       243

      Integral cutoff                 1.00e-12
      Number of threads:                 1

	Batch   1 pq = [       0,    9405] index = [             0,44231715] size =     44231715
	Batch   2 pq = [    9405,   13301] index = [      44231715,88464951] size =     44233236
	Batch   3 pq = [   13301,   16290] index = [      88464951,132690195] size =     44225244
	Batch   4 pq = [   16290,   18810] index = [     132690195,176917455] size =     44227260
	Batch   5 pq = [   18810,   21030] index = [     176917455,221140965] size =     44223510
	Batch   6 pq = [   21030,   23037] index = [     221140965,265363203] size =     44222238
	Batch   7 pq = [   23037,   24883] index = [     265363203,309594286] size =     44231083
	Batch   8 pq = [   24883,   26601] index = [     309594286,353819901] size =     44225615
	Batch   9 pq = [   26601,   28214] index = [     353819901,398029005] size =     44209104
	Batch  10 pq = [   28214,   29646] index = [     398029005,439457481] size =     41428476
  Task number: 40
  Buffer size: 11059200
  Buffer per thread: 2
  We computed 20714498 shell quartets total.
  Whereas there are 23829156 unique shell quartets.

  ==> DiskJK: Disk-Based J/K Matrices <==

    J tasked:                  Yes
    K tasked:                  Yes
    wK tasked:                  No
    Memory [MiB]:              375
    Schwarz Cutoff:          1E-12

    OpenMP threads:              1

  Minimum eigenvalue in the overlap matrix is 2.4093923553E-04.
  Using Symmetric Orthogonalization.

  SCF Guess: Superposition of Atomic Densities via on-the-fly atomic UHF.

  ==> Iterations <==

                        Total Energy        Delta E     RMS |[F,P]|

   @RHF iter SAD:  -478.99305751927545   -4.78993e+02   0.00000e+00
   @RHF iter   1:  -479.48835352729384   -4.95296e-01   2.60434e-03 DIIS
   @RHF iter   2:  -479.72055816395005   -2.32205e-01   1.16290e-03 DIIS
   @RHF iter   3:  -479.76276964638413   -4.22115e-02   3.04302e-04 DIIS
   @RHF iter   4:  -479.76659808902883   -3.82844e-03   1.40699e-04 DIIS
   @RHF iter   5:  -479.76725991161567   -6.61823e-04   2.01228e-05 DIIS
   @RHF iter   6:  -479.76728961292361   -2.97013e-05   9.27678e-06 DIIS
   @RHF iter   7:  -479.76729572471885   -6.11180e-06   3.88686e-06 DIIS
   @RHF iter   8:  -479.76729750364547   -1.77893e-06   1.54072e-06 DIIS
   @RHF iter   9:  -479.76729786057808   -3.56933e-07   6.88332e-07 DIIS
   @RHF iter  10:  -479.76729793244783   -7.18697e-08   3.14068e-07 DIIS
   @RHF iter  11:  -479.76729794972704   -1.72792e-08   1.17565e-07 DIIS
   @RHF iter  12:  -479.76729795207967   -2.35264e-09   3.83630e-08 DIIS
   @RHF iter  13:  -479.76729795223969   -1.60014e-10   1.01024e-08 DIIS
   @RHF iter  14:  -479.76729795224912   -9.43601e-12   4.39589e-09 DIIS
   @RHF iter  15:  -479.76729795225611   -6.99174e-12   2.27336e-09 DIIS
   @RHF iter  16:  -479.76729795225413    1.98952e-12   9.72212e-10 DIIS
   @RHF iter  17:  -479.76729795225106    3.06954e-12   4.09758e-10 DIIS
   @RHF iter  18:  -479.76729795225128   -2.27374e-13   1.60784e-10 DIIS
   @RHF iter  19:  -479.76729795225356   -2.27374e-12   5.39418e-11 DIIS
  Energy and wave function converged.

  ==> Post-Iterations <==

    Orbital Energies [Eh]
    ---------------------

    Doubly Occupied:

       1A    -15.602079     2A    -11.263294     3A    -11.263083
       4A    -11.230366     5A    -11.229844     6A    -11.228980
       7A    -11.226607     8A    -11.221120     9A    -11.220007
      10A    -11.217216    11A    -11.214878    12A    -11.212627
      13A     -1.293402    14A     -1.125969    15A     -1.072201
      16A     -1.014251    17A     -0.995443    18A     -0.985896
      19A     -0.930908    20A     -0.838550    21A     -0.832250
      22A     -0.802223    23A     -0.751872    24A     -0.717362
      25A     -0.662117    26A     -0.641468    27A     -0.602222
      28A     -0.597005    29A     -0.594688    30A     -0.590484
      31A     -0.586807    32A     -0.567271    33A     -0.552201
      34A     -0.536936    35A     -0.526317    36A     -0.495367
      37A     -0.493615    38A     -0.484084    39A     -0.480094
      40A     -0.469454    41A     -0.459740    42A     -0.372452
      43A     -0.294083    44A     -0.273951

    Virtual:

      45A      0.125291    46A      0.167599    47A      0.175481
      48A      0.180163    49A      0.192435    50A      0.207539
      51A      0.217520    52A      0.224516    53A      0.226234
      54A      0.246992    55A      0.248679    56A      0.264558
      57A      0.277792    58A      0.289790    59A      0.293753
      60A      0.300061    61A      0.317795    62A      0.339742
      63A      0.372267    64A      0.388192    65A      0.400147
      66A      0.407772    67A      0.422271    68A      0.450393
      69A      0.471785    70A      0.480113    71A      0.502882
      72A      0.512518    73A      0.587165    74A      0.603011
      75A      0.607425    76A      0.613748    77A      0.624667
      78A      0.641392    79A      0.643820    80A      0.669267
      81A      0.678466    82A      0.694557    83A      0.696915
      84A      0.703042    85A      0.718916    86A      0.731292
      87A      0.735324    88A      0.743123    89A      0.743582
      90A      0.759155    91A      0.766144    92A      0.781312
      93A      0.789501    94A      0.790994    95A      0.801886
      96A      0.841759    97A      0.843523    98A      0.865150
      99A      0.875292   100A      0.884145   101A      0.886415
     102A      0.892820   103A      0.899580   104A      0.902797
     105A      0.907985   106A      0.913648   107A      0.915142
     108A      0.925440   109A      0.942745   110A      0.950996
     111A      0.964810   112A      0.969038   113A      0.975606
     114A      0.990517   115A      1.011773   116A      1.023955
     117A      1.053667   118A      1.077213   119A      1.090897
     120A      1.118835   121A      1.127466   122A      1.137535
     123A      1.142170   124A      1.145138   125A      1.154459
     126A      1.197938   127A      1.213991   128A      1.226106
     129A      1.237707   130A      1.240693   131A      1.247592
     132A      1.254432   133A      1.276230   134A      1.286818
     135A      1.300364   136A      1.328742   137A      1.332458
     138A      1.359166   139A      1.370049   140A      1.424441
     141A      1.446328   142A      1.485092   143A      1.492592
     144A      1.516440   145A      1.553485   146A      1.568215
     147A      1.589014   148A      1.602306   149A      1.627405
     150A      1.637656   151A      1.649690   152A      1.682097
     153A      1.689610   154A      1.695242   155A      1.714618
     156A      1.738044   157A      1.761157   158A      1.767610
     159A      1.784380   160A      1.809937   161A      1.820316
     162A      1.837107   163A      1.862879   164A      1.871492
     165A      1.889168   166A      1.896813   167A      1.898640
     168A      1.901808   169A      1.913241   170A      1.917136
     171A      1.928296   172A      1.941099   173A      1.944106
     174A      1.947972   175A      1.950438   176A      1.957094
     177A      1.965501   178A      1.978123   179A      1.983650
     180A      1.999680   181A      2.006866   182A      2.011691
     183A      2.043609   184A      2.070158   185A      2.080132
     186A      2.086078   187A      2.095830   188A      2.107893
     189A      2.121193   190A      2.133459   191A      2.140687
     192A      2.147008   193A      2.164654   194A      2.174844
     195A      2.178924   196A      2.231108   197A      2.264919
     198A      2.279070   199A      2.300304   200A      2.304404
     201A      2.308666   202A      2.316006   203A      2.340485
     204A      2.357837   205A      2.399908   206A      2.402902
     207A      2.446779   208A      2.449111   209A      2.457678
     210A      2.470558   211A      2.529256   212A      2.576067
     213A      2.585518   214A      2.594485   215A      2.598520
     216A      2.631977   217A      2.665650   218A      2.687585
     219A      2.718362   220A      2.766054   221A      2.773102
     222A      2.776102   223A      2.782736   224A      2.797260
     225A      2.807930   226A      2.828480   227A      2.842851
     228A      2.850128   229A      2.856582   230A      2.874645
     231A      2.915657   232A      2.947628   233A      2.966040
     234A      2.980069   235A      3.022178   236A      3.046827
     237A      3.071301   238A      3.113614   239A      3.204795
     240A      3.299052   241A      3.371293   242A      3.728013
     243A      3.946636

    Final Occupation by Irrep:
              A
    DOCC [    44 ]

  @RHF Final Energy:  -479.76729795225356

   => Energetics <=

    Nuclear Repulsion Energy =            645.2251643644070782
    One-Electron Energy =               -1928.4433586034165273
    Two-Electron Energy =                 803.4508962867557784
    Total Energy =                       -479.7672979522535570

Computation Completed

Properties will be evaluated at   0.000000,   0.000000,   0.000000 [a0]

Properties computed using the SCF density matrix

  Nuclear Dipole Moment: [e a0]
     X:    18.0758      Y:     1.8908      Z:    -3.8476

  Electronic Dipole Moment: [e a0]
     X:   -18.7024      Y:    -2.4182      Z:     3.7331

  Dipole Moment: [e a0]
     X:    -0.6265      Y:    -0.5274      Z:    -0.1145     Total:     0.8270

  Dipole Moment: [D]
     X:    -1.5925      Y:    -1.3406      Z:    -0.2911     Total:     2.1019

*** tstop() called on ds3 at Mon Apr 27 16:39:52 2020
Module time:
	user time   =     190.52 seconds =       3.18 minutes
	system time =      82.10 seconds =       1.37 minutes
	total time  =        263 seconds =       4.38 minutes
Total time:
	user time   =     190.52 seconds =       3.18 minutes
	system time =      82.10 seconds =       1.37 minutes
	total time  =        263 seconds =       4.38 minutes
                                     G D M A

                                 by Anthony Stone

                           version 2.2.06, 22 June 2011

               Distributed Multipoles from Gaussian wavefunctions

Starting at 16:39:52 on 27 Apr 2020

Using SCF density matrix from file ./SSI/SSI-025TRP-135ALA-1-dimer.test.27335.fchk

                         Distributed Multipole Analysis

Standard DMA

Positions and radii in angstrom
Multipole moments in atomic units, ea_0^k for rank k

C          x = -0.522566  y = -0.167665  z = -2.935107 angstrom
           Maximum rank =  0   Radius =  0.650 angstrom
                   Q00  =  -0.214202

C          x = -0.740566  y =  0.073335  z = -0.330107 angstrom
           Maximum rank =  0   Radius =  0.650 angstrom
                   Q00  =  -0.049017

C          x = -1.155566  y = -0.447665  z = -1.603107 angstrom
           Maximum rank =  0   Radius =  0.650 angstrom
                   Q00  =  -0.125930

C          x = -1.634566  y = -0.435665  z =  0.650893 angstrom
           Maximum rank =  0   Radius =  0.650 angstrom
                   Q00  =   0.292407

C          x = -2.248566  y = -1.221665  z = -1.357107 angstrom
           Maximum rank =  0   Radius =  0.650 angstrom
                   Q00  =   0.074595

C          x =  0.299434  y =  0.918335  z =  0.082893 angstrom
           Maximum rank =  0   Radius =  0.650 angstrom
                   Q00  =  -0.099297

C          x =  0.423434  y =  1.226335  z =  1.437893 angstrom
           Maximum rank =  0   Radius =  0.650 angstrom
                   Q00  =  -0.082345

C          x = -0.473566  y =  0.704335  z =  2.384893 angstrom
           Maximum rank =  0   Radius =  0.650 angstrom
                   Q00  =  -0.075485

C          x = -1.512566  y = -0.130665  z =  2.001893 angstrom
           Maximum rank =  0   Radius =  0.650 angstrom
                   Q00  =  -0.120391

N          x = -2.539566  y = -1.222665  z = -0.012107 angstrom
           Maximum rank =  0   Radius =  0.650 angstrom
                   Q00  =  -0.498632

H          x =  0.995434  y =  1.314335  z = -0.642107 angstrom
           Maximum rank =  0   Radius =  0.325 angstrom
                   Q00  =   0.073109

H          x =  1.222434  y =  1.878335  z =  1.761893 angstrom
           Maximum rank =  0   Radius =  0.325 angstrom
                   Q00  =   0.059354

H          x = -0.343566  y =  0.961335  z =  3.424893 angstrom
           Maximum rank =  0   Radius =  0.325 angstrom
                   Q00  =   0.064742

H          x = -0.604566  y = -1.062665  z = -3.552107 angstrom
           Maximum rank =  0   Radius =  0.325 angstrom
                   Q00  =   0.102504

H          x =  0.536434  y =  0.031335  z = -2.781107 angstrom
           Maximum rank =  0   Radius =  0.325 angstrom
                   Q00  =   0.105945

H          x = -2.802566  y = -1.762665  z = -2.114107 angstrom
           Maximum rank =  0   Radius =  0.325 angstrom
                   Q00  =   0.099041

H          x = -3.270566  y = -1.785665  z =  0.432893 angstrom
           Maximum rank =  0   Radius =  0.325 angstrom
                   Q00  =   0.218762

H          x = -2.212566  y = -0.536665  z =  2.717893 angstrom
           Maximum rank =  0   Radius =  0.325 angstrom
                   Q00  =   0.073266

H          x = -0.989846  y =  0.674155  z = -3.467087 angstrom
           Maximum rank =  0   Radius =  0.325 angstrom
                   Q00  =   0.101650

C          x =  4.023434  y =  0.692335  z = -0.530107 angstrom
           Maximum rank =  0   Radius =  0.650 angstrom
                   Q00  =  -0.228117

C          x =  4.886434  y =  0.046335  z =  0.555893 angstrom
           Maximum rank =  0   Radius =  0.650 angstrom
                   Q00  =  -0.242584

H          x =  3.246434  y =  0.000335  z = -0.863107 angstrom
           Maximum rank =  0   Radius =  0.325 angstrom
                   Q00  =   0.083949

H          x =  3.551434  y =  1.582335  z = -0.123107 angstrom
           Maximum rank =  0   Radius =  0.325 angstrom
                   Q00  =   0.076077

H          x =  4.648434  y =  0.987335  z = -1.371107 angstrom
           Maximum rank =  0   Radius =  0.325 angstrom
                   Q00  =   0.075617

H          x =  5.767434  y =  0.668335  z =  0.712893 angstrom
           Maximum rank =  0   Radius =  0.325 angstrom
                   Q00  =   0.074563

H          x =  5.185814  y = -0.965965  z =  0.246683 angstrom
           Maximum rank =  0   Radius =  0.325 angstrom
                   Q00  =   0.080193

H          x =  4.343494  y =  0.028895  z =  1.512403 angstrom
           Maximum rank =  0   Radius =  0.325 angstrom
                   Q00  =   0.080227

Total multipoles referred to origin at
           x =   0.000000,  y =    0.000000,  z =    0.000000 angstrom
                   Q00  =  -0.000000

Finished at 16:39:53 on 27 Apr 2020

  DMA results are available in the Python driver through the
	  variable('DMA DISTRIBUTED MULTIPOLES')
  and
	  variable('DMA TOTAL MULTIPOLES')
  commands.

    Psi4 stopped on: Monday, 27 April 2020 04:39PM
    Psi4 wall time for execution: 0:04:23.37

*** Psi4 exiting successfully. Buy a developer a beer!
