                               Psi4 1.3.2 release

  ==> Input File <==

--------------------------------------------------------------------------
import numpy as np
set {scf_type pk
basis cc-pvdz
d_convergence 10
gdma_switch   0
gdma_limit    0
gdma_origin   [ 0.0,  0.0,  0.0 ]
}
molecule test {
    units Angstrom
    0 1
    --
    0 1
    C               -0.090586839388127     1.815141746981672     3.161517006610315
    C               -0.443586839388127    -0.858858253018328     0.478517006610315
    C                0.808413160611873    -0.823858253018328    -0.123482993389685
    C               -0.724586839388127    -0.003858253018328     1.533517006610315
    C                0.227413160611873     0.904141746981672     1.999517006610315
    C                1.780413160611873     0.074141746981672     0.325517006610315
    C                1.495413160611873     0.920141746981672     1.406517006610315
    O                1.077413160611873    -1.681858253018328    -1.166482993389685
    H               -1.186586839388127    -1.559858253018328     0.126517006610315
    H               -1.700586839388127    -0.045858253018328     2.002517006610315
    H                2.758413160611873     0.094141746981672    -0.137482993389685
    H                1.981413160611873    -1.586858253018328    -1.488482993389685
    H                0.850413160611873     2.063141746981672     3.650517006610315
    H               -0.699586839388127     1.276141746981672     3.890517006610315
    H                2.254413160611873     1.601141746981672     1.770517006610315
    H               -0.581566839388127     2.761261746981672     2.889867006610315
    C               -1.781586839388127    -0.261858253018328    -2.600482993389685
    C               -2.050586839388127     0.129141746981672    -4.024482993389685
    H               -2.284586839388127     0.415141746981672    -1.910482993389685
    H               -2.154586839388127    -1.271858253018328    -2.430482993389685
    H               -0.712586839388127    -0.271858253018328    -2.407482993389686
    H               -1.414586839388127    -0.465858253018328    -4.680482993389686
    H               -1.826876839388127     1.196601746981672    -4.167625993389685
    H               -3.103657839388127    -0.067928253018328    -4.273894993389685

}
e, wfn = energy('scf', return_wfn=True)
gdma(wfn)
dmavals = variable('DMA DISTRIBUTED MULTIPOLES')
charges = np.array(dmavals)
print(charges)
np.save('SSI-037TYR-046THR-1-dimer.npy', np.array(charges))--------------------------------------------------------------------------

*** tstart() called on ds3
*** at Tue Apr 28 12:12:58 2020

   => Loading Basis Set <=

    Name: CC-PVDZ
    Role: ORBITAL
    Keyword: BASIS
    atoms 1-7, 17-18  entry C          line   138 file /theoryfs2/ds/metcalf/miniconda2/envs/tf2gpu/share/psi4/basis/cc-pvdz.gbs
    atoms 8           entry O          line   198 file /theoryfs2/ds/metcalf/miniconda2/envs/tf2gpu/share/psi4/basis/cc-pvdz.gbs
    atoms 9-16, 19-24 entry H          line    22 file /theoryfs2/ds/metcalf/miniconda2/envs/tf2gpu/share/psi4/basis/cc-pvdz.gbs

         ---------------------------------------------------------
                                   SCF
               by Justin Turney, Rob Parrish, Andy Simmonett
                          and Daniel G. A. Smith
                              RHF Reference
                        1 Threads,    500 MiB Core
         ---------------------------------------------------------

  ==> Geometry <==

    Molecular point group: c1
    Full point group: C1

    Geometry (in Angstrom), charge = 0, multiplicity = 1:

       Center              X                  Y                   Z               Mass
    ------------   -----------------  -----------------  -----------------  -----------------
         C           -0.090586839388     1.815141746982     3.161517006610    12.000000000000
         C           -0.443586839388    -0.858858253018     0.478517006610    12.000000000000
         C            0.808413160612    -0.823858253018    -0.123482993390    12.000000000000
         C           -0.724586839388    -0.003858253018     1.533517006610    12.000000000000
         C            0.227413160612     0.904141746982     1.999517006610    12.000000000000
         C            1.780413160612     0.074141746982     0.325517006610    12.000000000000
         C            1.495413160612     0.920141746982     1.406517006610    12.000000000000
         O            1.077413160612    -1.681858253018    -1.166482993390    15.994914619570
         H           -1.186586839388    -1.559858253018     0.126517006610     1.007825032230
         H           -1.700586839388    -0.045858253018     2.002517006610     1.007825032230
         H            2.758413160612     0.094141746982    -0.137482993390     1.007825032230
         H            1.981413160612    -1.586858253018    -1.488482993390     1.007825032230
         H            0.850413160612     2.063141746982     3.650517006610     1.007825032230
         H           -0.699586839388     1.276141746982     3.890517006610     1.007825032230
         H            2.254413160612     1.601141746982     1.770517006610     1.007825032230
         H           -0.581566839388     2.761261746982     2.889867006610     1.007825032230
         C           -1.781586839388    -0.261858253018    -2.600482993390    12.000000000000
         C           -2.050586839388     0.129141746982    -4.024482993390    12.000000000000
         H           -2.284586839388     0.415141746982    -1.910482993390     1.007825032230
         H           -2.154586839388    -1.271858253018    -2.430482993390     1.007825032230
         H           -0.712586839388    -0.271858253018    -2.407482993390     1.007825032230
         H           -1.414586839388    -0.465858253018    -4.680482993390     1.007825032230
         H           -1.826876839388     1.196601746982    -4.167625993390     1.007825032230
         H           -3.103657839388    -0.067928253018    -4.273894993390     1.007825032230

  Running in c1 symmetry.

  Rotational constants: A =      0.06120  B =      0.02060  C =      0.01758 [cm^-1]
  Rotational constants: A =   1834.86457  B =    617.54848  C =    527.02175 [MHz]
  Nuclear repulsion =  496.370835509006383

  Charge       = 0
  Multiplicity = 1
  Electrons    = 76
  Nalpha       = 38
  Nbeta        = 38

  ==> Algorithm <==

  SCF Algorithm Type is PK.
  DIIS enabled.
  MOM disabled.
  Fractional occupation disabled.
  Guess Type is SAD.
  Energy threshold   = 1.00e-06
  Density threshold  = 1.00e-10
  Integral threshold = 0.00e+00

  ==> Primary Basis <==

  Basis Set: CC-PVDZ
    Blend: CC-PVDZ
    Number of shells: 102
    Number of basis function: 210
    Number of Cartesian functions: 220
    Spherical Harmonics?: true
    Max angular momentum: 2

  ==> Pre-Iterations <==

   -------------------------------------------------------
    Irrep   Nso     Nmo     Nalpha   Nbeta   Ndocc  Nsocc
   -------------------------------------------------------
     A        210     210       0       0       0       0
   -------------------------------------------------------
    Total     210     210      38      38      38       0
   -------------------------------------------------------

  ==> Integral Setup <==

  Using integral reordering PK algorithm.
  Sizing the integral batches needed.
  Building batch lookup table.
   Calculation information:
      Number of atoms:                  24
      Number of AO shells:             102
      Number of primitives:            290
      Number of atomic orbitals:       220
      Number of basis functions:       210

      Integral cutoff                 1.00e-12
      Number of threads:                 1

	Batch   1 pq = [       0,    9405] index = [             0,44231715] size =     44231715
	Batch   2 pq = [    9405,   13301] index = [      44231715,88464951] size =     44233236
	Batch   3 pq = [   13301,   16290] index = [      88464951,132690195] size =     44225244
	Batch   4 pq = [   16290,   18810] index = [     132690195,176917455] size =     44227260
	Batch   5 pq = [   18810,   21030] index = [     176917455,221140965] size =     44223510
	Batch   6 pq = [   21030,   22155] index = [     221140965,245433090] size =     24292125
  Task number: 23
  Buffer size: 11059200
  Buffer per thread: 2
  We computed 11526343 shell quartets total.
  Whereas there are 13799631 unique shell quartets.

  ==> DiskJK: Disk-Based J/K Matrices <==

    J tasked:                  Yes
    K tasked:                  Yes
    wK tasked:                  No
    Memory [MiB]:              375
    Schwarz Cutoff:          1E-12

    OpenMP threads:              1

  Minimum eigenvalue in the overlap matrix is 3.2756414146E-04.
  Using Symmetric Orthogonalization.

  SCF Guess: Superposition of Atomic Densities via on-the-fly atomic UHF.

  ==> Iterations <==

                        Total Energy        Delta E     RMS |[F,P]|

   @RHF iter SAD:  -422.68081160146994   -4.22681e+02   0.00000e+00
   @RHF iter   1:  -423.59653081887927   -9.15719e-01   2.99922e-03 DIIS
   @RHF iter   2:  -423.81533399880482   -2.18803e-01   1.27233e-03 DIIS
   @RHF iter   3:  -423.85099591276622   -3.56619e-02   2.86970e-04 DIIS
   @RHF iter   4:  -423.85390052837482   -2.90462e-03   1.20515e-04 DIIS
   @RHF iter   5:  -423.85427408566454   -3.73557e-04   2.08022e-05 DIIS
   @RHF iter   6:  -423.85429196447689   -1.78788e-05   6.48802e-06 DIIS
   @RHF iter   7:  -423.85429369597358   -1.73150e-06   2.14430e-06 DIIS
   @RHF iter   8:  -423.85429394449028   -2.48517e-07   8.28706e-07 DIIS
   @RHF iter   9:  -423.85429398873174   -4.42415e-08   3.18960e-07 DIIS
   @RHF iter  10:  -423.85429399722409   -8.49235e-09   1.29210e-07 DIIS
   @RHF iter  11:  -423.85429399967825   -2.45416e-09   6.07730e-08 DIIS
   @RHF iter  12:  -423.85429400015403   -4.75779e-10   2.73126e-08 DIIS
   @RHF iter  13:  -423.85429400023753   -8.35030e-11   8.38878e-09 DIIS
   @RHF iter  14:  -423.85429400024299   -5.45697e-12   2.10405e-09 DIIS
   @RHF iter  15:  -423.85429400024219    7.95808e-13   8.72751e-10 DIIS
   @RHF iter  16:  -423.85429400024361   -1.42109e-12   3.59524e-10 DIIS
   @RHF iter  17:  -423.85429400024657   -2.95586e-12   1.73533e-10 DIIS
   @RHF iter  18:  -423.85429400024498    1.59162e-12   8.71831e-11 DIIS
  Energy and wave function converged.

  ==> Post-Iterations <==

    Orbital Energies [Eh]
    ---------------------

    Doubly Occupied:

       1A    -20.584197     2A    -11.300053     3A    -11.241381
       4A    -11.237555     5A    -11.236501     6A    -11.235071
       7A    -11.230080     8A    -11.228405     9A    -11.208592
      10A    -11.200796    11A     -1.394362    12A     -1.149747
      13A     -1.036755    14A     -1.017908    15A     -1.014831
      16A     -0.925784    17A     -0.843623    18A     -0.823640
      19A     -0.801349    20A     -0.729084    21A     -0.665955
      22A     -0.641625    23A     -0.606515    24A     -0.596473
      25A     -0.591371    26A     -0.587346    27A     -0.580921
      28A     -0.569192    29A     -0.566338    30A     -0.525357
      31A     -0.498600    32A     -0.495086    33A     -0.484769
      34A     -0.474329    35A     -0.470365    36A     -0.466322
      37A     -0.338316    38A     -0.302786

    Virtual:

      39A      0.129834    40A      0.153437    41A      0.176071
      42A      0.186179    43A      0.197297    44A      0.212136
      45A      0.220985    46A      0.245745    47A      0.257401
      48A      0.260549    49A      0.270037    50A      0.278542
      51A      0.287171    52A      0.292603    53A      0.313814
      54A      0.324877    55A      0.367892    56A      0.369625
      57A      0.417397    58A      0.434863    59A      0.455243
      60A      0.478244    61A      0.497069    62A      0.507763
      63A      0.593910    64A      0.602138    65A      0.613881
      66A      0.616749    67A      0.632510    68A      0.655641
      69A      0.663299    70A      0.672226    71A      0.680171
      72A      0.700946    73A      0.709502    74A      0.724006
      75A      0.733700    76A      0.738945    77A      0.760370
      78A      0.773988    79A      0.775917    80A      0.786969
      81A      0.822440    82A      0.831638    83A      0.849463
      84A      0.870084    85A      0.876011    86A      0.878133
      87A      0.884311    88A      0.892735    89A      0.897149
      90A      0.904646    91A      0.916100    92A      0.926965
      93A      0.931052    94A      0.935710    95A      0.938921
      96A      0.945225    97A      0.962146    98A      0.993015
      99A      1.000378   100A      1.027126   101A      1.039355
     102A      1.060136   103A      1.118279   104A      1.133073
     105A      1.143216   106A      1.149451   107A      1.165274
     108A      1.176211   109A      1.201893   110A      1.228843
     111A      1.244865   112A      1.267192   113A      1.275722
     114A      1.297502   115A      1.300201   116A      1.309457
     117A      1.327789   118A      1.360208   119A      1.382387
     120A      1.399306   121A      1.473047   122A      1.496993
     123A      1.503107   124A      1.510441   125A      1.530420
     126A      1.553619   127A      1.598635   128A      1.610382
     129A      1.634862   130A      1.687698   131A      1.689026
     132A      1.702786   133A      1.720093   134A      1.738045
     135A      1.746678   136A      1.777761   137A      1.798876
     138A      1.811193   139A      1.863320   140A      1.874169
     141A      1.885357   142A      1.892194   143A      1.896998
     144A      1.903961   145A      1.907374   146A      1.917364
     147A      1.940600   148A      1.948272   149A      1.951662
     150A      1.958222   151A      1.960612   152A      1.971586
     153A      1.978942   154A      1.984803   155A      2.003743
     156A      2.029966   157A      2.047610   158A      2.053577
     159A      2.061663   160A      2.067577   161A      2.071659
     162A      2.126250   163A      2.137518   164A      2.140286
     165A      2.147400   166A      2.165809   167A      2.201319
     168A      2.232092   169A      2.253998   170A      2.270778
     171A      2.301060   172A      2.312649   173A      2.326268
     174A      2.349474   175A      2.417427   176A      2.443848
     177A      2.447118   178A      2.465695   179A      2.470047
     180A      2.476123   181A      2.491266   182A      2.531092
     183A      2.550084   184A      2.592792   185A      2.596804
     186A      2.623353   187A      2.645225   188A      2.748257
     189A      2.767818   190A      2.773141   191A      2.783727
     192A      2.799552   193A      2.820204   194A      2.846694
     195A      2.862981   196A      2.873215   197A      2.893530
     198A      2.967220   199A      2.972161   200A      2.989547
     201A      2.997656   202A      3.078030   203A      3.104996
     204A      3.243470   205A      3.274815   206A      3.339234
     207A      3.569239   208A      3.666252   209A      3.956907
     210A      4.187628

    Final Occupation by Irrep:
              A
    DOCC [    38 ]

  @RHF Final Energy:  -423.85429400024498

   => Energetics <=

    Nuclear Repulsion Energy =            496.3708355090063833
    One-Electron Energy =               -1558.6475008008110308
    Two-Electron Energy =                 638.4223712915596707
    Total Energy =                       -423.8542940002449768

Computation Completed

Properties will be evaluated at   0.000000,   0.000000,   0.000000 [a0]

Properties computed using the SCF density matrix

  Nuclear Dipole Moment: [e a0]
     X:    -7.3264      Y:     3.8707      Z:    -6.7235

  Electronic Dipole Moment: [e a0]
     X:     7.8395      Y:    -3.5900      Z:     6.9269

  Dipole Moment: [e a0]
     X:     0.5132      Y:     0.2807      Z:     0.2034     Total:     0.6193

  Dipole Moment: [D]
     X:     1.3043      Y:     0.7134      Z:     0.5170     Total:     1.5740

*** tstop() called on ds3 at Tue Apr 28 12:16:25 2020
Module time:
	user time   =      90.18 seconds =       1.50 minutes
	system time =      34.33 seconds =       0.57 minutes
	total time  =        207 seconds =       3.45 minutes
Total time:
	user time   =      90.18 seconds =       1.50 minutes
	system time =      34.33 seconds =       0.57 minutes
	total time  =        207 seconds =       3.45 minutes
                                     G D M A

                                 by Anthony Stone

                           version 2.2.06, 22 June 2011

               Distributed Multipoles from Gaussian wavefunctions

Starting at 12:16:25 on 28 Apr 2020

Using SCF density matrix from file ./SSI/SSI-037TYR-046THR-1-dimer.test.14588.fchk

                         Distributed Multipole Analysis

Standard DMA

Positions and radii in angstrom
Multipole moments in atomic units, ea_0^k for rank k

C          x = -0.090587  y =  1.815142  z =  3.161517 angstrom
           Maximum rank =  0   Radius =  0.650 angstrom
                   Q00  =  -0.192874

C          x = -0.443587  y = -0.858858  z =  0.478517 angstrom
           Maximum rank =  0   Radius =  0.650 angstrom
                   Q00  =  -0.099097

C          x =  0.808413  y = -0.823858  z = -0.123483 angstrom
           Maximum rank =  0   Radius =  0.650 angstrom
                   Q00  =   0.352401

C          x = -0.724587  y = -0.003858  z =  1.533517 angstrom
           Maximum rank =  0   Radius =  0.650 angstrom
                   Q00  =   0.028476

C          x =  0.227413  y =  0.904142  z =  1.999517 angstrom
           Maximum rank =  0   Radius =  0.650 angstrom
                   Q00  =  -0.139546

C          x =  1.780413  y =  0.074142  z =  0.325517 angstrom
           Maximum rank =  0   Radius =  0.650 angstrom
                   Q00  =  -0.186567

C          x =  1.495413  y =  0.920142  z =  1.406517 angstrom
           Maximum rank =  0   Radius =  0.650 angstrom
                   Q00  =  -0.065262

O          x =  1.077413  y = -1.681858  z = -1.166483 angstrom
           Maximum rank =  0   Radius =  0.650 angstrom
                   Q00  =  -0.675402

H          x = -1.186587  y = -1.559858  z =  0.126517 angstrom
           Maximum rank =  0   Radius =  0.325 angstrom
                   Q00  =   0.084389

H          x = -1.700587  y = -0.045858  z =  2.002517 angstrom
           Maximum rank =  0   Radius =  0.325 angstrom
                   Q00  =   0.062603

H          x =  2.758413  y =  0.094142  z = -0.137483 angstrom
           Maximum rank =  0   Radius =  0.325 angstrom
                   Q00  =   0.072737

H          x =  1.981413  y = -1.586858  z = -1.488483 angstrom
           Maximum rank =  0   Radius =  0.325 angstrom
                   Q00  =   0.407203

H          x =  0.850413  y =  2.063142  z =  3.650517 angstrom
           Maximum rank =  0   Radius =  0.325 angstrom
                   Q00  =   0.093267

H          x = -0.699587  y =  1.276142  z =  3.890517 angstrom
           Maximum rank =  0   Radius =  0.325 angstrom
                   Q00  =   0.096806

H          x =  2.254413  y =  1.601142  z =  1.770517 angstrom
           Maximum rank =  0   Radius =  0.325 angstrom
                   Q00  =   0.071004

H          x = -0.581567  y =  2.761262  z =  2.889867 angstrom
           Maximum rank =  0   Radius =  0.325 angstrom
                   Q00  =   0.101030

C          x = -1.781587  y = -0.261858  z = -2.600483 angstrom
           Maximum rank =  0   Radius =  0.650 angstrom
                   Q00  =  -0.228407

C          x = -2.050587  y =  0.129142  z = -4.024483 angstrom
           Maximum rank =  0   Radius =  0.650 angstrom
                   Q00  =  -0.227591

H          x = -2.284587  y =  0.415142  z = -1.910483 angstrom
           Maximum rank =  0   Radius =  0.325 angstrom
                   Q00  =   0.072770

H          x = -2.154587  y = -1.271858  z = -2.430483 angstrom
           Maximum rank =  0   Radius =  0.325 angstrom
                   Q00  =   0.069055

H          x = -0.712587  y = -0.271858  z = -2.407483 angstrom
           Maximum rank =  0   Radius =  0.325 angstrom
                   Q00  =   0.083859

H          x = -1.414587  y = -0.465858  z = -4.680483 angstrom
           Maximum rank =  0   Radius =  0.325 angstrom
                   Q00  =   0.074728

H          x = -1.826877  y =  1.196602  z = -4.167626 angstrom
           Maximum rank =  0   Radius =  0.325 angstrom
                   Q00  =   0.072914

H          x = -3.103658  y = -0.067928  z = -4.273895 angstrom
           Maximum rank =  0   Radius =  0.325 angstrom
                   Q00  =   0.071503

Total multipoles referred to origin at
           x =   0.000000,  y =    0.000000,  z =    0.000000 angstrom
                   Q00  =  -0.000000

Finished at 12:16:25 on 28 Apr 2020

  DMA results are available in the Python driver through the
	  variable('DMA DISTRIBUTED MULTIPOLES')
  and
	  variable('DMA TOTAL MULTIPOLES')
  commands.

    Psi4 stopped on: Tuesday, 28 April 2020 12:16PM
    Psi4 wall time for execution: 0:03:26.95

*** Psi4 exiting successfully. Buy a developer a beer!
