                               Psi4 1.3.2 release

  ==> Input File <==

--------------------------------------------------------------------------
import numpy as np
set {scf_type pk
basis cc-pvdz
d_convergence 10
gdma_switch   0
gdma_limit    0
gdma_origin   [ 0.0,  0.0,  0.0 ]
}
molecule test {
    units Angstrom
    0 1
    --
    0 1
    C               -0.641525504635979     0.982331628905772    -0.435569308801423
    C               -1.979525504635980     1.616331628905772    -0.825569308801423
    C                0.337474495364020     0.806331628905772    -1.595569308801422
    O                0.101474495364020     1.360331628905772    -2.692569308801422
    O                1.358474495364020     0.106331628905772    -1.407569308801423
    H               -0.180525504635980     1.543331628905772     0.381430691198577
    H               -0.901525504635980    -0.003668371094228    -0.126569308801423
    H               -1.802525504635980     2.531331628905771    -1.391569308801422
    H               -2.485525504635980     1.909331628905772     0.094430691198578
    H               -2.654735504635980     0.953281628905772    -1.386339308801422
    C                0.298474495364020    -1.363668371094228     1.668430691198578
    C               -0.171525504635980    -2.780668371094229     1.960430691198578
    N                0.626474495364020    -0.611668371094229     2.904430691198578
    H                1.127474495364020    -1.364668371094228     0.952430691198577
    H               -0.580525504635980    -0.901668371094228     1.255430691198578
    H               -1.092525504635980    -2.726668371094229     2.545430691198578
    H                0.581474495364020    -3.317668371094229     2.541430691198578
    H                1.414474495364021    -1.030668371094228     3.384430691198578
    H                0.883474495364021     0.346331628905772     2.696430691198577
    H               -0.150525504635980    -0.589668371094229     3.554430691198577
    H               -0.354795504635980    -3.323988371094229     1.021700691198578

}
e, wfn = energy('scf', return_wfn=True)
gdma(wfn)
dmavals = variable('DMA DISTRIBUTED MULTIPOLES')
charges = np.array(dmavals)
print(charges)
np.save('SSI-010GLU-014LYS-1-dimer.npy', np.array(charges))--------------------------------------------------------------------------

*** tstart() called on ds3
*** at Tue Apr 28 09:25:04 2020

   => Loading Basis Set <=

    Name: CC-PVDZ
    Role: ORBITAL
    Keyword: BASIS
    atoms 1-3, 11-12  entry C          line   138 file /theoryfs2/ds/metcalf/miniconda2/envs/tf2gpu/share/psi4/basis/cc-pvdz.gbs
    atoms 4-5         entry O          line   198 file /theoryfs2/ds/metcalf/miniconda2/envs/tf2gpu/share/psi4/basis/cc-pvdz.gbs
    atoms 6-10, 14-21 entry H          line    22 file /theoryfs2/ds/metcalf/miniconda2/envs/tf2gpu/share/psi4/basis/cc-pvdz.gbs
    atoms 13          entry N          line   168 file /theoryfs2/ds/metcalf/miniconda2/envs/tf2gpu/share/psi4/basis/cc-pvdz.gbs

         ---------------------------------------------------------
                                   SCF
               by Justin Turney, Rob Parrish, Andy Simmonett
                          and Daniel G. A. Smith
                              RHF Reference
                        1 Threads,    500 MiB Core
         ---------------------------------------------------------

  ==> Geometry <==

    Molecular point group: c1
    Full point group: C1

    Geometry (in Angstrom), charge = 0, multiplicity = 1:

       Center              X                  Y                   Z               Mass
    ------------   -----------------  -----------------  -----------------  -----------------
         C           -0.641525504636     0.982331628906    -0.435569308801    12.000000000000
         C           -1.979525504636     1.616331628906    -0.825569308801    12.000000000000
         C            0.337474495364     0.806331628906    -1.595569308801    12.000000000000
         O            0.101474495364     1.360331628906    -2.692569308801    15.994914619570
         O            1.358474495364     0.106331628906    -1.407569308801    15.994914619570
         H           -0.180525504636     1.543331628906     0.381430691199     1.007825032230
         H           -0.901525504636    -0.003668371094    -0.126569308801     1.007825032230
         H           -1.802525504636     2.531331628906    -1.391569308801     1.007825032230
         H           -2.485525504636     1.909331628906     0.094430691199     1.007825032230
         H           -2.654735504636     0.953281628906    -1.386339308801     1.007825032230
         C            0.298474495364    -1.363668371094     1.668430691199    12.000000000000
         C           -0.171525504636    -2.780668371094     1.960430691199    12.000000000000
         N            0.626474495364    -0.611668371094     2.904430691199    14.003074004430
         H            1.127474495364    -1.364668371094     0.952430691199     1.007825032230
         H           -0.580525504636    -0.901668371094     1.255430691199     1.007825032230
         H           -1.092525504636    -2.726668371094     2.545430691199     1.007825032230
         H            0.581474495364    -3.317668371094     2.541430691199     1.007825032230
         H            1.414474495364    -1.030668371094     3.384430691199     1.007825032230
         H            0.883474495364     0.346331628906     2.696430691199     1.007825032230
         H           -0.150525504636    -0.589668371094     3.554430691199     1.007825032230
         H           -0.354795504636    -3.323988371094     1.021700691199     1.007825032230

  Running in c1 symmetry.

  Rotational constants: A =      0.08911  B =      0.02519  C =      0.02271 [cm^-1]
  Rotational constants: A =   2671.34373  B =    755.10823  C =    680.93408 [MHz]
  Nuclear repulsion =  381.005191668986470

  Charge       = 0
  Multiplicity = 1
  Electrons    = 66
  Nalpha       = 33
  Nbeta        = 33

  ==> Algorithm <==

  SCF Algorithm Type is PK.
  DIIS enabled.
  MOM disabled.
  Fractional occupation disabled.
  Guess Type is SAD.
  Energy threshold   = 1.00e-06
  Density threshold  = 1.00e-10
  Integral threshold = 0.00e+00

  ==> Primary Basis <==

  Basis Set: CC-PVDZ
    Blend: CC-PVDZ
    Number of shells: 87
    Number of basis function: 177
    Number of Cartesian functions: 185
    Spherical Harmonics?: true
    Max angular momentum: 2

  ==> Pre-Iterations <==

   -------------------------------------------------------
    Irrep   Nso     Nmo     Nalpha   Nbeta   Ndocc  Nsocc
   -------------------------------------------------------
     A        177     177       0       0       0       0
   -------------------------------------------------------
    Total     177     177      33      33      33       0
   -------------------------------------------------------

  ==> Integral Setup <==

  Using integral reordering PK algorithm.
  Sizing the integral batches needed.
  Building batch lookup table.
   Calculation information:
      Number of atoms:                  21
      Number of AO shells:              87
      Number of primitives:            241
      Number of atomic orbitals:       185
      Number of basis functions:       177

      Integral cutoff                 1.00e-12
      Number of threads:                 1

	Batch   1 pq = [       0,    9405] index = [             0,44231715] size =     44231715
	Batch   2 pq = [    9405,   13301] index = [      44231715,88464951] size =     44233236
	Batch   3 pq = [   13301,   15753] index = [      88464951,124086381] size =     35621430
  Task number: 12
  Buffer size: 11059200
  Buffer per thread: 2
  We computed 6158250 shell quartets total.
  Whereas there are 7328706 unique shell quartets.

  ==> DiskJK: Disk-Based J/K Matrices <==

    J tasked:                  Yes
    K tasked:                  Yes
    wK tasked:                  No
    Memory [MiB]:              375
    Schwarz Cutoff:          1E-12

    OpenMP threads:              1

  Minimum eigenvalue in the overlap matrix is 3.4311949555E-03.
  Using Symmetric Orthogonalization.

  SCF Guess: Superposition of Atomic Densities via on-the-fly atomic UHF.

  ==> Iterations <==

                        Total Energy        Delta E     RMS |[F,P]|

   @RHF iter SAD:  -399.79686339228653   -3.99797e+02   0.00000e+00
   @RHF iter   1:  -400.68650563579570   -8.89642e-01   4.33977e-03 DIIS
   @RHF iter   2:  -400.93434500099744   -2.47839e-01   2.37239e-03 DIIS
   @RHF iter   3:  -400.99972310439102   -6.53781e-02   4.34397e-04 DIIS
   @RHF iter   4:  -401.00360895950615   -3.88586e-03   1.55974e-04 DIIS
   @RHF iter   5:  -401.00409422135249   -4.85262e-04   2.90914e-05 DIIS
   @RHF iter   6:  -401.00411693902032   -2.27177e-05   1.22241e-05 DIIS
   @RHF iter   7:  -401.00411950326810   -2.56425e-06   3.48850e-06 DIIS
   @RHF iter   8:  -401.00411989799551   -3.94727e-07   1.27535e-06 DIIS
   @RHF iter   9:  -401.00411995825647   -6.02610e-08   4.51569e-07 DIIS
   @RHF iter  10:  -401.00411996821202   -9.95556e-09   1.83823e-07 DIIS
   @RHF iter  11:  -401.00411996997900   -1.76698e-09   5.21566e-08 DIIS
   @RHF iter  12:  -401.00411997011491   -1.35913e-10   1.31848e-08 DIIS
   @RHF iter  13:  -401.00411997012026   -5.34328e-12   4.35672e-09 DIIS
   @RHF iter  14:  -401.00411997012043   -1.70530e-13   1.08506e-09 DIIS
   @RHF iter  15:  -401.00411997011997    4.54747e-13   3.01648e-10 DIIS
   @RHF iter  16:  -401.00411997012316   -3.18323e-12   1.31733e-10 DIIS
   @RHF iter  17:  -401.00411997012043    2.72848e-12   5.93465e-11 DIIS
  Energy and wave function converged.

  ==> Post-Iterations <==

    Orbital Energies [Eh]
    ---------------------

    Doubly Occupied:

       1A    -20.375059     2A    -20.370264     3A    -15.798898
       4A    -11.351541     5A    -11.302597     6A    -11.228426
       7A    -11.180281     8A    -11.178305     9A     -1.419131
      10A     -1.261673    11A     -1.146343    12A     -1.112284
      13A     -0.991736    14A     -0.946238    15A     -0.877043
      16A     -0.862458    17A     -0.821512    18A     -0.747503
      19A     -0.691673    20A     -0.627401    21A     -0.619014
      22A     -0.593512    23A     -0.585180    24A     -0.568357
      25A     -0.540807    26A     -0.501295    27A     -0.474555
      28A     -0.468398    29A     -0.437169    30A     -0.417392
      31A     -0.295329    32A     -0.281346    33A     -0.270386

    Virtual:

      34A      0.049086    35A      0.113300    36A      0.122318
      37A      0.147013    38A      0.199323    39A      0.209872
      40A      0.214501    41A      0.233791    42A      0.250513
      43A      0.261997    44A      0.272210    45A      0.302707
      46A      0.316829    47A      0.321054    48A      0.351710
      49A      0.385398    50A      0.436728    51A      0.483420
      52A      0.491930    53A      0.513981    54A      0.537049
      55A      0.542058    56A      0.580487    57A      0.596611
      58A      0.619045    59A      0.649708    60A      0.695043
      61A      0.724103    62A      0.737792    63A      0.757321
      64A      0.782173    65A      0.806677    66A      0.809761
      67A      0.814861    68A      0.823501    69A      0.834689
      70A      0.847437    71A      0.882007    72A      0.885678
      73A      0.898496    74A      0.907446    75A      0.912480
      76A      0.919459    77A      0.929742    78A      0.939816
      79A      0.950921    80A      0.960392    81A      0.967130
      82A      0.995025    83A      1.012456    84A      1.033771
      85A      1.040185    86A      1.098154    87A      1.150313
      88A      1.164170    89A      1.185898    90A      1.218570
      91A      1.298357    92A      1.306765    93A      1.359147
      94A      1.374190    95A      1.399476    96A      1.411016
      97A      1.434611    98A      1.490343    99A      1.507319
     100A      1.521154   101A      1.536130   102A      1.566368
     103A      1.574052   104A      1.604972   105A      1.612867
     106A      1.628836   107A      1.703717   108A      1.716832
     109A      1.741029   110A      1.751011   111A      1.785028
     112A      1.797329   113A      1.799014   114A      1.828185
     115A      1.850604   116A      1.859350   117A      1.890003
     118A      1.895310   119A      1.924362   120A      1.938037
     121A      1.957094   122A      1.961042   123A      1.985419
     124A      1.996561   125A      1.999823   126A      2.033113
     127A      2.040952   128A      2.057736   129A      2.065775
     130A      2.094089   131A      2.109004   132A      2.124220
     133A      2.141950   134A      2.189246   135A      2.195163
     136A      2.233150   137A      2.252745   138A      2.278910
     139A      2.284327   140A      2.300099   141A      2.338888
     142A      2.410444   143A      2.412960   144A      2.422975
     145A      2.439394   146A      2.489152   147A      2.500531
     148A      2.527023   149A      2.568326   150A      2.611805
     151A      2.624484   152A      2.655085   153A      2.691473
     154A      2.703096   155A      2.728958   156A      2.742240
     157A      2.794872   158A      2.816630   159A      2.858286
     160A      2.885196   161A      2.896331   162A      2.920681
     163A      2.986821   164A      2.997028   165A      3.056214
     166A      3.134047   167A      3.183308   168A      3.189530
     169A      3.216650   170A      3.244521   171A      3.254307
     172A      3.531888   173A      3.658001   174A      3.710595
     175A      3.945799   176A      3.975755   177A      4.095927

    Final Occupation by Irrep:
              A
    DOCC [    33 ]

  @RHF Final Energy:  -401.00411997012043

   => Energetics <=

    Nuclear Repulsion Energy =            381.0051916689864697
    One-Electron Energy =               -1303.3324076757608054
    Two-Electron Energy =                 521.3230960366538511
    Total Energy =                       -401.0041199701204278

Computation Completed

Properties will be evaluated at   0.000000,   0.000000,   0.000000 [a0]

Properties computed using the SCF density matrix

  Nuclear Dipole Moment: [e a0]
     X:    -5.8037      Y:    -5.5926      Z:    14.5243

  Electronic Dipole Moment: [e a0]
     X:     5.3488      Y:     3.0006      Z:    -6.3021

  Dipole Moment: [e a0]
     X:    -0.4549      Y:    -2.5920      Z:     8.2222     Total:     8.6331

  Dipole Moment: [D]
     X:    -1.1562      Y:    -6.5881      Z:    20.8988     Total:    21.9431

*** tstop() called on ds3 at Tue Apr 28 09:26:50 2020
Module time:
	user time   =      42.17 seconds =       0.70 minutes
	system time =      19.54 seconds =       0.33 minutes
	total time  =        106 seconds =       1.77 minutes
Total time:
	user time   =      42.17 seconds =       0.70 minutes
	system time =      19.54 seconds =       0.33 minutes
	total time  =        106 seconds =       1.77 minutes
                                     G D M A

                                 by Anthony Stone

                           version 2.2.06, 22 June 2011

               Distributed Multipoles from Gaussian wavefunctions

Starting at 9:26:50 on 28 Apr 2020

Using SCF density matrix from file ./SSI/SSI-010GLU-014LYS-1-dimer.test.10465.fchk

                         Distributed Multipole Analysis

Standard DMA

Positions and radii in angstrom
Multipole moments in atomic units, ea_0^k for rank k

C          x = -0.641526  y =  0.982332  z = -0.435569 angstrom
           Maximum rank =  0   Radius =  0.650 angstrom
                   Q00  =  -0.164301

C          x = -1.979526  y =  1.616332  z = -0.825569 angstrom
           Maximum rank =  0   Radius =  0.650 angstrom
                   Q00  =  -0.217401

C          x =  0.337474  y =  0.806332  z = -1.595569 angstrom
           Maximum rank =  0   Radius =  0.650 angstrom
                   Q00  =   1.047431

O          x =  0.101474  y =  1.360332  z = -2.692569 angstrom
           Maximum rank =  0   Radius =  0.650 angstrom
                   Q00  =  -0.929332

O          x =  1.358474  y =  0.106332  z = -1.407569 angstrom
           Maximum rank =  0   Radius =  0.650 angstrom
                   Q00  =  -0.955549

H          x = -0.180526  y =  1.543332  z =  0.381431 angstrom
           Maximum rank =  0   Radius =  0.325 angstrom
                   Q00  =   0.025571

H          x = -0.901526  y = -0.003668  z = -0.126569 angstrom
           Maximum rank =  0   Radius =  0.325 angstrom
                   Q00  =  -0.002742

H          x = -1.802526  y =  2.531332  z = -1.391569 angstrom
           Maximum rank =  0   Radius =  0.325 angstrom
                   Q00  =   0.114494

H          x = -2.485526  y =  1.909332  z =  0.094431 angstrom
           Maximum rank =  0   Radius =  0.325 angstrom
                   Q00  =   0.012286

H          x = -2.654736  y =  0.953282  z = -1.386339 angstrom
           Maximum rank =  0   Radius =  0.325 angstrom
                   Q00  =   0.085115

C          x =  0.298474  y = -1.363668  z =  1.668431 angstrom
           Maximum rank =  0   Radius =  0.650 angstrom
                   Q00  =   0.019914

C          x = -0.171526  y = -2.780668  z =  1.960431 angstrom
           Maximum rank =  0   Radius =  0.650 angstrom
                   Q00  =  -0.241334

N          x =  0.626474  y = -0.611668  z =  2.904431 angstrom
           Maximum rank =  0   Radius =  0.650 angstrom
                   Q00  =  -0.119873

H          x =  1.127474  y = -1.364668  z =  0.952431 angstrom
           Maximum rank =  0   Radius =  0.325 angstrom
                   Q00  =   0.124723

H          x = -0.580526  y = -0.901668  z =  1.255431 angstrom
           Maximum rank =  0   Radius =  0.325 angstrom
                   Q00  =   0.139108

H          x = -1.092526  y = -2.726668  z =  2.545431 angstrom
           Maximum rank =  0   Radius =  0.325 angstrom
                   Q00  =   0.082243

H          x =  0.581474  y = -3.317668  z =  2.541431 angstrom
           Maximum rank =  0   Radius =  0.325 angstrom
                   Q00  =   0.082639

H          x =  1.414474  y = -1.030668  z =  3.384431 angstrom
           Maximum rank =  0   Radius =  0.325 angstrom
                   Q00  =   0.236178

H          x =  0.883474  y =  0.346332  z =  2.696431 angstrom
           Maximum rank =  0   Radius =  0.325 angstrom
                   Q00  =   0.264244

H          x = -0.150526  y = -0.589668  z =  3.554431 angstrom
           Maximum rank =  0   Radius =  0.325 angstrom
                   Q00  =   0.240782

H          x = -0.354796  y = -3.323988  z =  1.021701 angstrom
           Maximum rank =  0   Radius =  0.325 angstrom
                   Q00  =   0.155803

Total multipoles referred to origin at
           x =   0.000000,  y =    0.000000,  z =    0.000000 angstrom
                   Q00  =  -0.000000

Finished at 9:26:50 on 28 Apr 2020

  DMA results are available in the Python driver through the
	  variable('DMA DISTRIBUTED MULTIPOLES')
  and
	  variable('DMA TOTAL MULTIPOLES')
  commands.

    Psi4 stopped on: Tuesday, 28 April 2020 09:26AM
    Psi4 wall time for execution: 0:01:45.97

*** Psi4 exiting successfully. Buy a developer a beer!
