                               Psi4 1.3.2 release

  ==> Input File <==

--------------------------------------------------------------------------
import numpy as np
set {scf_type pk
basis cc-pvdz
d_convergence 10
gdma_switch   0
gdma_limit    0
gdma_origin   [ 0.0,  0.0,  0.0 ]
}
molecule test {
    units Angstrom
    -1 1
    --
    -1 1
    C                1.920314312145870     1.732585485345213     0.907763452359619
    C                0.809314312145870     1.283585485345214     1.846763452359619
    O                0.200314312145870     0.217585485345214     1.598763452359619
    O                0.539314312145870     2.003585485345214     2.834763452359619
    H                2.862314312145870     1.833585485345213     1.450763452359619
    H                1.653314312145870     2.716585485345213     0.513763452359619
    H                2.062371612145870     1.040326485345214     0.064793452359619
    C               -1.260685687854130    -2.244414514654786    -2.812236547640381
    C               -0.848685687854130    -1.228414514654786    -1.792236547640381
    O               -0.562685687854130    -0.071414514654786    -2.093236547640381
    N               -0.800685687854130    -1.665414514654787    -0.562236547640381
    H               -0.493685687854130    -1.012414514654786     0.159763452359619
    H               -1.037685687854130    -2.618414514654786    -0.334236547640381
    H               -2.228685687854130    -2.661414514654786    -2.530236547640381
    H               -0.536685687854130    -3.052414514654786    -2.819236547640381
    H               -1.349759687854130    -1.786832514654787    -3.808576547640381

}
e, wfn = energy('scf', return_wfn=True)
gdma(wfn)
dmavals = variable('DMA DISTRIBUTED MULTIPOLES')
charges = np.array(dmavals)
print(charges)
np.save('SSI-075GLU-079GLN-1-dimer.npy', np.array(charges))--------------------------------------------------------------------------

*** tstart() called on ds3
*** at Mon Apr 27 19:09:37 2020

   => Loading Basis Set <=

    Name: CC-PVDZ
    Role: ORBITAL
    Keyword: BASIS
    atoms 1-2, 8-9   entry C          line   138 file /theoryfs2/ds/metcalf/miniconda2/envs/tf2gpu/share/psi4/basis/cc-pvdz.gbs
    atoms 3-4, 10    entry O          line   198 file /theoryfs2/ds/metcalf/miniconda2/envs/tf2gpu/share/psi4/basis/cc-pvdz.gbs
    atoms 5-7, 12-16 entry H          line    22 file /theoryfs2/ds/metcalf/miniconda2/envs/tf2gpu/share/psi4/basis/cc-pvdz.gbs
    atoms 11         entry N          line   168 file /theoryfs2/ds/metcalf/miniconda2/envs/tf2gpu/share/psi4/basis/cc-pvdz.gbs

         ---------------------------------------------------------
                                   SCF
               by Justin Turney, Rob Parrish, Andy Simmonett
                          and Daniel G. A. Smith
                              RHF Reference
                        1 Threads,    500 MiB Core
         ---------------------------------------------------------

  ==> Geometry <==

    Molecular point group: c1
    Full point group: C1

    Geometry (in Angstrom), charge = -1, multiplicity = 1:

       Center              X                  Y                   Z               Mass
    ------------   -----------------  -----------------  -----------------  -----------------
         C            1.920314312146     1.732585485345     0.907763452360    12.000000000000
         C            0.809314312146     1.283585485345     1.846763452360    12.000000000000
         O            0.200314312146     0.217585485345     1.598763452360    15.994914619570
         O            0.539314312146     2.003585485345     2.834763452360    15.994914619570
         H            2.862314312146     1.833585485345     1.450763452360     1.007825032230
         H            1.653314312146     2.716585485345     0.513763452360     1.007825032230
         H            2.062371612146     1.040326485345     0.064793452360     1.007825032230
         C           -1.260685687854    -2.244414514655    -2.812236547640    12.000000000000
         C           -0.848685687854    -1.228414514655    -1.792236547640    12.000000000000
         O           -0.562685687854    -0.071414514655    -2.093236547640    15.994914619570
         N           -0.800685687854    -1.665414514655    -0.562236547640    14.003074004430
         H           -0.493685687854    -1.012414514655     0.159763452360     1.007825032230
         H           -1.037685687854    -2.618414514655    -0.334236547640     1.007825032230
         H           -2.228685687854    -2.661414514655    -2.530236547640     1.007825032230
         H           -0.536685687854    -3.052414514655    -2.819236547640     1.007825032230
         H           -1.349759687854    -1.786832514655    -3.808576547640     1.007825032230

  Running in c1 symmetry.

  Rotational constants: A =      0.16440  B =      0.02164  C =      0.02007 [cm^-1]
  Rotational constants: A =   4928.53199  B =    648.88105  C =    601.82058 [MHz]
  Nuclear repulsion =  346.591851694488582

  Charge       = -1
  Multiplicity = 1
  Electrons    = 64
  Nalpha       = 32
  Nbeta        = 32

  ==> Algorithm <==

  SCF Algorithm Type is PK.
  DIIS enabled.
  MOM disabled.
  Fractional occupation disabled.
  Guess Type is SAD.
  Energy threshold   = 1.00e-06
  Density threshold  = 1.00e-10
  Integral threshold = 0.00e+00

  ==> Primary Basis <==

  Basis Set: CC-PVDZ
    Blend: CC-PVDZ
    Number of shells: 72
    Number of basis function: 152
    Number of Cartesian functions: 160
    Spherical Harmonics?: true
    Max angular momentum: 2

  ==> Pre-Iterations <==

   -------------------------------------------------------
    Irrep   Nso     Nmo     Nalpha   Nbeta   Ndocc  Nsocc
   -------------------------------------------------------
     A        152     152       0       0       0       0
   -------------------------------------------------------
    Total     152     152      32      32      32       0
   -------------------------------------------------------

  ==> Integral Setup <==

  Using integral reordering PK algorithm.
  Sizing the integral batches needed.
  Building batch lookup table.
   Calculation information:
      Number of atoms:                  16
      Number of AO shells:              72
      Number of primitives:            216
      Number of atomic orbitals:       160
      Number of basis functions:       152

      Integral cutoff                 1.00e-12
      Number of threads:                 1

	Batch   1 pq = [       0,    9405] index = [             0,44231715] size =     44231715
	Batch   2 pq = [    9405,   11628] index = [      44231715,67611006] size =     23379291
  Task number: 7
  Buffer size: 11059200
  Buffer per thread: 2
  We computed 2513159 shell quartets total.
  Whereas there are 3454506 unique shell quartets.

  ==> DiskJK: Disk-Based J/K Matrices <==

    J tasked:                  Yes
    K tasked:                  Yes
    wK tasked:                  No
    Memory [MiB]:              375
    Schwarz Cutoff:          1E-12

    OpenMP threads:              1

  Minimum eigenvalue in the overlap matrix is 4.4483667306E-03.
  Using Symmetric Orthogonalization.

  SCF Guess: Superposition of Atomic Densities via on-the-fly atomic UHF.

  ==> Iterations <==

                        Total Energy        Delta E     RMS |[F,P]|

   @RHF iter SAD:  -433.52159910257069   -4.33522e+02   0.00000e+00
   @RHF iter   1:  -434.92742183170373   -1.40582e+00   5.45039e-03 DIIS
   @RHF iter   2:  -435.16303858190554   -2.35617e-01   3.21652e-03 DIIS
   @RHF iter   3:  -435.24639246228276   -8.33539e-02   4.94270e-04 DIIS
   @RHF iter   4:  -435.24980000131620   -3.40754e-03   1.93937e-04 DIIS
   @RHF iter   5:  -435.25039473689867   -5.94736e-04   4.13307e-05 DIIS
   @RHF iter   6:  -435.25042645329302   -3.17164e-05   2.06261e-05 DIIS
   @RHF iter   7:  -435.25043388893044   -7.43564e-06   5.92916e-06 DIIS
   @RHF iter   8:  -435.25043512404085   -1.23511e-06   2.45507e-06 DIIS
   @RHF iter   9:  -435.25043531388030   -1.89839e-07   9.02436e-07 DIIS
   @RHF iter  10:  -435.25043533689040   -2.30101e-08   2.05490e-07 DIIS
   @RHF iter  11:  -435.25043533805575   -1.16535e-09   4.26423e-08 DIIS
   @RHF iter  12:  -435.25043533810071   -4.49631e-11   1.72578e-08 DIIS
   @RHF iter  13:  -435.25043533810617   -5.45697e-12   6.25316e-09 DIIS
   @RHF iter  14:  -435.25043533810606    1.13687e-13   2.13972e-09 DIIS
   @RHF iter  15:  -435.25043533810532    7.38964e-13   5.20221e-10 DIIS
   @RHF iter  16:  -435.25043533810549   -1.70530e-13   1.71182e-10 DIIS
   @RHF iter  17:  -435.25043533810594   -4.54747e-13   7.05186e-11 DIIS
  Energy and wave function converged.

  ==> Post-Iterations <==

    Orbital Energies [Eh]
    ---------------------

    Doubly Occupied:

       1A    -20.376492     2A    -20.270572     3A    -20.259531
       4A    -15.443403     5A    -11.219728     6A    -11.138897
       7A    -11.122074     8A    -11.047545     9A     -1.241970
      10A     -1.153965    11A     -1.086392    12A     -1.040483
      13A     -0.896333    14A     -0.793746    15A     -0.669905
      16A     -0.593724    17A     -0.536718    18A     -0.509083
      19A     -0.504011    20A     -0.453004    21A     -0.446546
      22A     -0.408789    23A     -0.406942    24A     -0.405732
      25A     -0.402888    26A     -0.344219    27A     -0.307408
      28A     -0.286355    29A     -0.269526    30A     -0.189943
      31A     -0.176703    32A     -0.168027

    Virtual:

      33A      0.271535    34A      0.308494    35A      0.331799
      36A      0.346445    37A      0.359548    38A      0.385705
      39A      0.398218    40A      0.422783    41A      0.472607
      42A      0.483594    43A      0.516971    44A      0.574026
      45A      0.590579    46A      0.667494    47A      0.695685
      48A      0.735830    49A      0.744447    50A      0.755185
      51A      0.817676    52A      0.829473    53A      0.856292
      54A      0.859861    55A      0.875496    56A      0.886636
      57A      0.946305    58A      0.948814    59A      0.955329
      60A      0.969435    61A      0.999208    62A      1.026751
      63A      1.035786    64A      1.039337    65A      1.051713
      66A      1.073723    67A      1.083704    68A      1.135951
      69A      1.140100    70A      1.150482    71A      1.217926
      72A      1.238259    73A      1.249148    74A      1.265682
      75A      1.345674    76A      1.348269    77A      1.439868
      78A      1.461840    79A      1.468749    80A      1.494289
      81A      1.515730    82A      1.531513    83A      1.541153
      84A      1.570805    85A      1.598487    86A      1.603293
      87A      1.628227    88A      1.647341    89A      1.688924
      90A      1.715285    91A      1.728550    92A      1.755398
      93A      1.779028    94A      1.843576    95A      1.847064
      96A      1.856988    97A      1.937134    98A      1.982135
      99A      1.994839   100A      2.022525   101A      2.041502
     102A      2.070556   103A      2.084317   104A      2.092357
     105A      2.101977   106A      2.104933   107A      2.127711
     108A      2.212129   109A      2.213732   110A      2.261388
     111A      2.275795   112A      2.294343   113A      2.312873
     114A      2.358771   115A      2.383599   116A      2.410073
     117A      2.430092   118A      2.549546   119A      2.562190
     120A      2.613573   121A      2.631507   122A      2.646448
     123A      2.708507   124A      2.717839   125A      2.731737
     126A      2.751699   127A      2.777530   128A      2.839943
     129A      2.847249   130A      2.902174   131A      2.921621
     132A      2.962903   133A      2.991435   134A      3.023007
     135A      3.153704   136A      3.219695   137A      3.238340
     138A      3.268683   139A      3.271009   140A      3.288224
     141A      3.354593   142A      3.437763   143A      3.626019
     144A      3.644081   145A      3.687211   146A      3.781936
     147A      3.817095   148A      3.993551   149A      4.049367
     150A      4.057982   151A      4.107514   152A      4.185819

    Final Occupation by Irrep:
              A
    DOCC [    32 ]

  @RHF Final Energy:  -435.25043533810594

   => Energetics <=

    Nuclear Repulsion Energy =            346.5918516944885823
    One-Electron Energy =               -1295.3432655852018343
    Two-Electron Energy =                 513.5009785526073074
    Total Energy =                       -435.2504353381059445

Computation Completed

Properties will be evaluated at   0.000000,   0.000000,   0.000000 [a0]

Properties computed using the SCF density matrix

  Nuclear Dipole Moment: [e a0]
     X:     0.8764      Y:    -5.1793      Z:    -6.8337

  Electronic Dipole Moment: [e a0]
     X:    -1.4698      Y:     2.0672      Z:     3.7879

  Dipole Moment: [e a0]
     X:    -0.5934      Y:    -3.1122      Z:    -3.0458     Total:     4.3948

  Dipole Moment: [D]
     X:    -1.5083      Y:    -7.9104      Z:    -7.7416     Total:    11.1706

*** tstop() called on ds3 at Mon Apr 27 19:10:06 2020
Module time:
	user time   =      19.48 seconds =       0.32 minutes
	system time =       9.78 seconds =       0.16 minutes
	total time  =         29 seconds =       0.48 minutes
Total time:
	user time   =      19.48 seconds =       0.32 minutes
	system time =       9.78 seconds =       0.16 minutes
	total time  =         29 seconds =       0.48 minutes
                                     G D M A

                                 by Anthony Stone

                           version 2.2.06, 22 June 2011

               Distributed Multipoles from Gaussian wavefunctions

Starting at 19:10:6 on 27 Apr 2020

Using SCF density matrix from file ./SSI/SSI-075GLU-079GLN-1-dimer.test.3907.fchk

                         Distributed Multipole Analysis

Standard DMA

Positions and radii in angstrom
Multipole moments in atomic units, ea_0^k for rank k

C          x =  1.920314  y =  1.732585  z =  0.907763 angstrom
           Maximum rank =  0   Radius =  0.650 angstrom
                   Q00  =  -0.285339

C          x =  0.809314  y =  1.283585  z =  1.846763 angstrom
           Maximum rank =  0   Radius =  0.650 angstrom
                   Q00  =   0.961313

O          x =  0.200314  y =  0.217585  z =  1.598763 angstrom
           Maximum rank =  0   Radius =  0.650 angstrom
                   Q00  =  -0.945254

O          x =  0.539314  y =  2.003585  z =  2.834763 angstrom
           Maximum rank =  0   Radius =  0.650 angstrom
                   Q00  =  -0.918154

H          x =  2.862314  y =  1.833585  z =  1.450763 angstrom
           Maximum rank =  0   Radius =  0.325 angstrom
                   Q00  =   0.063750

H          x =  1.653314  y =  2.716585  z =  0.513763 angstrom
           Maximum rank =  0   Radius =  0.325 angstrom
                   Q00  =   0.078154

H          x =  2.062372  y =  1.040326  z =  0.064793 angstrom
           Maximum rank =  0   Radius =  0.325 angstrom
                   Q00  =   0.066275

C          x = -1.260686  y = -2.244415  z = -2.812237 angstrom
           Maximum rank =  0   Radius =  0.650 angstrom
                   Q00  =  -0.263291

C          x = -0.848686  y = -1.228415  z = -1.792237 angstrom
           Maximum rank =  0   Radius =  0.650 angstrom
                   Q00  =   0.854545

O          x = -0.562686  y = -0.071415  z = -2.093237 angstrom
           Maximum rank =  0   Radius =  0.650 angstrom
                   Q00  =  -0.814544

N          x = -0.800686  y = -1.665415  z = -0.562237 angstrom
           Maximum rank =  0   Radius =  0.650 angstrom
                   Q00  =  -0.556725

H          x = -0.493686  y = -1.012415  z =  0.159763 angstrom
           Maximum rank =  0   Radius =  0.325 angstrom
                   Q00  =   0.298779

H          x = -1.037686  y = -2.618415  z = -0.334237 angstrom
           Maximum rank =  0   Radius =  0.325 angstrom
                   Q00  =   0.173976

H          x = -2.228686  y = -2.661415  z = -2.530237 angstrom
           Maximum rank =  0   Radius =  0.325 angstrom
                   Q00  =   0.085456

H          x = -0.536686  y = -3.052415  z = -2.819237 angstrom
           Maximum rank =  0   Radius =  0.325 angstrom
                   Q00  =   0.094809

H          x = -1.349760  y = -1.786833  z = -3.808577 angstrom
           Maximum rank =  0   Radius =  0.325 angstrom
                   Q00  =   0.106249

Total multipoles referred to origin at
           x =   0.000000,  y =    0.000000,  z =    0.000000 angstrom
                   Q00  =  -1.000000

Finished at 19:10:6 on 27 Apr 2020

  DMA results are available in the Python driver through the
	  variable('DMA DISTRIBUTED MULTIPOLES')
  and
	  variable('DMA TOTAL MULTIPOLES')
  commands.

    Psi4 stopped on: Monday, 27 April 2020 07:10PM
    Psi4 wall time for execution: 0:00:28.95

*** Psi4 exiting successfully. Buy a developer a beer!
