                               Psi4 1.3.2 release

  ==> Input File <==

--------------------------------------------------------------------------
import numpy as np
set {scf_type pk
basis cc-pvdz
d_convergence 10
gdma_switch   0
gdma_limit    0
gdma_origin   [ 0.0,  0.0,  0.0 ]
}
molecule test {
    units Angstrom
    0 1
    --
    0 1
    C               -2.252862889059636    -2.550282981957742     0.142475813845103
    C               -3.558862889059637    -3.332282981957742     0.084475813845103
    H               -2.202862889059637    -1.818282981957742    -0.662524186154897
    H               -2.199862889059637    -2.018282981957742     1.091475813845104
    H               -1.406862889059636    -3.230282981957742     0.076475813845103
    H               -4.350862889059637    -2.592282981957742     0.119475813845103
    H               -3.641938589059636    -3.934582981957742    -0.832222186154897
    H               -3.662255589059637    -3.982282981957742     0.965843813845103
    C                2.633137110940364    -0.098282981957742    -1.479524186154897
    C               -0.192862889059636     0.375717018042258     1.040475813845103
    C               -0.321862889059636     1.764717018042258     1.057475813845103
    C                0.758137110940364    -0.228282981957742     0.213475813845103
    C                1.591137110940364     0.547717018042258    -0.596524186154897
    C                0.499137110940364     2.546717018042258     0.248475813845103
    C                1.454137110940364     1.937717018042258    -0.570524186154897
    H               -0.827862889059636    -0.231282981957742     1.670475813845103
    H               -1.051862889059636     2.235717018042258     1.701475813845103
    H                0.828137110940364    -1.301282981957743     0.170475813845103
    H                0.403137110940364     3.624717018042257     0.258475813845103
    H                2.953137110940363    -1.038282981957742    -1.028524186154897
    H                3.512137110940363     0.546717018042258    -1.507524186154897
    H                2.095137110940364     2.555717018042258    -1.183524186154897
    H                2.298641110940363    -0.287692981957742    -2.510173186154897

}
e, wfn = energy('scf', return_wfn=True)
gdma(wfn)
dmavals = variable('DMA DISTRIBUTED MULTIPOLES')
charges = np.array(dmavals)
print(charges)
np.save('SSI-043LEU-050PHE-1-dimer.npy', np.array(charges))--------------------------------------------------------------------------

*** tstart() called on ds3
*** at Tue Apr 28 12:01:53 2020

   => Loading Basis Set <=

    Name: CC-PVDZ
    Role: ORBITAL
    Keyword: BASIS
    atoms 1-2, 9-15  entry C          line   138 file /theoryfs2/ds/metcalf/miniconda2/envs/tf2gpu/share/psi4/basis/cc-pvdz.gbs
    atoms 3-8, 16-23 entry H          line    22 file /theoryfs2/ds/metcalf/miniconda2/envs/tf2gpu/share/psi4/basis/cc-pvdz.gbs

         ---------------------------------------------------------
                                   SCF
               by Justin Turney, Rob Parrish, Andy Simmonett
                          and Daniel G. A. Smith
                              RHF Reference
                        1 Threads,    500 MiB Core
         ---------------------------------------------------------

  ==> Geometry <==

    Molecular point group: c1
    Full point group: C1

    Geometry (in Angstrom), charge = 0, multiplicity = 1:

       Center              X                  Y                   Z               Mass
    ------------   -----------------  -----------------  -----------------  -----------------
         C           -2.252862889060    -2.550282981958     0.142475813845    12.000000000000
         C           -3.558862889060    -3.332282981958     0.084475813845    12.000000000000
         H           -2.202862889060    -1.818282981958    -0.662524186155     1.007825032230
         H           -2.199862889060    -2.018282981958     1.091475813845     1.007825032230
         H           -1.406862889060    -3.230282981958     0.076475813845     1.007825032230
         H           -4.350862889060    -2.592282981958     0.119475813845     1.007825032230
         H           -3.641938589060    -3.934582981958    -0.832222186155     1.007825032230
         H           -3.662255589060    -3.982282981958     0.965843813845     1.007825032230
         C            2.633137110940    -0.098282981958    -1.479524186155    12.000000000000
         C           -0.192862889060     0.375717018042     1.040475813845    12.000000000000
         C           -0.321862889060     1.764717018042     1.057475813845    12.000000000000
         C            0.758137110940    -0.228282981958     0.213475813845    12.000000000000
         C            1.591137110940     0.547717018042    -0.596524186155    12.000000000000
         C            0.499137110940     2.546717018042     0.248475813845    12.000000000000
         C            1.454137110940     1.937717018042    -0.570524186155    12.000000000000
         H           -0.827862889060    -0.231282981958     1.670475813845     1.007825032230
         H           -1.051862889060     2.235717018042     1.701475813845     1.007825032230
         H            0.828137110940    -1.301282981958     0.170475813845     1.007825032230
         H            0.403137110940     3.624717018042     0.258475813845     1.007825032230
         H            2.953137110940    -1.038282981958    -1.028524186155     1.007825032230
         H            3.512137110940     0.546717018042    -1.507524186155     1.007825032230
         H            2.095137110940     2.555717018042    -1.183524186155     1.007825032230
         H            2.298641110940    -0.287692981958    -2.510173186155     1.007825032230

  Running in c1 symmetry.

  Rotational constants: A =      0.07593  B =      0.02100  C =      0.01730 [cm^-1]
  Rotational constants: A =   2276.24600  B =    629.54607  C =    518.76901 [MHz]
  Nuclear repulsion =  398.980920665666247

  Charge       = 0
  Multiplicity = 1
  Electrons    = 68
  Nalpha       = 34
  Nbeta        = 34

  ==> Algorithm <==

  SCF Algorithm Type is PK.
  DIIS enabled.
  MOM disabled.
  Fractional occupation disabled.
  Guess Type is SAD.
  Energy threshold   = 1.00e-06
  Density threshold  = 1.00e-10
  Integral threshold = 0.00e+00

  ==> Primary Basis <==

  Basis Set: CC-PVDZ
    Blend: CC-PVDZ
    Number of shells: 96
    Number of basis function: 196
    Number of Cartesian functions: 205
    Spherical Harmonics?: true
    Max angular momentum: 2

  ==> Pre-Iterations <==

   -------------------------------------------------------
    Irrep   Nso     Nmo     Nalpha   Nbeta   Ndocc  Nsocc
   -------------------------------------------------------
     A        196     196       0       0       0       0
   -------------------------------------------------------
    Total     196     196      34      34      34       0
   -------------------------------------------------------

  ==> Integral Setup <==

  Using integral reordering PK algorithm.
  Sizing the integral batches needed.
  Building batch lookup table.
   Calculation information:
      Number of atoms:                  23
      Number of AO shells:              96
      Number of primitives:            268
      Number of atomic orbitals:       205
      Number of basis functions:       196

      Integral cutoff                 1.00e-12
      Number of threads:                 1

	Batch   1 pq = [       0,    9405] index = [             0,44231715] size =     44231715
	Batch   2 pq = [    9405,   13301] index = [      44231715,88464951] size =     44233236
	Batch   3 pq = [   13301,   16290] index = [      88464951,132690195] size =     44225244
	Batch   4 pq = [   16290,   18810] index = [     132690195,176917455] size =     44227260
	Batch   5 pq = [   18810,   19306] index = [     176917455,186370471] size =      9453016
  Task number: 17
  Buffer size: 11059200
  Buffer per thread: 2
  We computed 8524503 shell quartets total.
  Whereas there are 10841496 unique shell quartets.

  ==> DiskJK: Disk-Based J/K Matrices <==

    J tasked:                  Yes
    K tasked:                  Yes
    wK tasked:                  No
    Memory [MiB]:              375
    Schwarz Cutoff:          1E-12

    OpenMP threads:              1

  Minimum eigenvalue in the overlap matrix is 3.1279611677E-04.
  Using Symmetric Orthogonalization.

  SCF Guess: Superposition of Atomic Densities via on-the-fly atomic UHF.

  ==> Iterations <==

                        Total Energy        Delta E     RMS |[F,P]|

   @RHF iter SAD:  -347.83316434002268   -3.47833e+02   0.00000e+00
   @RHF iter   1:  -348.76774755280752   -9.34583e-01   2.88788e-03 DIIS
   @RHF iter   2:  -348.95988790439708   -1.92140e-01   1.19362e-03 DIIS
   @RHF iter   3:  -348.98976477321992   -2.98769e-02   2.58161e-04 DIIS
   @RHF iter   4:  -348.99223686250843   -2.47209e-03   5.28007e-05 DIIS
   @RHF iter   5:  -348.99230968719036   -7.28247e-05   1.80942e-05 DIIS
   @RHF iter   6:  -348.99231763026609   -7.94308e-06   4.79692e-06 DIIS
   @RHF iter   7:  -348.99231827824804   -6.47982e-07   1.22305e-06 DIIS
   @RHF iter   8:  -348.99231832341326   -4.51652e-08   2.70666e-07 DIIS
   @RHF iter   9:  -348.99231832685876   -3.44551e-09   1.01963e-07 DIIS
   @RHF iter  10:  -348.99231832734057   -4.81805e-10   4.12924e-08 DIIS
   @RHF iter  11:  -348.99231832747819   -1.37618e-10   1.60695e-08 DIIS
   @RHF iter  12:  -348.99231832750377   -2.55795e-11   8.40021e-09 DIIS
   @RHF iter  13:  -348.99231832751150   -7.73070e-12   3.68352e-09 DIIS
   @RHF iter  14:  -348.99231832751008    1.42109e-12   1.02869e-09 DIIS
   @RHF iter  15:  -348.99231832751110   -1.02318e-12   3.72340e-10 DIIS
   @RHF iter  16:  -348.99231832751241   -1.30740e-12   8.74894e-11 DIIS
  Energy and wave function converged.

  ==> Post-Iterations <==

    Orbital Energies [Eh]
    ---------------------

    Doubly Occupied:

       1A    -11.240912     2A    -11.235581     3A    -11.235265
       4A    -11.231143     5A    -11.230523     6A    -11.230046
       7A    -11.229352     8A    -11.217922     9A    -11.215654
      10A     -1.149177    11A     -1.041881    12A     -1.020266
      13A     -1.008720    14A     -0.929910    15A     -0.836643
      16A     -0.823568    17A     -0.793611    18A     -0.689350
      19A     -0.630427    20A     -0.628221    21A     -0.601192
      22A     -0.597228    23A     -0.580779    24A     -0.575724
      25A     -0.561428    26A     -0.533333    27A     -0.502360
      28A     -0.488930    29A     -0.484888    30A     -0.483518
      31A     -0.481076    32A     -0.479193    33A     -0.329668
      34A     -0.321190

    Virtual:

      35A      0.136243    36A      0.140401    37A      0.176199
      38A      0.192520    39A      0.203558    40A      0.213945
      41A      0.233867    42A      0.244225    43A      0.253875
      44A      0.260603    45A      0.265075    46A      0.276151
      47A      0.282173    48A      0.285710    49A      0.311054
      50A      0.350723    51A      0.367333    52A      0.369568
      53A      0.403152    54A      0.460778    55A      0.463629
      56A      0.481247    57A      0.492280    58A      0.558223
      59A      0.585538    60A      0.598077    61A      0.603888
      62A      0.627278    63A      0.645208    64A      0.664416
      65A      0.682316    66A      0.691184    67A      0.697040
      68A      0.707197    69A      0.717698    70A      0.740977
      71A      0.745359    72A      0.747844    73A      0.758866
      74A      0.771497    75A      0.782693    76A      0.788135
      77A      0.836364    78A      0.844132    79A      0.864402
      80A      0.873304    81A      0.878470    82A      0.889385
      83A      0.892063    84A      0.895468    85A      0.899875
      86A      0.914892    87A      0.918488    88A      0.924384
      89A      0.927956    90A      0.934489    91A      0.943438
      92A      0.966369    93A      0.984252    94A      1.001791
      95A      1.023176    96A      1.052902    97A      1.113845
      98A      1.123841    99A      1.131373   100A      1.150150
     101A      1.154581   102A      1.159122   103A      1.188105
     104A      1.224222   105A      1.241850   106A      1.246280
     107A      1.260907   108A      1.268995   109A      1.301070
     110A      1.308412   111A      1.319882   112A      1.327982
     113A      1.415961   114A      1.470685   115A      1.483745
     116A      1.510792   117A      1.520552   118A      1.556114
     119A      1.590548   120A      1.604201   121A      1.680582
     122A      1.681360   123A      1.694735   124A      1.703236
     125A      1.733455   126A      1.748841   127A      1.759195
     128A      1.790009   129A      1.806781   130A      1.852554
     131A      1.861671   132A      1.873636   133A      1.887013
     134A      1.895394   135A      1.901503   136A      1.908744
     137A      1.918883   138A      1.927575   139A      1.936916
     140A      1.940804   141A      1.948125   142A      1.950385
     143A      1.955165   144A      1.973086   145A      1.982041
     146A      1.990267   147A      1.993228   148A      2.021669
     149A      2.050246   150A      2.061910   151A      2.067463
     152A      2.090165   153A      2.108126   154A      2.128045
     155A      2.146527   156A      2.152832   157A      2.163897
     158A      2.173409   159A      2.184396   160A      2.256662
     161A      2.280070   162A      2.290995   163A      2.295410
     164A      2.303712   165A      2.314337   166A      2.322086
     167A      2.353484   168A      2.454484   169A      2.466620
     170A      2.471798   171A      2.481642   172A      2.491859
     173A      2.541294   174A      2.556250   175A      2.586660
     176A      2.618998   177A      2.740392   178A      2.749188
     179A      2.764752   180A      2.766800   181A      2.783078
     182A      2.792632   183A      2.817880   184A      2.851238
     185A      2.852894   186A      2.863236   187A      2.868827
     188A      2.954783   189A      2.956937   190A      2.979034
     191A      3.005592   192A      3.021280   193A      3.150659
     194A      3.193324   195A      3.292968   196A      3.954370

    Final Occupation by Irrep:
              A
    DOCC [    34 ]

  @RHF Final Energy:  -348.99231832751241

   => Energetics <=

    Nuclear Repulsion Energy =            398.9809206656662468
    One-Electron Energy =               -1260.6691201901689965
    Two-Electron Energy =                 512.6958811969903991
    Total Energy =                       -348.9923183275124074

Computation Completed

Properties will be evaluated at   0.000000,   0.000000,   0.000000 [a0]

Properties computed using the SCF density matrix

  Nuclear Dipole Moment: [e a0]
     X:    -6.8004      Y:   -10.7543      Z:    -1.5659

  Electronic Dipole Moment: [e a0]
     X:     6.8771      Y:    10.7191      Z:     1.4834

  Dipole Moment: [e a0]
     X:     0.0766      Y:    -0.0352      Z:    -0.0825     Total:     0.1179

  Dipole Moment: [D]
     X:     0.1948      Y:    -0.0895      Z:    -0.2096     Total:     0.2998

*** tstop() called on ds3 at Tue Apr 28 12:03:30 2020
Module time:
	user time   =      64.24 seconds =       1.07 minutes
	system time =      27.58 seconds =       0.46 minutes
	total time  =         97 seconds =       1.62 minutes
Total time:
	user time   =      64.24 seconds =       1.07 minutes
	system time =      27.58 seconds =       0.46 minutes
	total time  =         97 seconds =       1.62 minutes
                                     G D M A

                                 by Anthony Stone

                           version 2.2.06, 22 June 2011

               Distributed Multipoles from Gaussian wavefunctions

Starting at 12:3:30 on 28 Apr 2020

Using SCF density matrix from file ./SSI/SSI-043LEU-050PHE-1-dimer.test.30062.fchk

                         Distributed Multipole Analysis

Standard DMA

Positions and radii in angstrom
Multipole moments in atomic units, ea_0^k for rank k

C          x = -2.252863  y = -2.550283  z =  0.142476 angstrom
           Maximum rank =  0   Radius =  0.650 angstrom
                   Q00  =  -0.237951

C          x = -3.558863  y = -3.332283  z =  0.084476 angstrom
           Maximum rank =  0   Radius =  0.650 angstrom
                   Q00  =  -0.231411

H          x = -2.202863  y = -1.818283  z = -0.662524 angstrom
           Maximum rank =  0   Radius =  0.325 angstrom
                   Q00  =   0.086163

H          x = -2.199863  y = -2.018283  z =  1.091476 angstrom
           Maximum rank =  0   Radius =  0.325 angstrom
                   Q00  =   0.072895

H          x = -1.406863  y = -3.230283  z =  0.076476 angstrom
           Maximum rank =  0   Radius =  0.325 angstrom
                   Q00  =   0.075041

H          x = -4.350863  y = -2.592283  z =  0.119476 angstrom
           Maximum rank =  0   Radius =  0.325 angstrom
                   Q00  =   0.077363

H          x = -3.641939  y = -3.934583  z = -0.832222 angstrom
           Maximum rank =  0   Radius =  0.325 angstrom
                   Q00  =   0.081252

H          x = -3.662256  y = -3.982283  z =  0.965844 angstrom
           Maximum rank =  0   Radius =  0.325 angstrom
                   Q00  =   0.077504

C          x =  2.633137  y = -0.098283  z = -1.479524 angstrom
           Maximum rank =  0   Radius =  0.650 angstrom
                   Q00  =  -0.201474

C          x = -0.192863  y =  0.375717  z =  1.040476 angstrom
           Maximum rank =  0   Radius =  0.650 angstrom
                   Q00  =  -0.076693

C          x = -0.321863  y =  1.764717  z =  1.057476 angstrom
           Maximum rank =  0   Radius =  0.650 angstrom
                   Q00  =  -0.087509

C          x =  0.758137  y = -0.228283  z =  0.213476 angstrom
           Maximum rank =  0   Radius =  0.650 angstrom
                   Q00  =  -0.053339

C          x =  1.591137  y =  0.547717  z = -0.596524 angstrom
           Maximum rank =  0   Radius =  0.650 angstrom
                   Q00  =  -0.105414

C          x =  0.499137  y =  2.546717  z =  0.248476 angstrom
           Maximum rank =  0   Radius =  0.650 angstrom
                   Q00  =  -0.069829

C          x =  1.454137  y =  1.937717  z = -0.570524 angstrom
           Maximum rank =  0   Radius =  0.650 angstrom
                   Q00  =  -0.015967

H          x = -0.827863  y = -0.231283  z =  1.670476 angstrom
           Maximum rank =  0   Radius =  0.325 angstrom
                   Q00  =   0.064793

H          x = -1.051863  y =  2.235717  z =  1.701476 angstrom
           Maximum rank =  0   Radius =  0.325 angstrom
                   Q00  =   0.061055

H          x =  0.828137  y = -1.301283  z =  0.170476 angstrom
           Maximum rank =  0   Radius =  0.325 angstrom
                   Q00  =   0.059261

H          x =  0.403137  y =  3.624717  z =  0.258476 angstrom
           Maximum rank =  0   Radius =  0.325 angstrom
                   Q00  =   0.065333

H          x =  2.953137  y = -1.038283  z = -1.028524 angstrom
           Maximum rank =  0   Radius =  0.325 angstrom
                   Q00  =   0.098238

H          x =  3.512137  y =  0.546717  z = -1.507524 angstrom
           Maximum rank =  0   Radius =  0.325 angstrom
                   Q00  =   0.098084

H          x =  2.095137  y =  2.555717  z = -1.183524 angstrom
           Maximum rank =  0   Radius =  0.325 angstrom
                   Q00  =   0.056806

H          x =  2.298641  y = -0.287693  z = -2.510173 angstrom
           Maximum rank =  0   Radius =  0.325 angstrom
                   Q00  =   0.105799

Total multipoles referred to origin at
           x =   0.000000,  y =    0.000000,  z =    0.000000 angstrom
                   Q00  =  -0.000000

Finished at 12:3:30 on 28 Apr 2020

  DMA results are available in the Python driver through the
	  variable('DMA DISTRIBUTED MULTIPOLES')
  and
	  variable('DMA TOTAL MULTIPOLES')
  commands.

    Psi4 stopped on: Tuesday, 28 April 2020 12:03PM
    Psi4 wall time for execution: 0:01:37.65

*** Psi4 exiting successfully. Buy a developer a beer!
