                               Psi4 1.3.2 release

  ==> Input File <==

--------------------------------------------------------------------------
import numpy as np
set {scf_type pk
basis cc-pvdz
d_convergence 10
gdma_switch   0
gdma_limit    0
gdma_origin   [ 0.0,  0.0,  0.0 ]
}
molecule test {
    units Angstrom
    0 1
    --
    0 1
    C               -0.194251014401633     1.439574699714878     1.032529737567863
    C               -0.040251014401633     1.429574699714877     2.569529737567864
    H                0.643748985598367     0.913574699714878     0.575529737567863
    H               -1.119251014401633     0.939574699714878     0.757529737567863
    H               -0.242251014401633     2.459574699714878     0.653529737567863
    H               -0.783251014401633     2.122574699714878     2.967529737567863
    H                0.957938985598367     1.776954699714878     2.874389737567863
    H               -0.254941014401633     0.433974699714878     2.985089737567863
    C               -0.272251014401633    -0.868425300285122    -1.543470262432137
    C                0.509748985598367    -2.005425300285123    -2.057470262432137
    H               -0.514251014401633    -1.020425300285122    -0.492470262432137
    H                0.310748985598367     0.048574699714878    -1.641470262432137
    H               -1.196251014401633    -0.760425300285122    -2.110470262432137
    H                1.016748985598367    -1.695425300285122    -2.971470262432137
    H               -0.134991014401633    -2.867605300285123    -2.283210262432137
    H                1.280328985598367    -2.294945300285122    -1.327830262432137

}
e, wfn = energy('scf', return_wfn=True)
gdma(wfn)
dmavals = variable('DMA DISTRIBUTED MULTIPOLES')
charges = np.array(dmavals)
print(charges)
np.save('SSI-066VAL-085ALA-1-dimer.npy', np.array(charges))--------------------------------------------------------------------------

*** tstart() called on ds3
*** at Tue Apr 28 11:08:04 2020

   => Loading Basis Set <=

    Name: CC-PVDZ
    Role: ORBITAL
    Keyword: BASIS
    atoms 1-2, 9-10  entry C          line   138 file /theoryfs2/ds/metcalf/miniconda2/envs/tf2gpu/share/psi4/basis/cc-pvdz.gbs
    atoms 3-8, 11-16 entry H          line    22 file /theoryfs2/ds/metcalf/miniconda2/envs/tf2gpu/share/psi4/basis/cc-pvdz.gbs

         ---------------------------------------------------------
                                   SCF
               by Justin Turney, Rob Parrish, Andy Simmonett
                          and Daniel G. A. Smith
                              RHF Reference
                        1 Threads,    500 MiB Core
         ---------------------------------------------------------

  ==> Geometry <==

    Molecular point group: c1
    Full point group: C1

    Geometry (in Angstrom), charge = 0, multiplicity = 1:

       Center              X                  Y                   Z               Mass
    ------------   -----------------  -----------------  -----------------  -----------------
         C           -0.194251014402     1.439574699715     1.032529737568    12.000000000000
         C           -0.040251014402     1.429574699715     2.569529737568    12.000000000000
         H            0.643748985598     0.913574699715     0.575529737568     1.007825032230
         H           -1.119251014402     0.939574699715     0.757529737568     1.007825032230
         H           -0.242251014402     2.459574699715     0.653529737568     1.007825032230
         H           -0.783251014402     2.122574699715     2.967529737568     1.007825032230
         H            0.957938985598     1.776954699715     2.874389737568     1.007825032230
         H           -0.254941014402     0.433974699715     2.985089737568     1.007825032230
         C           -0.272251014402    -0.868425300285    -1.543470262432    12.000000000000
         C            0.509748985598    -2.005425300285    -2.057470262432    12.000000000000
         H           -0.514251014402    -1.020425300285    -0.492470262432     1.007825032230
         H            0.310748985598     0.048574699715    -1.641470262432     1.007825032230
         H           -1.196251014402    -0.760425300285    -2.110470262432     1.007825032230
         H            1.016748985598    -1.695425300285    -2.971470262432     1.007825032230
         H           -0.134991014402    -2.867605300285    -2.283210262432     1.007825032230
         H            1.280328985598    -2.294945300285    -1.327830262432     1.007825032230

  Running in c1 symmetry.

  Rotational constants: A =      0.61909  B =      0.04736  C =      0.04590 [cm^-1]
  Rotational constants: A =  18559.92876  B =   1419.87624  C =   1375.93971 [MHz]
  Nuclear repulsion =  123.165320691525935

  Charge       = 0
  Multiplicity = 1
  Electrons    = 36
  Nalpha       = 18
  Nbeta        = 18

  ==> Algorithm <==

  SCF Algorithm Type is PK.
  DIIS enabled.
  MOM disabled.
  Fractional occupation disabled.
  Guess Type is SAD.
  Energy threshold   = 1.00e-06
  Density threshold  = 1.00e-10
  Integral threshold = 0.00e+00

  ==> Primary Basis <==

  Basis Set: CC-PVDZ
    Blend: CC-PVDZ
    Number of shells: 60
    Number of basis function: 116
    Number of Cartesian functions: 120
    Spherical Harmonics?: true
    Max angular momentum: 2

  ==> Pre-Iterations <==

   -------------------------------------------------------
    Irrep   Nso     Nmo     Nalpha   Nbeta   Ndocc  Nsocc
   -------------------------------------------------------
     A        116     116       0       0       0       0
   -------------------------------------------------------
    Total     116     116      18      18      18       0
   -------------------------------------------------------

  ==> Integral Setup <==

  Using integral reordering PK algorithm.
  Sizing the integral batches needed.
  Building batch lookup table.
   Calculation information:
      Number of atoms:                  16
      Number of AO shells:              60
      Number of primitives:            148
      Number of atomic orbitals:       120
      Number of basis functions:       116

      Integral cutoff                 1.00e-12
      Number of threads:                 1

	Batch   1 pq = [       0,    6786] index = [             0,23028291] size =     23028291
  Task number: 3
  Buffer size: 11059200
  Buffer per thread: 2
  We computed 1423832 shell quartets total.
  Whereas there are 1675365 unique shell quartets.

  ==> DiskJK: Disk-Based J/K Matrices <==

    J tasked:                  Yes
    K tasked:                  Yes
    wK tasked:                  No
    Memory [MiB]:              375
    Schwarz Cutoff:          1E-12

    OpenMP threads:              1

  Minimum eigenvalue in the overlap matrix is 5.9933474671E-03.
  Using Symmetric Orthogonalization.

  SCF Guess: Superposition of Atomic Densities via on-the-fly atomic UHF.

  ==> Iterations <==

                        Total Energy        Delta E     RMS |[F,P]|

   @RHF iter SAD:  -157.44038642838839   -1.57440e+02   0.00000e+00
   @RHF iter   1:  -158.29692510699536   -8.56539e-01   4.28740e-03 DIIS
   @RHF iter   2:  -158.43413763803767   -1.37213e-01   1.83724e-03 DIIS
   @RHF iter   3:  -158.45852496478594   -2.43873e-02   3.55071e-04 DIIS
   @RHF iter   4:  -158.46040989176953   -1.88493e-03   4.06345e-05 DIIS
   @RHF iter   5:  -158.46043495892565   -2.50672e-05   8.79148e-06 DIIS
   @RHF iter   6:  -158.46043587154813   -9.12622e-07   2.15564e-06 DIIS
   @RHF iter   7:  -158.46043591564663   -4.40985e-08   3.06539e-07 DIIS
   @RHF iter   8:  -158.46043591679856   -1.15193e-09   4.74325e-08 DIIS
   @RHF iter   9:  -158.46043591682897   -3.04112e-11   1.50931e-08 DIIS
   @RHF iter  10:  -158.46043591683070   -1.73372e-12   2.88199e-09 DIIS
   @RHF iter  11:  -158.46043591683102   -3.12639e-13   6.11820e-10 DIIS
   @RHF iter  12:  -158.46043591683144   -4.26326e-13   1.29514e-10 DIIS
   @RHF iter  13:  -158.46043591683082    6.25278e-13   2.96881e-11 DIIS
  Energy and wave function converged.

  ==> Post-Iterations <==

    Orbital Energies [Eh]
    ---------------------

    Doubly Occupied:

       1A    -11.219735     2A    -11.215785     3A    -11.213584
       4A    -11.210181     5A     -1.032157     6A     -1.013417
       7A     -0.840279     8A     -0.827985     9A     -0.606482
      10A     -0.604882    11A     -0.595163    12A     -0.593228
      13A     -0.514746    14A     -0.496690    15A     -0.488837
      16A     -0.487184    17A     -0.475726    18A     -0.471670

    Virtual:

      19A      0.175927    20A      0.196432    21A      0.227344
      22A      0.233533    23A      0.244861    24A      0.253628
      25A      0.255334    26A      0.282220    27A      0.289776
      28A      0.292544    29A      0.308499    30A      0.323978
      31A      0.391025    32A      0.425595    33A      0.571109
      34A      0.596432    35A      0.603055    36A      0.606285
      37A      0.612696    38A      0.656459    39A      0.664161
      40A      0.684969    41A      0.703543    42A      0.813399
      43A      0.849552    44A      0.877129    45A      0.885660
      46A      0.891543    47A      0.893313    48A      0.902162
      49A      0.905512    50A      0.908918    51A      0.916035
      52A      0.918279    53A      0.945258    54A      0.950874
      55A      0.976339    56A      0.978902    57A      1.116137
      58A      1.120244    59A      1.128448    60A      1.192133
      61A      1.218892    62A      1.251789    63A      1.466843
      64A      1.477159    65A      1.494136    66A      1.515200
      67A      1.573762    68A      1.587894    69A      1.682383
      70A      1.685250    71A      1.697886    72A      1.707480
      73A      1.851357    74A      1.860321    75A      1.869784
      76A      1.886469    77A      1.898872    78A      1.923194
      79A      1.937348    80A      1.944167    81A      1.946213
      82A      1.948136    83A      1.956150    84A      1.959731
      85A      1.975720    86A      1.986862    87A      2.000072
      88A      2.021306    89A      2.103104    90A      2.141188
      91A      2.142268    92A      2.170216    93A      2.300488
      94A      2.311833    95A      2.319835    96A      2.332385
      97A      2.431770    98A      2.443573    99A      2.464078
     100A      2.484465   101A      2.560146   102A      2.587621
     103A      2.594339   104A      2.602235   105A      2.760481
     106A      2.763024   107A      2.788224   108A      2.791612
     109A      2.841692   110A      2.851645   111A      2.854695
     112A      2.863614   113A      2.933790   114A      2.958647
     115A      2.975431   116A      2.984307

    Final Occupation by Irrep:
              A
    DOCC [    18 ]

  @RHF Final Energy:  -158.46043591683082

   => Energetics <=

    Nuclear Repulsion Energy =            123.1653206915259346
    One-Electron Energy =                -455.4360510415189651
    Two-Electron Energy =                 173.8102944331621984
    Total Energy =                       -158.4604359168308179

Computation Completed

Properties will be evaluated at   0.000000,   0.000000,   0.000000 [a0]

Properties computed using the SCF density matrix

  Nuclear Dipole Moment: [e a0]
     X:    -0.0334      Y:     0.0525      Z:    -0.0125

  Electronic Dipole Moment: [e a0]
     X:     0.0174      Y:    -0.0345      Z:    -0.0012

  Dipole Moment: [e a0]
     X:    -0.0161      Y:     0.0180      Z:    -0.0137     Total:     0.0278

  Dipole Moment: [D]
     X:    -0.0409      Y:     0.0458      Z:    -0.0349     Total:     0.0706

*** tstop() called on ds3 at Tue Apr 28 11:08:14 2020
Module time:
	user time   =       7.13 seconds =       0.12 minutes
	system time =       2.83 seconds =       0.05 minutes
	total time  =         10 seconds =       0.17 minutes
Total time:
	user time   =       7.13 seconds =       0.12 minutes
	system time =       2.83 seconds =       0.05 minutes
	total time  =         10 seconds =       0.17 minutes
                                     G D M A

                                 by Anthony Stone

                           version 2.2.06, 22 June 2011

               Distributed Multipoles from Gaussian wavefunctions

Starting at 11:8:14 on 28 Apr 2020

Using SCF density matrix from file ./SSI/SSI-066VAL-085ALA-1-dimer.test.30099.fchk

                         Distributed Multipole Analysis

Standard DMA

Positions and radii in angstrom
Multipole moments in atomic units, ea_0^k for rank k

C          x = -0.194251  y =  1.439575  z =  1.032530 angstrom
           Maximum rank =  0   Radius =  0.650 angstrom
                   Q00  =  -0.237667

C          x = -0.040251  y =  1.429575  z =  2.569530 angstrom
           Maximum rank =  0   Radius =  0.650 angstrom
                   Q00  =  -0.240951

H          x =  0.643749  y =  0.913575  z =  0.575530 angstrom
           Maximum rank =  0   Radius =  0.325 angstrom
                   Q00  =   0.079006

H          x = -1.119251  y =  0.939575  z =  0.757530 angstrom
           Maximum rank =  0   Radius =  0.325 angstrom
                   Q00  =   0.080221

H          x = -0.242251  y =  2.459575  z =  0.653530 angstrom
           Maximum rank =  0   Radius =  0.325 angstrom
                   Q00  =   0.080737

H          x = -0.783251  y =  2.122575  z =  2.967530 angstrom
           Maximum rank =  0   Radius =  0.325 angstrom
                   Q00  =   0.076620

H          x =  0.957939  y =  1.776955  z =  2.874390 angstrom
           Maximum rank =  0   Radius =  0.325 angstrom
                   Q00  =   0.081586

H          x = -0.254941  y =  0.433975  z =  2.985090 angstrom
           Maximum rank =  0   Radius =  0.325 angstrom
                   Q00  =   0.080628

C          x = -0.272251  y = -0.868425  z = -1.543470 angstrom
           Maximum rank =  0   Radius =  0.650 angstrom
                   Q00  =  -0.216821

C          x =  0.509749  y = -2.005425  z = -2.057470 angstrom
           Maximum rank =  0   Radius =  0.650 angstrom
                   Q00  =  -0.222868

H          x = -0.514251  y = -1.020425  z = -0.492470 angstrom
           Maximum rank =  0   Radius =  0.325 angstrom
                   Q00  =   0.072235

H          x =  0.310749  y =  0.048575  z = -1.641470 angstrom
           Maximum rank =  0   Radius =  0.325 angstrom
                   Q00  =   0.071901

H          x = -1.196251  y = -0.760425  z = -2.110470 angstrom
           Maximum rank =  0   Radius =  0.325 angstrom
                   Q00  =   0.073517

H          x =  1.016749  y = -1.695425  z = -2.971470 angstrom
           Maximum rank =  0   Radius =  0.325 angstrom
                   Q00  =   0.077126

H          x = -0.134991  y = -2.867605  z = -2.283210 angstrom
           Maximum rank =  0   Radius =  0.325 angstrom
                   Q00  =   0.073832

H          x =  1.280329  y = -2.294945  z = -1.327830 angstrom
           Maximum rank =  0   Radius =  0.325 angstrom
                   Q00  =   0.070898

Total multipoles referred to origin at
           x =   0.000000,  y =    0.000000,  z =    0.000000 angstrom
                   Q00  =  -0.000000

Finished at 11:8:14 on 28 Apr 2020

  DMA results are available in the Python driver through the
	  variable('DMA DISTRIBUTED MULTIPOLES')
  and
	  variable('DMA TOTAL MULTIPOLES')
  commands.

    Psi4 stopped on: Tuesday, 28 April 2020 11:08AM
    Psi4 wall time for execution: 0:00:09.83

*** Psi4 exiting successfully. Buy a developer a beer!
