                               Psi4 1.3.2 release

  ==> Input File <==

--------------------------------------------------------------------------
import numpy as np
set {scf_type pk
basis cc-pvdz
d_convergence 10
gdma_switch   0
gdma_limit    0
gdma_origin   [ 0.0,  0.0,  0.0 ]
}
molecule test {
    units Angstrom
    0 1
    --
    0 1
    C               -0.132736186576280     1.738314179121587     0.368416349936189
    C                1.115263813423720     1.950314179121587    -0.490583650063811
    H               -0.677736186576280     2.678314179121588     0.467416349936189
    H               -0.789736186576280     1.008314179121587    -0.102583650063811
    H                0.144263813423720     1.388314179121587     1.362416349936189
    H                1.638263813423720     1.001314179121587    -0.574583650063811
    H                1.780333813423720     2.700484179121587    -0.037904650063811
    H                0.828773813423720     2.248374179121587    -1.509936650063811
    C                0.236263813423720    -1.647685820878413     0.112416349936189
    C               -1.220736186576280    -2.041685820878413     0.010416349936189
    H                0.851263813423720    -2.522685820878412     0.332416349936189
    H                0.545263813423720    -1.206685820878413    -0.832583650063811
    H                0.384263813423720    -0.914685820878413     0.904416349936189
    H               -1.787736186576280    -1.223685820878412    -0.426583650063811
    H               -1.569506186576280    -2.217875820878413     1.038676349936189
    H               -1.324556186576280    -2.930645820878413    -0.629088650063811

}
e, wfn = energy('scf', return_wfn=True)
gdma(wfn)
dmavals = variable('DMA DISTRIBUTED MULTIPOLES')
charges = np.array(dmavals)
print(charges)
np.save('SSI-012LEU-065LEU-1-dimer.npy', np.array(charges))--------------------------------------------------------------------------

*** tstart() called on ds3
*** at Tue Apr 28 01:27:47 2020

   => Loading Basis Set <=

    Name: CC-PVDZ
    Role: ORBITAL
    Keyword: BASIS
    atoms 1-2, 9-10  entry C          line   138 file /theoryfs2/ds/metcalf/miniconda2/envs/tf2gpu/share/psi4/basis/cc-pvdz.gbs
    atoms 3-8, 11-16 entry H          line    22 file /theoryfs2/ds/metcalf/miniconda2/envs/tf2gpu/share/psi4/basis/cc-pvdz.gbs

         ---------------------------------------------------------
                                   SCF
               by Justin Turney, Rob Parrish, Andy Simmonett
                          and Daniel G. A. Smith
                              RHF Reference
                        1 Threads,    500 MiB Core
         ---------------------------------------------------------

  ==> Geometry <==

    Molecular point group: c1
    Full point group: C1

    Geometry (in Angstrom), charge = 0, multiplicity = 1:

       Center              X                  Y                   Z               Mass
    ------------   -----------------  -----------------  -----------------  -----------------
         C           -0.132736186576     1.738314179122     0.368416349936    12.000000000000
         C            1.115263813424     1.950314179122    -0.490583650064    12.000000000000
         H           -0.677736186576     2.678314179122     0.467416349936     1.007825032230
         H           -0.789736186576     1.008314179122    -0.102583650064     1.007825032230
         H            0.144263813424     1.388314179122     1.362416349936     1.007825032230
         H            1.638263813424     1.001314179122    -0.574583650064     1.007825032230
         H            1.780333813424     2.700484179122    -0.037904650064     1.007825032230
         H            0.828773813424     2.248374179122    -1.509936650064     1.007825032230
         C            0.236263813424    -1.647685820878     0.112416349936    12.000000000000
         C           -1.220736186576    -2.041685820878     0.010416349936    12.000000000000
         H            0.851263813424    -2.522685820878     0.332416349936     1.007825032230
         H            0.545263813424    -1.206685820878    -0.832583650064     1.007825032230
         H            0.384263813424    -0.914685820878     0.904416349936     1.007825032230
         H           -1.787736186576    -1.223685820878    -0.426583650064     1.007825032230
         H           -1.569506186576    -2.217875820878     1.038676349936     1.007825032230
         H           -1.324556186576    -2.930645820878    -0.629088650064     1.007825032230

  Running in c1 symmetry.

  Rotational constants: A =      0.40254  B =      0.06934  C =      0.06373 [cm^-1]
  Rotational constants: A =  12067.82986  B =   2078.63446  C =   1910.68091 [MHz]
  Nuclear repulsion =  128.662750685693993

  Charge       = 0
  Multiplicity = 1
  Electrons    = 36
  Nalpha       = 18
  Nbeta        = 18

  ==> Algorithm <==

  SCF Algorithm Type is PK.
  DIIS enabled.
  MOM disabled.
  Fractional occupation disabled.
  Guess Type is SAD.
  Energy threshold   = 1.00e-06
  Density threshold  = 1.00e-10
  Integral threshold = 0.00e+00

  ==> Primary Basis <==

  Basis Set: CC-PVDZ
    Blend: CC-PVDZ
    Number of shells: 60
    Number of basis function: 116
    Number of Cartesian functions: 120
    Spherical Harmonics?: true
    Max angular momentum: 2

  ==> Pre-Iterations <==

   -------------------------------------------------------
    Irrep   Nso     Nmo     Nalpha   Nbeta   Ndocc  Nsocc
   -------------------------------------------------------
     A        116     116       0       0       0       0
   -------------------------------------------------------
    Total     116     116      18      18      18       0
   -------------------------------------------------------

  ==> Integral Setup <==

  Using integral reordering PK algorithm.
  Sizing the integral batches needed.
  Building batch lookup table.
   Calculation information:
      Number of atoms:                  16
      Number of AO shells:              60
      Number of primitives:            148
      Number of atomic orbitals:       120
      Number of basis functions:       116

      Integral cutoff                 1.00e-12
      Number of threads:                 1

	Batch   1 pq = [       0,    6786] index = [             0,23028291] size =     23028291
  Task number: 3
  Buffer size: 11059200
  Buffer per thread: 2
  We computed 1624311 shell quartets total.
  Whereas there are 1675365 unique shell quartets.

  ==> DiskJK: Disk-Based J/K Matrices <==

    J tasked:                  Yes
    K tasked:                  Yes
    wK tasked:                  No
    Memory [MiB]:              375
    Schwarz Cutoff:          1E-12

    OpenMP threads:              1

  Minimum eigenvalue in the overlap matrix is 7.0649907290E-03.
  Using Symmetric Orthogonalization.

  SCF Guess: Superposition of Atomic Densities via on-the-fly atomic UHF.

  ==> Iterations <==

                        Total Energy        Delta E     RMS |[F,P]|

   @RHF iter SAD:  -157.42659628777798   -1.57427e+02   0.00000e+00
   @RHF iter   1:  -158.30157019044850   -8.74974e-01   4.23585e-03 DIIS
   @RHF iter   2:  -158.43684670923608   -1.35277e-01   1.80187e-03 DIIS
   @RHF iter   3:  -158.46044424190214   -2.35975e-02   3.53351e-04 DIIS
   @RHF iter   4:  -158.46230535990207   -1.86112e-03   3.88935e-05 DIIS
   @RHF iter   5:  -158.46232930215655   -2.39423e-05   6.42103e-06 DIIS
   @RHF iter   6:  -158.46232994075018   -6.38594e-07   8.88826e-07 DIIS
   @RHF iter   7:  -158.46232995058961   -9.83943e-09   2.79694e-07 DIIS
   @RHF iter   8:  -158.46232995132686   -7.37259e-10   5.53605e-08 DIIS
   @RHF iter   9:  -158.46232995137473   -4.78622e-11   1.29577e-08 DIIS
   @RHF iter  10:  -158.46232995137839   -3.66640e-12   2.86751e-09 DIIS
   @RHF iter  11:  -158.46232995137814    2.55795e-13   4.78365e-10 DIIS
   @RHF iter  12:  -158.46232995137862   -4.83169e-13   1.35225e-10 DIIS
   @RHF iter  13:  -158.46232995137845    1.70530e-13   3.35168e-11 DIIS
  Energy and wave function converged.

  ==> Post-Iterations <==

    Orbital Energies [Eh]
    ---------------------

    Doubly Occupied:

       1A    -11.218495     2A    -11.217930     3A    -11.216774
       4A    -11.213782     5A     -1.025451     6A     -1.016455
       7A     -0.837438     8A     -0.833813     9A     -0.612781
      10A     -0.605481    11A     -0.596757    12A     -0.586629
      13A     -0.502993    14A     -0.498934    15A     -0.489893
      16A     -0.489131    17A     -0.482363    18A     -0.476588

    Virtual:

      19A      0.174811    20A      0.203939    21A      0.224659
      22A      0.228903    23A      0.247663    24A      0.255820
      25A      0.265576    26A      0.276471    27A      0.287052
      28A      0.309072    29A      0.336208    30A      0.357821
      31A      0.395911    32A      0.413376    33A      0.575657
      34A      0.594172    35A      0.600128    36A      0.609717
      37A      0.615537    38A      0.632357    39A      0.666825
      40A      0.689157    41A      0.727535    42A      0.827850
      43A      0.844650    44A      0.857731    45A      0.869312
      46A      0.889908    47A      0.894710    48A      0.900898
      49A      0.903974    50A      0.920064    51A      0.936170
      52A      0.945843    53A      0.956386    54A      0.964092
      55A      0.995613    56A      1.025361    57A      1.118009
      58A      1.128619    59A      1.145589    60A      1.166866
      61A      1.233703    62A      1.258717    63A      1.466094
      64A      1.480483    65A      1.489337    66A      1.507362
      67A      1.545352    68A      1.596345    69A      1.677285
      70A      1.688072    71A      1.711247    72A      1.733559
      73A      1.842331    74A      1.862265    75A      1.873721
      76A      1.897888    77A      1.908369    78A      1.924847
      79A      1.935079    80A      1.942673    81A      1.945601
      82A      1.950506    83A      1.952144    84A      1.960975
      85A      1.963905    86A      1.982287    87A      2.007794
      88A      2.041892    89A      2.095280    90A      2.120988
      91A      2.150698    92A      2.164913    93A      2.282472
      94A      2.304257    95A      2.314286    96A      2.323636
      97A      2.445082    98A      2.455772    99A      2.467511
     100A      2.477454   101A      2.568585   102A      2.576333
     103A      2.582991   104A      2.610908   105A      2.766930
     106A      2.772855   107A      2.791762   108A      2.797981
     109A      2.834787   110A      2.849013   111A      2.867271
     112A      2.869745   113A      2.941957   114A      2.962748
     115A      2.971072   116A      3.016484

    Final Occupation by Irrep:
              A
    DOCC [    18 ]

  @RHF Final Energy:  -158.46232995137845

   => Energetics <=

    Nuclear Repulsion Energy =            128.6627506856939931
    One-Electron Energy =                -466.4067864611513414
    Two-Electron Energy =                 179.2817058240788981
    Total Energy =                       -158.4623299513784502

Computation Completed

Properties will be evaluated at   0.000000,   0.000000,   0.000000 [a0]

Properties computed using the SCF density matrix

  Nuclear Dipole Moment: [e a0]
     X:     0.0217      Y:     0.0083      Z:    -0.0074

  Electronic Dipole Moment: [e a0]
     X:    -0.0195      Y:    -0.0112      Z:     0.0111

  Dipole Moment: [e a0]
     X:     0.0023      Y:    -0.0029      Z:     0.0037     Total:     0.0052

  Dipole Moment: [D]
     X:     0.0057      Y:    -0.0074      Z:     0.0093     Total:     0.0132

*** tstop() called on ds3 at Tue Apr 28 01:27:58 2020
Module time:
	user time   =       8.10 seconds =       0.14 minutes
	system time =       2.65 seconds =       0.04 minutes
	total time  =         11 seconds =       0.18 minutes
Total time:
	user time   =       8.10 seconds =       0.14 minutes
	system time =       2.65 seconds =       0.04 minutes
	total time  =         11 seconds =       0.18 minutes
                                     G D M A

                                 by Anthony Stone

                           version 2.2.06, 22 June 2011

               Distributed Multipoles from Gaussian wavefunctions

Starting at 1:27:58 on 28 Apr 2020

Using SCF density matrix from file ./SSI/SSI-012LEU-065LEU-1-dimer.test.8589.fchk

                         Distributed Multipole Analysis

Standard DMA

Positions and radii in angstrom
Multipole moments in atomic units, ea_0^k for rank k

C          x = -0.132736  y =  1.738314  z =  0.368416 angstrom
           Maximum rank =  0   Radius =  0.650 angstrom
                   Q00  =  -0.247456

C          x =  1.115264  y =  1.950314  z = -0.490584 angstrom
           Maximum rank =  0   Radius =  0.650 angstrom
                   Q00  =  -0.228314

H          x = -0.677736  y =  2.678314  z =  0.467416 angstrom
           Maximum rank =  0   Radius =  0.325 angstrom
                   Q00  =   0.078376

H          x = -0.789736  y =  1.008314  z = -0.102584 angstrom
           Maximum rank =  0   Radius =  0.325 angstrom
                   Q00  =   0.080947

H          x =  0.144264  y =  1.388314  z =  1.362416 angstrom
           Maximum rank =  0   Radius =  0.325 angstrom
                   Q00  =   0.078383

H          x =  1.638264  y =  1.001314  z = -0.574584 angstrom
           Maximum rank =  0   Radius =  0.325 angstrom
                   Q00  =   0.080739

H          x =  1.780334  y =  2.700484  z = -0.037905 angstrom
           Maximum rank =  0   Radius =  0.325 angstrom
                   Q00  =   0.080814

H          x =  0.828774  y =  2.248374  z = -1.509937 angstrom
           Maximum rank =  0   Radius =  0.325 angstrom
                   Q00  =   0.077829

C          x =  0.236264  y = -1.647686  z =  0.112416 angstrom
           Maximum rank =  0   Radius =  0.650 angstrom
                   Q00  =  -0.246516

C          x = -1.220736  y = -2.041686  z =  0.010416 angstrom
           Maximum rank =  0   Radius =  0.650 angstrom
                   Q00  =  -0.217051

H          x =  0.851264  y = -2.522686  z =  0.332416 angstrom
           Maximum rank =  0   Radius =  0.325 angstrom
                   Q00  =   0.078151

H          x =  0.545264  y = -1.206686  z = -0.832584 angstrom
           Maximum rank =  0   Radius =  0.325 angstrom
                   Q00  =   0.071937

H          x =  0.384264  y = -0.914686  z =  0.904416 angstrom
           Maximum rank =  0   Radius =  0.325 angstrom
                   Q00  =   0.081332

H          x = -1.787736  y = -1.223686  z = -0.426584 angstrom
           Maximum rank =  0   Radius =  0.325 angstrom
                   Q00  =   0.076924

H          x = -1.569506  y = -2.217876  z =  1.038676 angstrom
           Maximum rank =  0   Radius =  0.325 angstrom
                   Q00  =   0.074481

H          x = -1.324556  y = -2.930646  z = -0.629089 angstrom
           Maximum rank =  0   Radius =  0.325 angstrom
                   Q00  =   0.079426

Total multipoles referred to origin at
           x =   0.000000,  y =    0.000000,  z =    0.000000 angstrom
                   Q00  =  -0.000000

Finished at 1:27:58 on 28 Apr 2020

  DMA results are available in the Python driver through the
	  variable('DMA DISTRIBUTED MULTIPOLES')
  and
	  variable('DMA TOTAL MULTIPOLES')
  commands.

    Psi4 stopped on: Tuesday, 28 April 2020 01:27AM
    Psi4 wall time for execution: 0:00:10.72

*** Psi4 exiting successfully. Buy a developer a beer!
