                               Psi4 1.3.2 release

  ==> Input File <==

--------------------------------------------------------------------------
import numpy as np
set {scf_type pk
basis cc-pvdz
d_convergence 10
gdma_switch   0
gdma_limit    0
gdma_origin   [ 0.0,  0.0,  0.0 ]
}
molecule test {
    units Angstrom
    0 1
    --
    0 1
    C               -2.076555945590324    -2.379070989884474    -1.855379100149345
    C               -1.942555945590324     0.920929010115526     0.076620899850655
    C               -1.924555945590324     0.440929010115526     1.380620899850655
    C               -1.932555945590324     0.000929010115526    -0.963379100149345
    C               -1.963555945590324    -1.383070989884474    -0.725379100149345
    C               -1.937555945590324    -0.926070989884474     1.634620899850655
    C               -1.971555945590324    -1.842070989884474     0.582620899850655
    O               -1.939555945590324     1.340929010115526     2.423620899850655
    H               -1.935555945590324     1.983929010115526    -0.117379100149345
    H               -1.920555945590324     0.373929010115526    -1.979379100149345
    H               -1.886555945590324    -1.293070989884474     2.641620899850655
    H               -1.897555945590324     0.897929010115526     3.288620899850655
    H               -1.737555945590324    -3.359070989884474    -1.514379100149345
    H               -1.429555945590324    -2.067070989884474    -2.676379100149345
    H               -1.988555945590324    -2.904070989884473     0.795620899850655
    H               -3.114945945590324    -2.461570989884474    -2.208857100149345
    C                1.512444054409676    -0.183070989884474    -2.227379100149345
    C                1.709444054409676     0.635929010115526     0.226620899850655
    C                2.189444054409676     0.366929010115526    -1.014379100149345
    C                3.865444054409676     1.072929010115526     0.216620899850655
    N                2.767444054409676     1.103929010115526     0.969620899850655
    N                3.542444054409676     0.634929010115526    -0.993379100149345
    H                0.684444054409676     0.523929010115526     0.547620899850655
    H                2.714444054409676     1.478929010115526     1.910620899850655
    H                0.458444054409676    -0.334070989884474    -2.011379100149345
    H                1.944444054409676    -1.158070989884474    -2.450379100149345
    H                4.849444054409676     1.404929010115527     0.519620899850655
    H                1.618694054409676     0.463859010115526    -3.110667100149345

}
e, wfn = energy('scf', return_wfn=True)
gdma(wfn)
dmavals = variable('DMA DISTRIBUTED MULTIPOLES')
charges = np.array(dmavals)
print(charges)
np.save('SSI-125TYR-164HIE-1-dimer.npy', np.array(charges))--------------------------------------------------------------------------

*** tstart() called on ds3
*** at Tue Apr 28 12:41:35 2020

   => Loading Basis Set <=

    Name: CC-PVDZ
    Role: ORBITAL
    Keyword: BASIS
    atoms 1-7, 17-20  entry C          line   138 file /theoryfs2/ds/metcalf/miniconda2/envs/tf2gpu/share/psi4/basis/cc-pvdz.gbs
    atoms 8           entry O          line   198 file /theoryfs2/ds/metcalf/miniconda2/envs/tf2gpu/share/psi4/basis/cc-pvdz.gbs
    atoms 9-16, 23-28 entry H          line    22 file /theoryfs2/ds/metcalf/miniconda2/envs/tf2gpu/share/psi4/basis/cc-pvdz.gbs
    atoms 21-22       entry N          line   168 file /theoryfs2/ds/metcalf/miniconda2/envs/tf2gpu/share/psi4/basis/cc-pvdz.gbs

         ---------------------------------------------------------
                                   SCF
               by Justin Turney, Rob Parrish, Andy Simmonett
                          and Daniel G. A. Smith
                              RHF Reference
                        1 Threads,    500 MiB Core
         ---------------------------------------------------------

  ==> Geometry <==

    Molecular point group: c1
    Full point group: C1

    Geometry (in Angstrom), charge = 0, multiplicity = 1:

       Center              X                  Y                   Z               Mass
    ------------   -----------------  -----------------  -----------------  -----------------
         C           -2.076555945590    -2.379070989884    -1.855379100149    12.000000000000
         C           -1.942555945590     0.920929010116     0.076620899851    12.000000000000
         C           -1.924555945590     0.440929010116     1.380620899851    12.000000000000
         C           -1.932555945590     0.000929010116    -0.963379100149    12.000000000000
         C           -1.963555945590    -1.383070989884    -0.725379100149    12.000000000000
         C           -1.937555945590    -0.926070989884     1.634620899851    12.000000000000
         C           -1.971555945590    -1.842070989884     0.582620899851    12.000000000000
         O           -1.939555945590     1.340929010116     2.423620899851    15.994914619570
         H           -1.935555945590     1.983929010116    -0.117379100149     1.007825032230
         H           -1.920555945590     0.373929010116    -1.979379100149     1.007825032230
         H           -1.886555945590    -1.293070989884     2.641620899851     1.007825032230
         H           -1.897555945590     0.897929010116     3.288620899851     1.007825032230
         H           -1.737555945590    -3.359070989884    -1.514379100149     1.007825032230
         H           -1.429555945590    -2.067070989884    -2.676379100149     1.007825032230
         H           -1.988555945590    -2.904070989884     0.795620899851     1.007825032230
         H           -3.114945945590    -2.461570989884    -2.208857100149     1.007825032230
         C            1.512444054410    -0.183070989884    -2.227379100149    12.000000000000
         C            1.709444054410     0.635929010116     0.226620899851    12.000000000000
         C            2.189444054410     0.366929010116    -1.014379100149    12.000000000000
         C            3.865444054410     1.072929010116     0.216620899851    12.000000000000
         N            2.767444054410     1.103929010116     0.969620899851    14.003074004430
         N            3.542444054410     0.634929010116    -0.993379100149    14.003074004430
         H            0.684444054410     0.523929010116     0.547620899851     1.007825032230
         H            2.714444054410     1.478929010116     1.910620899851     1.007825032230
         H            0.458444054410    -0.334070989884    -2.011379100149     1.007825032230
         H            1.944444054410    -1.158070989884    -2.450379100149     1.007825032230
         H            4.849444054410     1.404929010116     0.519620899851     1.007825032230
         H            1.618694054410     0.463859010116    -3.110667100149     1.007825032230

  Running in c1 symmetry.

  Rotational constants: A =      0.03049  B =      0.01374  C =      0.01065 [cm^-1]
  Rotational constants: A =    913.93312  B =    411.96577  C =    319.35324 [MHz]
  Nuclear repulsion =  832.572498350248793

  Charge       = 0
  Multiplicity = 1
  Electrons    = 102
  Nalpha       = 51
  Nbeta        = 51

  ==> Algorithm <==

  SCF Algorithm Type is PK.
  DIIS enabled.
  MOM disabled.
  Fractional occupation disabled.
  Guess Type is SAD.
  Energy threshold   = 1.00e-06
  Density threshold  = 1.00e-10
  Integral threshold = 0.00e+00

  ==> Primary Basis <==

  Basis Set: CC-PVDZ
    Blend: CC-PVDZ
    Number of shells: 126
    Number of basis function: 266
    Number of Cartesian functions: 280
    Spherical Harmonics?: true
    Max angular momentum: 2

  ==> Pre-Iterations <==

   -------------------------------------------------------
    Irrep   Nso     Nmo     Nalpha   Nbeta   Ndocc  Nsocc
   -------------------------------------------------------
     A        266     266       0       0       0       0
   -------------------------------------------------------
    Total     266     266      51      51      51       0
   -------------------------------------------------------

  ==> Integral Setup <==

  Using integral reordering PK algorithm.
  Sizing the integral batches needed.
  Building batch lookup table.
   Calculation information:
      Number of atoms:                  28
      Number of AO shells:             126
      Number of primitives:            378
      Number of atomic orbitals:       280
      Number of basis functions:       266

      Integral cutoff                 1.00e-12
      Number of threads:                 1

	Batch   1 pq = [       0,    9405] index = [             0,44231715] size =     44231715
	Batch   2 pq = [    9405,   13301] index = [      44231715,88464951] size =     44233236
	Batch   3 pq = [   13301,   16290] index = [      88464951,132690195] size =     44225244
	Batch   4 pq = [   16290,   18810] index = [     132690195,176917455] size =     44227260
	Batch   5 pq = [   18810,   21030] index = [     176917455,221140965] size =     44223510
	Batch   6 pq = [   21030,   23037] index = [     221140965,265363203] size =     44222238
	Batch   7 pq = [   23037,   24883] index = [     265363203,309594286] size =     44231083
	Batch   8 pq = [   24883,   26601] index = [     309594286,353819901] size =     44225615
	Batch   9 pq = [   26601,   28214] index = [     353819901,398029005] size =     44209104
	Batch  10 pq = [   28214,   29740] index = [     398029005,442248670] size =     44219665
	Batch  11 pq = [   29740,   31191] index = [     442248670,486454836] size =     44206166
	Batch  12 pq = [   31191,   32578] index = [     486454836,530679331] size =     44224495
	Batch  13 pq = [   32578,   33908] index = [     530679331,574893186] size =     44213855
	Batch  14 pq = [   33908,   35188] index = [     574893186,619115266] size =     44222080
	Batch  15 pq = [   35188,   35511] index = [     619115266,630533316] size =     11418050
  Task number: 58
  Buffer size: 11059200
  Buffer per thread: 2
  We computed 33103729 shell quartets total.
  Whereas there are 32012001 unique shell quartets.
     3.41 percent of shell quartets recomputed by reordering.

  ==> DiskJK: Disk-Based J/K Matrices <==

    J tasked:                  Yes
    K tasked:                  Yes
    wK tasked:                  No
    Memory [MiB]:              375
    Schwarz Cutoff:          1E-12

    OpenMP threads:              1

  Minimum eigenvalue in the overlap matrix is 3.2292340058E-04.
  Using Symmetric Orthogonalization.

  SCF Guess: Superposition of Atomic Densities via on-the-fly atomic UHF.

  ==> Iterations <==

                        Total Energy        Delta E     RMS |[F,P]|

   @RHF iter SAD:  -607.56323856871086   -6.07563e+02   0.00000e+00
   @RHF iter   1:  -608.18102252302708   -6.17784e-01   2.62379e-03 DIIS
   @RHF iter   2:  -608.43500218440863   -2.53980e-01   1.26870e-03 DIIS
   @RHF iter   3:  -608.48744662924560   -5.24444e-02   3.40924e-04 DIIS
   @RHF iter   4:  -608.49245448707552   -5.00786e-03   1.40961e-04 DIIS
   @RHF iter   5:  -608.49325736322453   -8.02876e-04   2.16486e-05 DIIS
   @RHF iter   6:  -608.49329038378528   -3.30206e-05   9.91032e-06 DIIS
   @RHF iter   7:  -608.49329693959248   -6.55581e-06   3.39339e-06 DIIS
   @RHF iter   8:  -608.49329833182969   -1.39224e-06   1.34597e-06 DIIS
   @RHF iter   9:  -608.49329858996316   -2.58133e-07   5.69483e-07 DIIS
   @RHF iter  10:  -608.49329862996456   -4.00014e-08   2.17781e-07 DIIS
   @RHF iter  11:  -608.49329863707362   -7.10907e-09   8.25779e-08 DIIS
   @RHF iter  12:  -608.49329863796743   -8.93806e-10   3.51770e-08 DIIS
   @RHF iter  13:  -608.49329863811840   -1.50976e-10   1.23917e-08 DIIS
   @RHF iter  14:  -608.49329863813898   -2.05773e-11   5.44942e-09 DIIS
   @RHF iter  15:  -608.49329863814421   -5.22959e-12   2.31258e-09 DIIS
   @RHF iter  16:  -608.49329863814671   -2.50111e-12   9.52870e-10 DIIS
   @RHF iter  17:  -608.49329863814819   -1.47793e-12   3.80700e-10 DIIS
   @RHF iter  18:  -608.49329863814432    3.86535e-12   1.43357e-10 DIIS
   @RHF iter  19:  -608.49329863814955   -5.22959e-12   6.80196e-11 DIIS
  Energy and wave function converged.

  ==> Post-Iterations <==

    Orbital Energies [Eh]
    ---------------------

    Doubly Occupied:

       1A    -20.588994     2A    -15.611631     3A    -15.519204
       4A    -11.305918     5A    -11.283945     6A    -11.245273
       7A    -11.244485     8A    -11.240185     9A    -11.239061
      10A    -11.238325    11A    -11.238133    12A    -11.231818
      13A    -11.230468    14A    -11.213970    15A     -1.397384
      16A     -1.332184    17A     -1.158292    18A     -1.144973
      19A     -1.043457    20A     -1.025961    21A     -1.021716
      22A     -0.932830    23A     -0.930050    24A     -0.850217
      25A     -0.809160    26A     -0.807185    27A     -0.752732
      28A     -0.734716    29A     -0.731721    30A     -0.672859
      31A     -0.647667    32A     -0.611180    33A     -0.603770
      34A     -0.597556    35A     -0.594656    36A     -0.592626
      37A     -0.581356    38A     -0.573454    39A     -0.570774
      40A     -0.542669    41A     -0.534761    42A     -0.532179
      43A     -0.515149    44A     -0.498784    45A     -0.493759
      46A     -0.471640    47A     -0.402592    48A     -0.369262
      49A     -0.346199    50A     -0.309384    51A     -0.299600

    Virtual:

      52A      0.122017    53A      0.147806    54A      0.169374
      55A      0.179346    56A      0.185774    57A      0.197922
      58A      0.209579    59A      0.213001    60A      0.231665
      61A      0.236082    62A      0.240965    63A      0.255733
      64A      0.257611    65A      0.274609    66A      0.283717
      67A      0.291304    68A      0.310644    69A      0.335952
      70A      0.362699    71A      0.366941    72A      0.397626
      73A      0.404452    74A      0.422512    75A      0.432589
      76A      0.451965    77A      0.476009    78A      0.480037
      79A      0.493584    80A      0.504004    81A      0.508836
      82A      0.602391    83A      0.610651    84A      0.614841
      85A      0.626903    86A      0.642677    87A      0.648355
      88A      0.663767    89A      0.671816    90A      0.686695
      91A      0.702558    92A      0.706496    93A      0.712142
      94A      0.721966    95A      0.728566    96A      0.731421
      97A      0.745352    98A      0.757996    99A      0.769139
     100A      0.784108   101A      0.793254   102A      0.799421
     103A      0.817072   104A      0.822659   105A      0.829959
     106A      0.836428   107A      0.851244   108A      0.860904
     109A      0.869008   110A      0.874150   111A      0.878490
     112A      0.889895   113A      0.891743   114A      0.901823
     115A      0.914064   116A      0.922047   117A      0.937650
     118A      0.939462   119A      0.945845   120A      0.953882
     121A      0.961137   122A      0.966540   123A      1.001081
     124A      1.011531   125A      1.020451   126A      1.046880
     127A      1.059622   128A      1.070817   129A      1.097994
     130A      1.108386   131A      1.115666   132A      1.127917
     133A      1.139473   134A      1.148589   135A      1.158153
     136A      1.180196   137A      1.203819   138A      1.224463
     139A      1.232416   140A      1.254141   141A      1.266273
     142A      1.272505   143A      1.274244   144A      1.285441
     145A      1.296178   146A      1.299858   147A      1.307575
     148A      1.309904   149A      1.326736   150A      1.335543
     151A      1.351787   152A      1.359975   153A      1.369521
     154A      1.420310   155A      1.457647   156A      1.467528
     157A      1.476461   158A      1.486920   159A      1.496917
     160A      1.527345   161A      1.531880   162A      1.559512
     163A      1.581859   164A      1.611424   165A      1.616871
     166A      1.625939   167A      1.663318   168A      1.670681
     169A      1.692748   170A      1.706495   171A      1.721163
     172A      1.738277   173A      1.751445   174A      1.778305
     175A      1.786762   176A      1.801090   177A      1.815038
     178A      1.825842   179A      1.837800   180A      1.863227
     181A      1.870426   182A      1.888741   183A      1.899057
     184A      1.901899   185A      1.908581   186A      1.923686
     187A      1.931379   188A      1.933895   189A      1.940065
     190A      1.959980   191A      1.965789   192A      1.973340
     193A      1.979052   194A      1.986095   195A      2.000599
     196A      2.019839   197A      2.033731   198A      2.043338
     199A      2.054469   200A      2.058635   201A      2.073516
     202A      2.084875   203A      2.106785   204A      2.130752
     205A      2.133828   206A      2.146784   207A      2.150824
     208A      2.161509   209A      2.180207   210A      2.201595
     211A      2.217253   212A      2.222348   213A      2.249642
     214A      2.260388   215A      2.268593   216A      2.296575
     217A      2.314367   218A      2.328279   219A      2.373038
     220A      2.385554   221A      2.418427   222A      2.424996
     223A      2.440467   224A      2.452450   225A      2.466430
     226A      2.467201   227A      2.481994   228A      2.506690
     229A      2.529962   230A      2.559357   231A      2.572638
     232A      2.603353   233A      2.628484   234A      2.642768
     235A      2.705306   236A      2.745038   237A      2.762640
     238A      2.768161   239A      2.773967   240A      2.783648
     241A      2.788393   242A      2.797278   243A      2.809839
     244A      2.832379   245A      2.884371   246A      2.894285
     247A      2.910715   248A      2.914943   249A      2.946499
     250A      2.975241   251A      2.986113   252A      3.027126
     253A      3.074142   254A      3.081024   255A      3.110802
     256A      3.181510   257A      3.235544   258A      3.256780
     259A      3.275933   260A      3.332374   261A      3.496559
     262A      3.558412   263A      3.664619   264A      3.812925
     265A      3.956370   266A      4.174675

    Final Occupation by Irrep:
              A
    DOCC [    51 ]

  @RHF Final Energy:  -608.49329863814955

   => Energetics <=

    Nuclear Repulsion Energy =            832.5724983502487930
    One-Electron Energy =               -2479.1998683689434984
    Two-Electron Energy =                1038.1340713805452651
    Total Energy =                       -608.4932986381495539

Computation Completed

Properties will be evaluated at   0.000000,   0.000000,   0.000000 [a0]

Properties computed using the SCF density matrix

  Nuclear Dipole Moment: [e a0]
     X:    -3.4409      Y:    -6.0449      Z:    -5.9553

  Electronic Dipole Moment: [e a0]
     X:     2.8384      Y:     5.7837      Z:     7.3831

  Dipole Moment: [e a0]
     X:    -0.6025      Y:    -0.2611      Z:     1.4278     Total:     1.5715

  Dipole Moment: [D]
     X:    -1.5315      Y:    -0.6638      Z:     3.6290     Total:     3.9944

*** tstop() called on ds3 at Tue Apr 28 12:55:38 2020
Module time:
	user time   =     276.42 seconds =       4.61 minutes
	system time =     104.34 seconds =       1.74 minutes
	total time  =        843 seconds =      14.05 minutes
Total time:
	user time   =     276.42 seconds =       4.61 minutes
	system time =     104.34 seconds =       1.74 minutes
	total time  =        843 seconds =      14.05 minutes
                                     G D M A

                                 by Anthony Stone

                           version 2.2.06, 22 June 2011

               Distributed Multipoles from Gaussian wavefunctions

Starting at 12:55:38 on 28 Apr 2020

Using SCF density matrix from file ./SSI/SSI-125TYR-164HIE-1-dimer.test.15298.fchk

                         Distributed Multipole Analysis

Standard DMA

Positions and radii in angstrom
Multipole moments in atomic units, ea_0^k for rank k

C          x = -2.076556  y = -2.379071  z = -1.855379 angstrom
           Maximum rank =  0   Radius =  0.650 angstrom
                   Q00  =  -0.192766

C          x = -1.942556  y =  0.920929  z =  0.076621 angstrom
           Maximum rank =  0   Radius =  0.650 angstrom
                   Q00  =  -0.108188

C          x = -1.924556  y =  0.440929  z =  1.380621 angstrom
           Maximum rank =  0   Radius =  0.650 angstrom
                   Q00  =   0.310762

C          x = -1.932556  y =  0.000929  z = -0.963379 angstrom
           Maximum rank =  0   Radius =  0.650 angstrom
                   Q00  =   0.041169

C          x = -1.963556  y = -1.383071  z = -0.725379 angstrom
           Maximum rank =  0   Radius =  0.650 angstrom
                   Q00  =  -0.130862

C          x = -1.937556  y = -0.926071  z =  1.634621 angstrom
           Maximum rank =  0   Radius =  0.650 angstrom
                   Q00  =  -0.169677

C          x = -1.971556  y = -1.842071  z =  0.582621 angstrom
           Maximum rank =  0   Radius =  0.650 angstrom
                   Q00  =  -0.061546

O          x = -1.939556  y =  1.340929  z =  2.423621 angstrom
           Maximum rank =  0   Radius =  0.650 angstrom
                   Q00  =  -0.683481

H          x = -1.935556  y =  1.983929  z = -0.117379 angstrom
           Maximum rank =  0   Radius =  0.325 angstrom
                   Q00  =   0.086623

H          x = -1.920556  y =  0.373929  z = -1.979379 angstrom
           Maximum rank =  0   Radius =  0.325 angstrom
                   Q00  =   0.066372

H          x = -1.886556  y = -1.293071  z =  2.641621 angstrom
           Maximum rank =  0   Radius =  0.325 angstrom
                   Q00  =   0.071641

H          x = -1.897556  y =  0.897929  z =  3.288621 angstrom
           Maximum rank =  0   Radius =  0.325 angstrom
                   Q00  =   0.408982

H          x = -1.737556  y = -3.359071  z = -1.514379 angstrom
           Maximum rank =  0   Radius =  0.325 angstrom
                   Q00  =   0.097575

H          x = -1.429556  y = -2.067071  z = -2.676379 angstrom
           Maximum rank =  0   Radius =  0.325 angstrom
                   Q00  =   0.098625

H          x = -1.988556  y = -2.904071  z =  0.795621 angstrom
           Maximum rank =  0   Radius =  0.325 angstrom
                   Q00  =   0.073368

H          x = -3.114946  y = -2.461571  z = -2.208857 angstrom
           Maximum rank =  0   Radius =  0.325 angstrom
                   Q00  =   0.101357

C          x =  1.512444  y = -0.183071  z = -2.227379 angstrom
           Maximum rank =  0   Radius =  0.650 angstrom
                   Q00  =  -0.201585

C          x =  1.709444  y =  0.635929  z =  0.226621 angstrom
           Maximum rank =  0   Radius =  0.650 angstrom
                   Q00  =   0.002508

C          x =  2.189444  y =  0.366929  z = -1.014379 angstrom
           Maximum rank =  0   Radius =  0.650 angstrom
                   Q00  =   0.214975

C          x =  3.865444  y =  1.072929  z =  0.216621 angstrom
           Maximum rank =  0   Radius =  0.650 angstrom
                   Q00  =   0.460377

N          x =  2.767444  y =  1.103929  z =  0.969621 angstrom
           Maximum rank =  0   Radius =  0.650 angstrom
                   Q00  =  -0.480099

N          x =  3.542444  y =  0.634929  z = -0.993379 angstrom
           Maximum rank =  0   Radius =  0.650 angstrom
                   Q00  =  -0.771435

H          x =  0.684444  y =  0.523929  z =  0.547621 angstrom
           Maximum rank =  0   Radius =  0.325 angstrom
                   Q00  =   0.112978

H          x =  2.714444  y =  1.478929  z =  1.910621 angstrom
           Maximum rank =  0   Radius =  0.325 angstrom
                   Q00  =   0.216820

H          x =  0.458444  y = -0.334071  z = -2.011379 angstrom
           Maximum rank =  0   Radius =  0.325 angstrom
                   Q00  =   0.103316

H          x =  1.944444  y = -1.158071  z = -2.450379 angstrom
           Maximum rank =  0   Radius =  0.325 angstrom
                   Q00  =   0.105523

H          x =  4.849444  y =  1.404929  z =  0.519621 angstrom
           Maximum rank =  0   Radius =  0.325 angstrom
                   Q00  =   0.120356

H          x =  1.618694  y =  0.463859  z = -3.110667 angstrom
           Maximum rank =  0   Radius =  0.325 angstrom
                   Q00  =   0.106311

Total multipoles referred to origin at
           x =   0.000000,  y =    0.000000,  z =    0.000000 angstrom
                   Q00  =  -0.000000

Finished at 12:55:38 on 28 Apr 2020

  DMA results are available in the Python driver through the
	  variable('DMA DISTRIBUTED MULTIPOLES')
  and
	  variable('DMA TOTAL MULTIPOLES')
  commands.

    Psi4 stopped on: Tuesday, 28 April 2020 12:55PM
    Psi4 wall time for execution: 0:14:02.94

*** Psi4 exiting successfully. Buy a developer a beer!
