                               Psi4 1.3.2 release

  ==> Input File <==

--------------------------------------------------------------------------
import numpy as np
set {scf_type pk
basis cc-pvdz
d_convergence 10
gdma_switch   0
gdma_limit    0
gdma_origin   [ 0.0,  0.0,  0.0 ]
}
molecule test {
    units Angstrom
    0 1
    --
    0 1
    C                0.241880146305314    -1.610379162777343    -1.369717552458795
    C                0.712880146305314    -2.290379162777343    -2.654717552458796
    H                0.404880146305314    -0.536379162777343    -1.442717552458795
    H               -0.823119853694686    -1.792379162777343    -1.218717552458795
    H                0.801880146305314    -2.007379162777343    -0.519717552458795
    H                0.185880146305314    -1.857379162777343    -3.502717552458796
    H                1.801680146305314    -2.231489162777343    -2.799797552458795
    H                0.451920146305315    -3.357679162777343    -2.602097552458796
    C               -0.382119853694686     1.180620837222657     0.760282447541205
    C                0.509880146305314     0.493620837222657     1.720282447541205
    C               -1.120119853694686     2.315620837222657     1.589282447541205
    H                0.350880146305314     1.460620837222657     0.008282447541205
    H               -1.107119853694685     0.506620837222657     0.304282447541205
    H                1.162880146305314     1.220620837222657     2.210282447541204
    H                1.153880146305315    -0.200379162777343     1.176282447541205
    H               -1.991119853694685     1.920620837222657     2.110282447541204
    H               -0.443119853694686     2.745620837222657     2.332282447541204
    H               -0.062299853694686    -0.068439162777343     2.473072447541205
    H               -1.439413853694685     3.136450837222657     0.930282447541204

}
e, wfn = energy('scf', return_wfn=True)
gdma(wfn)
dmavals = variable('DMA DISTRIBUTED MULTIPOLES')
charges = np.array(dmavals)
print(charges)
np.save('SSI-067LEU-078LYS-1-dimer.npy', np.array(charges))--------------------------------------------------------------------------

*** tstart() called on ds3
*** at Mon Apr 27 14:12:58 2020

   => Loading Basis Set <=

    Name: CC-PVDZ
    Role: ORBITAL
    Keyword: BASIS
    atoms 1-2, 9-11  entry C          line   138 file /theoryfs2/ds/metcalf/miniconda2/envs/tf2gpu/share/psi4/basis/cc-pvdz.gbs
    atoms 3-8, 12-19 entry H          line    22 file /theoryfs2/ds/metcalf/miniconda2/envs/tf2gpu/share/psi4/basis/cc-pvdz.gbs

         ---------------------------------------------------------
                                   SCF
               by Justin Turney, Rob Parrish, Andy Simmonett
                          and Daniel G. A. Smith
                              RHF Reference
                        1 Threads,    500 MiB Core
         ---------------------------------------------------------

  ==> Geometry <==

    Molecular point group: c1
    Full point group: C1

    Geometry (in Angstrom), charge = 0, multiplicity = 1:

       Center              X                  Y                   Z               Mass
    ------------   -----------------  -----------------  -----------------  -----------------
         C            0.241880146305    -1.610379162777    -1.369717552459    12.000000000000
         C            0.712880146305    -2.290379162777    -2.654717552459    12.000000000000
         H            0.404880146305    -0.536379162777    -1.442717552459     1.007825032230
         H           -0.823119853695    -1.792379162777    -1.218717552459     1.007825032230
         H            0.801880146305    -2.007379162777    -0.519717552459     1.007825032230
         H            0.185880146305    -1.857379162777    -3.502717552459     1.007825032230
         H            1.801680146305    -2.231489162777    -2.799797552459     1.007825032230
         H            0.451920146305    -3.357679162777    -2.602097552459     1.007825032230
         C           -0.382119853695     1.180620837223     0.760282447541    12.000000000000
         C            0.509880146305     0.493620837223     1.720282447541    12.000000000000
         C           -1.120119853695     2.315620837223     1.589282447541    12.000000000000
         H            0.350880146305     1.460620837223     0.008282447541     1.007825032230
         H           -1.107119853695     0.506620837223     0.304282447541     1.007825032230
         H            1.162880146305     1.220620837223     2.210282447541     1.007825032230
         H            1.153880146305    -0.200379162777     1.176282447541     1.007825032230
         H           -1.991119853695     1.920620837223     2.110282447541     1.007825032230
         H           -0.443119853695     2.745620837223     2.332282447541     1.007825032230
         H           -0.062299853695    -0.068439162777     2.473072447541     1.007825032230
         H           -1.439413853695     3.136450837223     0.930282447541     1.007825032230

  Running in c1 symmetry.

  Rotational constants: A =      0.33772  B =      0.03611  C =      0.03390 [cm^-1]
  Rotational constants: A =  10124.72722  B =   1082.69559  C =   1016.23643 [MHz]
  Nuclear repulsion =  178.423162689942956

  Charge       = 0
  Multiplicity = 1
  Electrons    = 44
  Nalpha       = 22
  Nbeta        = 22

  ==> Algorithm <==

  SCF Algorithm Type is PK.
  DIIS enabled.
  MOM disabled.
  Fractional occupation disabled.
  Guess Type is SAD.
  Energy threshold   = 1.00e-06
  Density threshold  = 1.00e-10
  Integral threshold = 0.00e+00

  ==> Primary Basis <==

  Basis Set: CC-PVDZ
    Blend: CC-PVDZ
    Number of shells: 72
    Number of basis function: 140
    Number of Cartesian functions: 145
    Spherical Harmonics?: true
    Max angular momentum: 2

  ==> Pre-Iterations <==

   -------------------------------------------------------
    Irrep   Nso     Nmo     Nalpha   Nbeta   Ndocc  Nsocc
   -------------------------------------------------------
     A        140     140       0       0       0       0
   -------------------------------------------------------
    Total     140     140      22      22      22       0
   -------------------------------------------------------

  ==> Integral Setup <==

  Using integral reordering PK algorithm.
  Sizing the integral batches needed.
  Building batch lookup table.
   Calculation information:
      Number of atoms:                  19
      Number of AO shells:              72
      Number of primitives:            180
      Number of atomic orbitals:       145
      Number of basis functions:       140

      Integral cutoff                 1.00e-12
      Number of threads:                 1

	Batch   1 pq = [       0,    9405] index = [             0,44231715] size =     44231715
	Batch   2 pq = [    9405,    9870] index = [      44231715,48713385] size =      4481670
  Task number: 5
  Buffer size: 11059200
  Buffer per thread: 2
  We computed 2806583 shell quartets total.
  Whereas there are 3454506 unique shell quartets.

  ==> DiskJK: Disk-Based J/K Matrices <==

    J tasked:                  Yes
    K tasked:                  Yes
    wK tasked:                  No
    Memory [MiB]:              375
    Schwarz Cutoff:          1E-12

    OpenMP threads:              1

  Minimum eigenvalue in the overlap matrix is 5.2622854858E-03.
  Using Symmetric Orthogonalization.

  SCF Guess: Superposition of Atomic Densities via on-the-fly atomic UHF.

  ==> Iterations <==

                        Total Energy        Delta E     RMS |[F,P]|

   @RHF iter SAD:  -196.40568585670425   -1.96406e+02   0.00000e+00
   @RHF iter   1:  -197.29684109139862   -8.91155e-01   3.81931e-03 DIIS
   @RHF iter   2:  -197.45736024524786   -1.60519e-01   1.65975e-03 DIIS
   @RHF iter   3:  -197.48636834175343   -2.90081e-02   3.28228e-04 DIIS
   @RHF iter   4:  -197.48861633880827   -2.24800e-03   4.83088e-05 DIIS
   @RHF iter   5:  -197.48865579271094   -3.94539e-05   1.49898e-05 DIIS
   @RHF iter   6:  -197.48865921571573   -3.42300e-06   2.65675e-06 DIIS
   @RHF iter   7:  -197.48865933951757   -1.23802e-07   4.69762e-07 DIIS
   @RHF iter   8:  -197.48865934423287   -4.71530e-09   1.06289e-07 DIIS
   @RHF iter   9:  -197.48865934447161   -2.38742e-10   3.52245e-08 DIIS
   @RHF iter  10:  -197.48865934449816   -2.65459e-11   8.11052e-09 DIIS
   @RHF iter  11:  -197.48865934449972   -1.56319e-12   1.64123e-09 DIIS
   @RHF iter  12:  -197.48865934449915    5.68434e-13   3.52185e-10 DIIS
   @RHF iter  13:  -197.48865934450009   -9.37916e-13   9.19176e-11 DIIS
  Energy and wave function converged.

  ==> Post-Iterations <==

    Orbital Energies [Eh]
    ---------------------

    Doubly Occupied:

       1A    -11.220294     2A    -11.219183     3A    -11.218934
       4A    -11.217752     5A    -11.209197     6A     -1.057667
       7A     -1.018782     8A     -0.917742     9A     -0.837947
      10A     -0.798425    11A     -0.628034    12A     -0.601871
      13A     -0.599903    14A     -0.592178    15A     -0.543029
      16A     -0.528585    17A     -0.503648    18A     -0.490223
      19A     -0.486105    20A     -0.480474    21A     -0.466366
      22A     -0.447191

    Virtual:

      23A      0.176011    24A      0.193624    25A      0.220230
      26A      0.221587    27A      0.229803    28A      0.247153
      29A      0.256260    30A      0.271242    31A      0.276010
      32A      0.286856    33A      0.303817    34A      0.307425
      35A      0.325209    36A      0.339492    37A      0.375788
      38A      0.404027    39A      0.422234    40A      0.571034
      41A      0.581465    42A      0.591018    43A      0.601661
      44A      0.606675    45A      0.616797    46A      0.648166
      47A      0.680111    48A      0.725441    49A      0.747202
      50A      0.793995    51A      0.835300    52A      0.839216
      53A      0.878688    54A      0.886927    55A      0.889428
      56A      0.895062    57A      0.896986    58A      0.902373
      59A      0.903421    60A      0.913686    61A      0.914494
      62A      0.920086    63A      0.930299    64A      0.952533
      65A      0.964265    66A      0.970085    67A      0.995993
      68A      1.013568    69A      1.114300    70A      1.132282
      71A      1.135446    72A      1.157072    73A      1.198249
      74A      1.257292    75A      1.396361    76A      1.409976
      77A      1.464485    78A      1.482134    79A      1.502735
      80A      1.550564    81A      1.585430    82A      1.650312
      83A      1.674530    84A      1.681964    85A      1.692414
      86A      1.703913    87A      1.712456    88A      1.808660
      89A      1.848954    90A      1.859555    91A      1.872275
      92A      1.884000    93A      1.909300    94A      1.913750
      95A      1.929993    96A      1.937756    97A      1.943823
      98A      1.950173    99A      1.955950   100A      1.959801
     101A      1.962768   102A      1.980594   103A      2.012209
     104A      2.030802   105A      2.051793   106A      2.059378
     107A      2.113828   108A      2.119555   109A      2.123220
     110A      2.144156   111A      2.166413   112A      2.284483
     113A      2.301384   114A      2.317428   115A      2.338957
     116A      2.351812   117A      2.384961   118A      2.445601
     119A      2.459111   120A      2.473527   121A      2.521866
     122A      2.552699   123A      2.562692   124A      2.580977
     125A      2.602896   126A      2.662177   127A      2.761296
     128A      2.765001   129A      2.779751   130A      2.790212
     131A      2.809532   132A      2.845454   133A      2.853689
     134A      2.864601   135A      2.880503   136A      2.924228
     137A      2.943167   138A      2.962043   139A      2.978393
     140A      3.073439

    Final Occupation by Irrep:
              A
    DOCC [    22 ]

  @RHF Final Energy:  -197.48865934450009

   => Energetics <=

    Nuclear Repulsion Energy =            178.4231626899429557
    One-Electron Energy =                -617.6565827132740196
    Two-Electron Energy =                 241.7447606788309713
    Total Energy =                       -197.4886593445000926

Computation Completed

Properties will be evaluated at   0.000000,   0.000000,   0.000000 [a0]

Properties computed using the SCF density matrix

  Nuclear Dipole Moment: [e a0]
     X:     0.4197      Y:    -0.9946      Z:    -0.5069

  Electronic Dipole Moment: [e a0]
     X:    -0.4224      Y:     0.9754      Z:     0.4749

  Dipole Moment: [e a0]
     X:    -0.0027      Y:    -0.0192      Z:    -0.0320     Total:     0.0374

  Dipole Moment: [D]
     X:    -0.0068      Y:    -0.0489      Z:    -0.0814     Total:     0.0952

*** tstop() called on ds3 at Mon Apr 27 14:13:18 2020
Module time:
	user time   =      14.70 seconds =       0.25 minutes
	system time =       6.25 seconds =       0.10 minutes
	total time  =         20 seconds =       0.33 minutes
Total time:
	user time   =      14.70 seconds =       0.25 minutes
	system time =       6.25 seconds =       0.10 minutes
	total time  =         20 seconds =       0.33 minutes
                                     G D M A

                                 by Anthony Stone

                           version 2.2.06, 22 June 2011

               Distributed Multipoles from Gaussian wavefunctions

Starting at 14:13:18 on 27 Apr 2020

Using SCF density matrix from file ./SSI/SSI-067LEU-078LYS-1-dimer.test.9017.fchk

                         Distributed Multipole Analysis

Standard DMA

Positions and radii in angstrom
Multipole moments in atomic units, ea_0^k for rank k

C          x =  0.241880  y = -1.610379  z = -1.369718 angstrom
           Maximum rank =  0   Radius =  0.650 angstrom
                   Q00  =  -0.240140

C          x =  0.712880  y = -2.290379  z = -2.654718 angstrom
           Maximum rank =  0   Radius =  0.650 angstrom
                   Q00  =  -0.237346

H          x =  0.404880  y = -0.536379  z = -1.442718 angstrom
           Maximum rank =  0   Radius =  0.325 angstrom
                   Q00  =   0.077842

H          x = -0.823120  y = -1.792379  z = -1.218718 angstrom
           Maximum rank =  0   Radius =  0.325 angstrom
                   Q00  =   0.081007

H          x =  0.801880  y = -2.007379  z = -0.519718 angstrom
           Maximum rank =  0   Radius =  0.325 angstrom
                   Q00  =   0.080699

H          x =  0.185880  y = -1.857379  z = -3.502718 angstrom
           Maximum rank =  0   Radius =  0.325 angstrom
                   Q00  =   0.080220

H          x =  1.801680  y = -2.231489  z = -2.799798 angstrom
           Maximum rank =  0   Radius =  0.325 angstrom
                   Q00  =   0.081670

H          x =  0.451920  y = -3.357679  z = -2.602098 angstrom
           Maximum rank =  0   Radius =  0.325 angstrom
                   Q00  =   0.075055

C          x = -0.382120  y =  1.180621  z =  0.760282 angstrom
           Maximum rank =  0   Radius =  0.650 angstrom
                   Q00  =  -0.134693

C          x =  0.509880  y =  0.493621  z =  1.720282 angstrom
           Maximum rank =  0   Radius =  0.650 angstrom
                   Q00  =  -0.190011

C          x = -1.120120  y =  2.315621  z =  1.589282 angstrom
           Maximum rank =  0   Radius =  0.650 angstrom
                   Q00  =  -0.246698

H          x =  0.350880  y =  1.460621  z =  0.008282 angstrom
           Maximum rank =  0   Radius =  0.325 angstrom
                   Q00  =   0.050271

H          x = -1.107120  y =  0.506621  z =  0.304282 angstrom
           Maximum rank =  0   Radius =  0.325 angstrom
                   Q00  =   0.059518

H          x =  1.162880  y =  1.220621  z =  2.210282 angstrom
           Maximum rank =  0   Radius =  0.325 angstrom
                   Q00  =   0.069184

H          x =  1.153880  y = -0.200379  z =  1.176282 angstrom
           Maximum rank =  0   Radius =  0.325 angstrom
                   Q00  =   0.075260

H          x = -1.991120  y =  1.920621  z =  2.110282 angstrom
           Maximum rank =  0   Radius =  0.325 angstrom
                   Q00  =   0.090527

H          x = -0.443120  y =  2.745621  z =  2.332282 angstrom
           Maximum rank =  0   Radius =  0.325 angstrom
                   Q00  =   0.077034

H          x = -0.062300  y = -0.068439  z =  2.473072 angstrom
           Maximum rank =  0   Radius =  0.325 angstrom
                   Q00  =   0.066079

H          x = -1.439414  y =  3.136451  z =  0.930282 angstrom
           Maximum rank =  0   Radius =  0.325 angstrom
                   Q00  =   0.084519

Total multipoles referred to origin at
           x =   0.000000,  y =    0.000000,  z =    0.000000 angstrom
                   Q00  =  -0.000000

Finished at 14:13:18 on 27 Apr 2020

  DMA results are available in the Python driver through the
	  variable('DMA DISTRIBUTED MULTIPOLES')
  and
	  variable('DMA TOTAL MULTIPOLES')
  commands.

    Psi4 stopped on: Monday, 27 April 2020 02:13PM
    Psi4 wall time for execution: 0:00:20.51

*** Psi4 exiting successfully. Buy a developer a beer!
