                               Psi4 1.3.2 release

  ==> Input File <==

--------------------------------------------------------------------------
import numpy as np
set {scf_type pk
basis cc-pvdz
d_convergence 10
gdma_switch   0
gdma_limit    0
gdma_origin   [ 0.0,  0.0,  0.0 ]
}
molecule test {
    units Angstrom
    -1 1
    --
    -1 1
    C                1.764157185717039    -2.255178983803682    -2.941307778228900
    C               -0.598842814282960    -2.006178983803682    -0.198307778228900
    C                0.764157185717039    -0.598178983803682    -1.193307778228901
    C                0.895157185717040    -1.808178983803682    -1.801307778228900
    N               -0.171842814282961    -0.749178983803682    -0.199307778228900
    N                0.025157185717040    -2.671178983803682    -1.167307778228901
    H               -0.510842814282961    -0.010178983803682     0.421692221771100
    H               -1.349842814282960    -2.413178983803683     0.470692221771100
    H                1.273157185717040     0.312821016196318    -1.442307778228900
    H                1.197157185717040    -2.947178983803682    -3.550307778228900
    H                2.620157185717039    -2.799178983803682    -2.541307778228901
    H                2.100347185717039    -1.437248983803682    -3.595502778228900
    C               -1.220842814282960     3.650821016196317     1.591692221771100
    C               -0.589842814282961     2.259821016196317     1.765692221771100
    O               -1.182842814282960     1.300821016196318     1.232692221771100
    O                0.481157185717039     2.092821016196318     2.400692221771100
    H               -2.246842814282961     3.608821016196318     1.960692221771100
    H               -1.275842814282961     3.904821016196318     0.531692221771100
    H               -0.705932814282961     4.458941016196317     2.131882221771099

}
e, wfn = energy('scf', return_wfn=True)
gdma(wfn)
dmavals = variable('DMA DISTRIBUTED MULTIPOLES')
charges = np.array(dmavals)
print(charges)
np.save('SSI-083HIE-086GLU-1-dimer.npy', np.array(charges))--------------------------------------------------------------------------

*** tstart() called on ds3
*** at Mon Apr 27 07:48:30 2020

   => Loading Basis Set <=

    Name: CC-PVDZ
    Role: ORBITAL
    Keyword: BASIS
    atoms 1-4, 13-14  entry C          line   138 file /theoryfs2/ds/metcalf/miniconda2/envs/tf2gpu/share/psi4/basis/cc-pvdz.gbs
    atoms 5-6         entry N          line   168 file /theoryfs2/ds/metcalf/miniconda2/envs/tf2gpu/share/psi4/basis/cc-pvdz.gbs
    atoms 7-12, 17-19 entry H          line    22 file /theoryfs2/ds/metcalf/miniconda2/envs/tf2gpu/share/psi4/basis/cc-pvdz.gbs
    atoms 15-16       entry O          line   198 file /theoryfs2/ds/metcalf/miniconda2/envs/tf2gpu/share/psi4/basis/cc-pvdz.gbs

         ---------------------------------------------------------
                                   SCF
               by Justin Turney, Rob Parrish, Andy Simmonett
                          and Daniel G. A. Smith
                              RHF Reference
                        1 Threads,    500 MiB Core
         ---------------------------------------------------------

  ==> Geometry <==

    Molecular point group: c1
    Full point group: C1

    Geometry (in Angstrom), charge = -1, multiplicity = 1:

       Center              X                  Y                   Z               Mass
    ------------   -----------------  -----------------  -----------------  -----------------
         C            1.764157185717    -2.255178983804    -2.941307778229    12.000000000000
         C           -0.598842814283    -2.006178983804    -0.198307778229    12.000000000000
         C            0.764157185717    -0.598178983804    -1.193307778229    12.000000000000
         C            0.895157185717    -1.808178983804    -1.801307778229    12.000000000000
         N           -0.171842814283    -0.749178983804    -0.199307778229    14.003074004430
         N            0.025157185717    -2.671178983804    -1.167307778229    14.003074004430
         H           -0.510842814283    -0.010178983804     0.421692221771     1.007825032230
         H           -1.349842814283    -2.413178983804     0.470692221771     1.007825032230
         H            1.273157185717     0.312821016196    -1.442307778229     1.007825032230
         H            1.197157185717    -2.947178983804    -3.550307778229     1.007825032230
         H            2.620157185717    -2.799178983804    -2.541307778229     1.007825032230
         H            2.100347185717    -1.437248983804    -3.595502778229     1.007825032230
         C           -1.220842814283     3.650821016196     1.591692221771    12.000000000000
         C           -0.589842814283     2.259821016196     1.765692221771    12.000000000000
         O           -1.182842814283     1.300821016196     1.232692221771    15.994914619570
         O            0.481157185717     2.092821016196     2.400692221771    15.994914619570
         H           -2.246842814283     3.608821016196     1.960692221771     1.007825032230
         H           -1.275842814283     3.904821016196     0.531692221771     1.007825032230
         H           -0.705932814283     4.458941016196     2.131882221771     1.007825032230

  Running in c1 symmetry.

  Rotational constants: A =      0.11495  B =      0.01548  C =      0.01472 [cm^-1]
  Rotational constants: A =   3446.12547  B =    464.05963  C =    441.22416 [MHz]
  Nuclear repulsion =  482.121908349751720

  Charge       = -1
  Multiplicity = 1
  Electrons    = 76
  Nalpha       = 38
  Nbeta        = 38

  ==> Algorithm <==

  SCF Algorithm Type is PK.
  DIIS enabled.
  MOM disabled.
  Fractional occupation disabled.
  Guess Type is SAD.
  Energy threshold   = 1.00e-06
  Density threshold  = 1.00e-10
  Integral threshold = 0.00e+00

  ==> Primary Basis <==

  Basis Set: CC-PVDZ
    Blend: CC-PVDZ
    Number of shells: 87
    Number of basis function: 185
    Number of Cartesian functions: 195
    Spherical Harmonics?: true
    Max angular momentum: 2

  ==> Pre-Iterations <==

   -------------------------------------------------------
    Irrep   Nso     Nmo     Nalpha   Nbeta   Ndocc  Nsocc
   -------------------------------------------------------
     A        185     185       0       0       0       0
   -------------------------------------------------------
    Total     185     185      38      38      38       0
   -------------------------------------------------------

  ==> Integral Setup <==

  Using integral reordering PK algorithm.
  Sizing the integral batches needed.
  Building batch lookup table.
   Calculation information:
      Number of atoms:                  19
      Number of AO shells:              87
      Number of primitives:            265
      Number of atomic orbitals:       195
      Number of basis functions:       185

      Integral cutoff                 1.00e-12
      Number of threads:                 1

	Batch   1 pq = [       0,    9405] index = [             0,44231715] size =     44231715
	Batch   2 pq = [    9405,   13301] index = [      44231715,88464951] size =     44233236
	Batch   3 pq = [   13301,   16290] index = [      88464951,132690195] size =     44225244
	Batch   4 pq = [   16290,   17205] index = [     132690195,148014615] size =     15324420
  Task number: 14
  Buffer size: 11059200
  Buffer per thread: 2
  We computed 5071876 shell quartets total.
  Whereas there are 7328706 unique shell quartets.

  ==> DiskJK: Disk-Based J/K Matrices <==

    J tasked:                  Yes
    K tasked:                  Yes
    wK tasked:                  No
    Memory [MiB]:              375
    Schwarz Cutoff:          1E-12

    OpenMP threads:              1

  Minimum eigenvalue in the overlap matrix is 1.1668344083E-03.
  Using Symmetric Orthogonalization.

  SCF Guess: Superposition of Atomic Densities via on-the-fly atomic UHF.

  ==> Iterations <==

                        Total Energy        Delta E     RMS |[F,P]|

   @RHF iter SAD:  -489.76453326933904   -4.89765e+02   0.00000e+00
   @RHF iter   1:  -490.85599494224891   -1.09146e+00   4.10955e-03 DIIS
   @RHF iter   2:  -491.07868519610457   -2.22690e-01   2.31095e-03 DIIS
   @RHF iter   3:  -491.14677936354377   -6.80942e-02   3.91242e-04 DIIS
   @RHF iter   4:  -491.15006903127664   -3.28967e-03   1.53867e-04 DIIS
   @RHF iter   5:  -491.15056767134888   -4.98640e-04   3.36667e-05 DIIS
   @RHF iter   6:  -491.15059365178314   -2.59804e-05   1.42124e-05 DIIS
   @RHF iter   7:  -491.15059890355803   -5.25177e-06   3.72765e-06 DIIS
   @RHF iter   8:  -491.15059978810325   -8.84545e-07   1.97050e-06 DIIS
   @RHF iter   9:  -491.15060001800907   -2.29906e-07   7.59820e-07 DIIS
   @RHF iter  10:  -491.15060005829406   -4.02850e-08   2.05263e-07 DIIS
   @RHF iter  11:  -491.15060006075953   -2.46547e-09   6.37498e-08 DIIS
   @RHF iter  12:  -491.15060006089590   -1.36367e-10   3.35632e-08 DIIS
   @RHF iter  13:  -491.15060006092779   -3.18892e-11   1.10140e-08 DIIS
   @RHF iter  14:  -491.15060006093211   -4.32010e-12   4.61529e-09 DIIS
   @RHF iter  15:  -491.15060006093540   -3.29692e-12   1.51417e-09 DIIS
   @RHF iter  16:  -491.15060006093330    2.10321e-12   6.75682e-10 DIIS
   @RHF iter  17:  -491.15060006093347   -1.70530e-13   2.22210e-10 DIIS
   @RHF iter  18:  -491.15060006093336    1.13687e-13   6.26864e-11 DIIS
  Energy and wave function converged.

  ==> Post-Iterations <==

    Orbital Energies [Eh]
    ---------------------

    Doubly Occupied:

       1A    -20.300693     2A    -20.290791     3A    -15.453028
       4A    -15.395610     5A    -11.153729     6A    -11.152616
       7A    -11.121151     8A    -11.114245     9A    -11.112048
      10A    -11.078298    11A     -1.195948    12A     -1.188156
      13A     -1.070560    14A     -1.009378    15A     -0.904838
      16A     -0.822141    17A     -0.818938    18A     -0.671409
      19A     -0.626007    20A     -0.604840    21A     -0.535499
      22A     -0.480223    23A     -0.476161    24A     -0.460136
      25A     -0.441024    26A     -0.436089    27A     -0.435660
      28A     -0.429597    29A     -0.418516    30A     -0.407077
      31A     -0.371788    32A     -0.338825    33A     -0.282455
      34A     -0.237595    35A     -0.223642    36A     -0.205064
      37A     -0.198395    38A     -0.176905

    Virtual:

      39A      0.299397    40A      0.326975    41A      0.331512
      42A      0.339049    43A      0.340271    44A      0.352004
      45A      0.371962    46A      0.377027    47A      0.395056
      48A      0.406696    49A      0.452225    50A      0.471641
      51A      0.490156    52A      0.527659    53A      0.546239
      54A      0.595874    55A      0.607399    56A      0.619448
      57A      0.668953    58A      0.729618    59A      0.738732
      60A      0.744874    61A      0.755727    62A      0.790424
      63A      0.795335    64A      0.826209    65A      0.837345
      66A      0.850320    67A      0.878660    68A      0.890785
      69A      0.908580    70A      0.924323    71A      0.934135
      72A      0.956494    73A      0.961673    74A      0.980029
      75A      0.988199    76A      1.005097    77A      1.009806
      78A      1.013172    79A      1.024993    80A      1.032630
      81A      1.051843    82A      1.072916    83A      1.084616
      84A      1.101520    85A      1.112944    86A      1.190653
      87A      1.199731    88A      1.209876    89A      1.220288
      90A      1.247094    91A      1.263382    92A      1.272170
      93A      1.293797    94A      1.316860    95A      1.335661
      96A      1.373356    97A      1.404300    98A      1.432470
      99A      1.436572   100A      1.465566   101A      1.500492
     102A      1.525502   103A      1.544112   104A      1.556830
     105A      1.569423   106A      1.579289   107A      1.587035
     108A      1.606970   109A      1.637664   110A      1.650898
     111A      1.688891   112A      1.730807   113A      1.752671
     114A      1.756433   115A      1.794959   116A      1.820034
     117A      1.824758   118A      1.833124   119A      1.895017
     120A      1.917286   121A      1.940769   122A      1.969606
     123A      1.981459   124A      2.019653   125A      2.024689
     126A      2.041585   127A      2.053421   128A      2.065105
     129A      2.074157   130A      2.085379   131A      2.105030
     132A      2.117086   133A      2.139543   134A      2.172923
     135A      2.176437   136A      2.195776   137A      2.243083
     138A      2.245340   139A      2.267231   140A      2.310277
     141A      2.328999   142A      2.347933   143A      2.360313
     144A      2.398252   145A      2.408586   146A      2.466717
     147A      2.493880   148A      2.511332   149A      2.541353
     150A      2.584093   151A      2.606054   152A      2.614184
     153A      2.670219   154A      2.676725   155A      2.730828
     156A      2.753903   157A      2.767989   158A      2.826032
     159A      2.836072   160A      2.881752   161A      2.887314
     162A      2.902044   163A      2.939671   164A      2.945797
     165A      2.957208   166A      2.965978   167A      2.993429
     168A      3.030504   169A      3.041751   170A      3.087344
     171A      3.218427   172A      3.227121   173A      3.249315
     174A      3.304643   175A      3.336476   176A      3.369753
     177A      3.419722   178A      3.603640   179A      3.620075
     180A      3.728569   181A      3.774753   182A      4.013608
     183A      4.034086   184A      4.070646   185A      4.192735

    Final Occupation by Irrep:
              A
    DOCC [    38 ]

  @RHF Final Energy:  -491.15060006093336

   => Energetics <=

    Nuclear Repulsion Energy =            482.1219083497517204
    One-Electron Energy =               -1639.2668683766607955
    Two-Electron Energy =                 665.9943599659757183
    Total Energy =                       -491.1506000609333569

Computation Completed

Properties will be evaluated at   0.000000,   0.000000,   0.000000 [a0]

Properties computed using the SCF density matrix

  Nuclear Dipole Moment: [e a0]
     X:     1.0297      Y:     2.5372      Z:    -5.2404

  Electronic Dipole Moment: [e a0]
     X:    -0.9774      Y:    -3.2293      Z:     3.2799

  Dipole Moment: [e a0]
     X:     0.0523      Y:    -0.6921      Z:    -1.9605     Total:     2.0797

  Dipole Moment: [D]
     X:     0.1330      Y:    -1.7591      Z:    -4.9831     Total:     5.2861

*** tstop() called on ds3 at Mon Apr 27 07:49:54 2020
Module time:
	user time   =      47.37 seconds =       0.79 minutes
	system time =      24.90 seconds =       0.41 minutes
	total time  =         84 seconds =       1.40 minutes
Total time:
	user time   =      47.37 seconds =       0.79 minutes
	system time =      24.90 seconds =       0.41 minutes
	total time  =         84 seconds =       1.40 minutes
                                     G D M A

                                 by Anthony Stone

                           version 2.2.06, 22 June 2011

               Distributed Multipoles from Gaussian wavefunctions

Starting at 7:49:54 on 27 Apr 2020

Using SCF density matrix from file ./SSI/SSI-083HIE-086GLU-1-dimer.test.32686.fchk

                         Distributed Multipole Analysis

Standard DMA

Positions and radii in angstrom
Multipole moments in atomic units, ea_0^k for rank k

C          x =  1.764157  y = -2.255179  z = -2.941308 angstrom
           Maximum rank =  0   Radius =  0.650 angstrom
                   Q00  =  -0.194218

C          x = -0.598843  y = -2.006179  z = -0.198308 angstrom
           Maximum rank =  0   Radius =  0.650 angstrom
                   Q00  =   0.476325

C          x =  0.764157  y = -0.598179  z = -1.193308 angstrom
           Maximum rank =  0   Radius =  0.650 angstrom
                   Q00  =   0.068025

C          x =  0.895157  y = -1.808179  z = -1.801308 angstrom
           Maximum rank =  0   Radius =  0.650 angstrom
                   Q00  =   0.164069

N          x = -0.171843  y = -0.749179  z = -0.199308 angstrom
           Maximum rank =  0   Radius =  0.650 angstrom
                   Q00  =  -0.530585

N          x =  0.025157  y = -2.671179  z = -1.167308 angstrom
           Maximum rank =  0   Radius =  0.650 angstrom
                   Q00  =  -0.801364

H          x = -0.510843  y = -0.010179  z =  0.421692 angstrom
           Maximum rank =  0   Radius =  0.325 angstrom
                   Q00  =   0.363009

H          x = -1.349843  y = -2.413179  z =  0.470692 angstrom
           Maximum rank =  0   Radius =  0.325 angstrom
                   Q00  =   0.105412

H          x =  1.273157  y =  0.312821  z = -1.442308 angstrom
           Maximum rank =  0   Radius =  0.325 angstrom
                   Q00  =   0.074224

H          x =  1.197157  y = -2.947179  z = -3.550308 angstrom
           Maximum rank =  0   Radius =  0.325 angstrom
                   Q00  =   0.094942

H          x =  2.620157  y = -2.799179  z = -2.541308 angstrom
           Maximum rank =  0   Radius =  0.325 angstrom
                   Q00  =   0.085857

H          x =  2.100347  y = -1.437249  z = -3.595503 angstrom
           Maximum rank =  0   Radius =  0.325 angstrom
                   Q00  =   0.078738

C          x = -1.220843  y =  3.650821  z =  1.591692 angstrom
           Maximum rank =  0   Radius =  0.650 angstrom
                   Q00  =  -0.278569

C          x = -0.589843  y =  2.259821  z =  1.765692 angstrom
           Maximum rank =  0   Radius =  0.650 angstrom
                   Q00  =   0.943772

O          x = -1.182843  y =  1.300821  z =  1.232692 angstrom
           Maximum rank =  0   Radius =  0.650 angstrom
                   Q00  =  -0.967953

O          x =  0.481157  y =  2.092821  z =  2.400692 angstrom
           Maximum rank =  0   Radius =  0.650 angstrom
                   Q00  =  -0.900509

H          x = -2.246843  y =  3.608821  z =  1.960692 angstrom
           Maximum rank =  0   Radius =  0.325 angstrom
                   Q00  =   0.077717

H          x = -1.275843  y =  3.904821  z =  0.531692 angstrom
           Maximum rank =  0   Radius =  0.325 angstrom
                   Q00  =   0.081464

H          x = -0.705933  y =  4.458941  z =  2.131882 angstrom
           Maximum rank =  0   Radius =  0.325 angstrom
                   Q00  =   0.059643

Total multipoles referred to origin at
           x =   0.000000,  y =    0.000000,  z =    0.000000 angstrom
                   Q00  =  -1.000000

Finished at 7:49:54 on 27 Apr 2020

  DMA results are available in the Python driver through the
	  variable('DMA DISTRIBUTED MULTIPOLES')
  and
	  variable('DMA TOTAL MULTIPOLES')
  commands.

    Psi4 stopped on: Monday, 27 April 2020 07:49AM
    Psi4 wall time for execution: 0:01:24.64

*** Psi4 exiting successfully. Buy a developer a beer!
