                               Psi4 1.3.2 release

  ==> Input File <==

--------------------------------------------------------------------------
import numpy as np
set {scf_type pk
basis cc-pvdz
d_convergence 10
gdma_switch   0
gdma_limit    0
gdma_origin   [ 0.0,  0.0,  0.0 ]
}
molecule test {
    units Angstrom
    0 1
    --
    0 1
    C                0.356553917011988    -2.514391300500839    -1.912012177240172
    C                0.817553917011988    -3.454391300500839    -3.012012177240172
    H               -0.704446082988012    -2.289391300500839    -2.024012177240171
    H                0.521553917011988    -2.971391300501839    -0.938012177240172
    H                0.922553917011988    -1.582391300500839    -1.960012177240172
    H                1.877553917011988    -3.643391300500839    -2.887012177240172
    H                0.646023917011988    -3.013521300500839    -4.005094177240172
    H                0.266263917011988    -4.404571300500840    -2.955133177240172
    C                2.018553917011988     1.853608699499161     1.387987822759828
    C               -0.859446082988012    -0.551391300500839     0.769987822759828
    C                0.407553917011988    -0.044391300500839     1.078987822759828
    C               -1.867446082988012     0.296608699499161     0.374987822759828
    C                0.662553917011988     1.318608699498161     1.013987822759828
    C               -1.622446082988012     1.664608699499161     0.293987822759828
    C               -0.361446082988012     2.171608699499161     0.631987822759828
    H               -1.040446082988012    -1.610391300500839     0.843987822759828
    H                1.187553917011988    -0.725391300500839     1.386987822759828
    H               -2.844446082988012    -0.095391300500839     0.130987822759828
    H               -2.415446082988013     2.329608699499161    -0.018012177240172
    H                2.112553917011988     2.892608699499161     1.077987822759828
    H                2.765553917011988     1.278608699499161     0.842987822759828
    H               -0.171446082988012     3.227608699499161     0.558987822759828
    H                2.211053917011987     1.790648699498161     2.469177822759828

}
e, wfn = energy('scf', return_wfn=True)
gdma(wfn)
dmavals = variable('DMA DISTRIBUTED MULTIPOLES')
charges = np.array(dmavals)
print(charges)
np.save('SSI-012ALA-108PHE-1-dimer.npy', np.array(charges))--------------------------------------------------------------------------

*** tstart() called on ds3
*** at Tue Apr 28 12:55:57 2020

   => Loading Basis Set <=

    Name: CC-PVDZ
    Role: ORBITAL
    Keyword: BASIS
    atoms 1-2, 9-15  entry C          line   138 file /theoryfs2/ds/metcalf/miniconda2/envs/tf2gpu/share/psi4/basis/cc-pvdz.gbs
    atoms 3-8, 16-23 entry H          line    22 file /theoryfs2/ds/metcalf/miniconda2/envs/tf2gpu/share/psi4/basis/cc-pvdz.gbs

         ---------------------------------------------------------
                                   SCF
               by Justin Turney, Rob Parrish, Andy Simmonett
                          and Daniel G. A. Smith
                              RHF Reference
                        1 Threads,    500 MiB Core
         ---------------------------------------------------------

  ==> Geometry <==

    Molecular point group: c1
    Full point group: C1

    Geometry (in Angstrom), charge = 0, multiplicity = 1:

       Center              X                  Y                   Z               Mass
    ------------   -----------------  -----------------  -----------------  -----------------
         C            0.356553917012    -2.514391300501    -1.912012177240    12.000000000000
         C            0.817553917012    -3.454391300501    -3.012012177240    12.000000000000
         H           -0.704446082988    -2.289391300501    -2.024012177240     1.007825032230
         H            0.521553917012    -2.971391300502    -0.938012177240     1.007825032230
         H            0.922553917012    -1.582391300501    -1.960012177240     1.007825032230
         H            1.877553917012    -3.643391300501    -2.887012177240     1.007825032230
         H            0.646023917012    -3.013521300501    -4.005094177240     1.007825032230
         H            0.266263917012    -4.404571300501    -2.955133177240     1.007825032230
         C            2.018553917012     1.853608699499     1.387987822760    12.000000000000
         C           -0.859446082988    -0.551391300501     0.769987822760    12.000000000000
         C            0.407553917012    -0.044391300501     1.078987822760    12.000000000000
         C           -1.867446082988     0.296608699499     0.374987822760    12.000000000000
         C            0.662553917012     1.318608699498     1.013987822760    12.000000000000
         C           -1.622446082988     1.664608699499     0.293987822760    12.000000000000
         C           -0.361446082988     2.171608699499     0.631987822760    12.000000000000
         H           -1.040446082988    -1.610391300501     0.843987822760     1.007825032230
         H            1.187553917012    -0.725391300501     1.386987822760     1.007825032230
         H           -2.844446082988    -0.095391300501     0.130987822760     1.007825032230
         H           -2.415446082988     2.329608699499    -0.018012177240     1.007825032230
         H            2.112553917012     2.892608699499     1.077987822760     1.007825032230
         H            2.765553917012     1.278608699499     0.842987822760     1.007825032230
         H           -0.171446082988     3.227608699499     0.558987822760     1.007825032230
         H            2.211053917012     1.790648699498     2.469177822760     1.007825032230

  Running in c1 symmetry.

  Rotational constants: A =      0.07112  B =      0.02280  C =      0.01925 [cm^-1]
  Rotational constants: A =   2132.01972  B =    683.65703  C =    577.13377 [MHz]
  Nuclear repulsion =  403.658392081222985

  Charge       = 0
  Multiplicity = 1
  Electrons    = 68
  Nalpha       = 34
  Nbeta        = 34

  ==> Algorithm <==

  SCF Algorithm Type is PK.
  DIIS enabled.
  MOM disabled.
  Fractional occupation disabled.
  Guess Type is SAD.
  Energy threshold   = 1.00e-06
  Density threshold  = 1.00e-10
  Integral threshold = 0.00e+00

  ==> Primary Basis <==

  Basis Set: CC-PVDZ
    Blend: CC-PVDZ
    Number of shells: 96
    Number of basis function: 196
    Number of Cartesian functions: 205
    Spherical Harmonics?: true
    Max angular momentum: 2

  ==> Pre-Iterations <==

   -------------------------------------------------------
    Irrep   Nso     Nmo     Nalpha   Nbeta   Ndocc  Nsocc
   -------------------------------------------------------
     A        196     196       0       0       0       0
   -------------------------------------------------------
    Total     196     196      34      34      34       0
   -------------------------------------------------------

  ==> Integral Setup <==

  Using integral reordering PK algorithm.
  Sizing the integral batches needed.
  Building batch lookup table.
   Calculation information:
      Number of atoms:                  23
      Number of AO shells:              96
      Number of primitives:            268
      Number of atomic orbitals:       205
      Number of basis functions:       196

      Integral cutoff                 1.00e-12
      Number of threads:                 1

	Batch   1 pq = [       0,    9405] index = [             0,44231715] size =     44231715
	Batch   2 pq = [    9405,   13301] index = [      44231715,88464951] size =     44233236
	Batch   3 pq = [   13301,   16290] index = [      88464951,132690195] size =     44225244
	Batch   4 pq = [   16290,   18810] index = [     132690195,176917455] size =     44227260
	Batch   5 pq = [   18810,   19306] index = [     176917455,186370471] size =      9453016
  Task number: 17
  Buffer size: 11059200
  Buffer per thread: 2
  We computed 8951027 shell quartets total.
  Whereas there are 10841496 unique shell quartets.

  ==> DiskJK: Disk-Based J/K Matrices <==

    J tasked:                  Yes
    K tasked:                  Yes
    wK tasked:                  No
    Memory [MiB]:              375
    Schwarz Cutoff:          1E-12

    OpenMP threads:              1

  Minimum eigenvalue in the overlap matrix is 3.0642580874E-04.
  Using Symmetric Orthogonalization.

  SCF Guess: Superposition of Atomic Densities via on-the-fly atomic UHF.

  ==> Iterations <==

                        Total Energy        Delta E     RMS |[F,P]|

   @RHF iter SAD:  -347.91215989532350   -3.47912e+02   0.00000e+00
   @RHF iter   1:  -348.76582254801411   -8.53663e-01   2.91303e-03 DIIS
   @RHF iter   2:  -348.96012964941519   -1.94307e-01   1.21120e-03 DIIS
   @RHF iter   3:  -348.99075081245689   -3.06212e-02   2.59194e-04 DIIS
   @RHF iter   4:  -348.99323169836123   -2.48089e-03   5.38909e-05 DIIS
   @RHF iter   5:  -348.99330689990256   -7.52015e-05   1.81725e-05 DIIS
   @RHF iter   6:  -348.99331490239376   -8.00249e-06   4.87505e-06 DIIS
   @RHF iter   7:  -348.99331556479274   -6.62399e-07   1.21352e-06 DIIS
   @RHF iter   8:  -348.99331560807303   -4.32803e-08   2.61618e-07 DIIS
   @RHF iter   9:  -348.99331561111313   -3.04010e-09   9.12331e-08 DIIS
   @RHF iter  10:  -348.99331561152184   -4.08704e-10   3.85341e-08 DIIS
   @RHF iter  11:  -348.99331561162296   -1.01124e-10   1.50102e-08 DIIS
   @RHF iter  12:  -348.99331561164632   -2.33626e-11   7.77540e-09 DIIS
   @RHF iter  13:  -348.99331561165201   -5.68434e-12   3.77155e-09 DIIS
   @RHF iter  14:  -348.99331561165127    7.38964e-13   1.01794e-09 DIIS
   @RHF iter  15:  -348.99331561165138   -1.13687e-13   3.15266e-10 DIIS
   @RHF iter  16:  -348.99331561165252   -1.13687e-12   7.48378e-11 DIIS
  Energy and wave function converged.

  ==> Post-Iterations <==

    Orbital Energies [Eh]
    ---------------------

    Doubly Occupied:

       1A    -11.238035     2A    -11.235163     3A    -11.232467
       4A    -11.228952     5A    -11.228739     6A    -11.228378
       7A    -11.228150     8A    -11.214705     9A    -11.211635
      10A     -1.153172    11A     -1.046309    12A     -1.017269
      13A     -1.008296    14A     -0.931960    15A     -0.832974
      16A     -0.826313    17A     -0.793293    18A     -0.691003
      19A     -0.631084    20A     -0.629171    21A     -0.597188
      22A     -0.593715    23A     -0.579778    24A     -0.578140
      25A     -0.563654    26A     -0.535329    27A     -0.501170
      28A     -0.486153    29A     -0.484385    30A     -0.482412
      31A     -0.480576    32A     -0.478518    33A     -0.329090
      34A     -0.323350

    Virtual:

      35A      0.133878    36A      0.145943    37A      0.174897
      38A      0.194565    39A      0.202280    40A      0.214094
      41A      0.234235    42A      0.247537    43A      0.253864
      44A      0.265720    45A      0.268868    46A      0.271631
      47A      0.283243    48A      0.291178    49A      0.296031
      50A      0.309982    51A      0.367104    52A      0.378260
      53A      0.402998    54A      0.452738    55A      0.465878
      56A      0.475545    57A      0.502844    58A      0.565560
      59A      0.575092    60A      0.600986    61A      0.606209
      62A      0.607736    63A      0.632043    64A      0.670649
      65A      0.682411    66A      0.690702    67A      0.701345
      68A      0.706844    69A      0.723264    70A      0.743146
      71A      0.746799    72A      0.752302    73A      0.759934
      74A      0.779256    75A      0.783888    76A      0.791940
      77A      0.826514    78A      0.846040    79A      0.861640
      80A      0.870987    81A      0.886343    82A      0.894112
      83A      0.894616    84A      0.899111    85A      0.904796
      86A      0.911343    87A      0.920403    88A      0.921529
      89A      0.925591    90A      0.934888    91A      0.945932
      92A      0.961268    93A      0.991626    94A      0.996032
      95A      1.026284    96A      1.058407    97A      1.124170
      98A      1.129807    99A      1.133271   100A      1.140434
     101A      1.155024   102A      1.158806   103A      1.194542
     104A      1.219640   105A      1.231286   106A      1.251521
     107A      1.254368   108A      1.295588   109A      1.299340
     110A      1.308067   111A      1.328277   112A      1.347472
     113A      1.418844   114A      1.476002   115A      1.483882
     116A      1.514673   117A      1.526650   118A      1.560209
     119A      1.584080   120A      1.607229   121A      1.674060
     122A      1.685469   123A      1.688775   124A      1.699036
     125A      1.738401   126A      1.741181   127A      1.775907
     128A      1.794062   129A      1.814755   130A      1.854508
     131A      1.867292   132A      1.869192   133A      1.895506
     134A      1.904298   135A      1.905686   136A      1.918720
     137A      1.922821   138A      1.926510   139A      1.945409
     140A      1.950553   141A      1.952565   142A      1.955399
     143A      1.963633   144A      1.970734   145A      1.981027
     146A      1.981845   147A      2.011094   148A      2.031117
     149A      2.049577   150A      2.056536   151A      2.087589
     152A      2.101307   153A      2.111607   154A      2.112034
     155A      2.133483   156A      2.157075   157A      2.168730
     158A      2.185027   159A      2.197169   160A      2.250501
     161A      2.279138   162A      2.290657   163A      2.299376
     164A      2.312450   165A      2.320411   166A      2.345766
     167A      2.370457   168A      2.457434   169A      2.463209
     170A      2.466754   171A      2.478979   172A      2.517052
     173A      2.538727   174A      2.564216   175A      2.575981
     176A      2.635464   177A      2.737230   178A      2.757050
     179A      2.770225   180A      2.773988   181A      2.788635
     182A      2.800890   183A      2.821358   184A      2.845538
     185A      2.857106   186A      2.869743   187A      2.876501
     188A      2.955589   189A      2.960584   190A      2.987793
     191A      3.021913   192A      3.036080   193A      3.164282
     194A      3.209195   195A      3.308579   196A      3.979998

    Final Occupation by Irrep:
              A
    DOCC [    34 ]

  @RHF Final Energy:  -348.99331561165252

   => Energetics <=

    Nuclear Repulsion Energy =            403.6583920812229849
    One-Electron Energy =               -1270.0623674705943813
    Two-Electron Energy =                 517.4106597777189336
    Total Energy =                       -348.9933156116525197

Computation Completed

Properties will be evaluated at   0.000000,   0.000000,   0.000000 [a0]

Properties computed using the SCF density matrix

  Nuclear Dipole Moment: [e a0]
     X:     5.0009      Y:    -8.2654      Z:    -7.0087

  Electronic Dipole Moment: [e a0]
     X:    -4.8917      Y:     8.3332      Z:     7.0605

  Dipole Moment: [e a0]
     X:     0.1092      Y:     0.0677      Z:     0.0518     Total:     0.1385

  Dipole Moment: [D]
     X:     0.2775      Y:     0.1722      Z:     0.1316     Total:     0.3521

*** tstop() called on ds3 at Tue Apr 28 12:59:36 2020
Module time:
	user time   =      61.54 seconds =       1.03 minutes
	system time =      23.89 seconds =       0.40 minutes
	total time  =        219 seconds =       3.65 minutes
Total time:
	user time   =      61.54 seconds =       1.03 minutes
	system time =      23.89 seconds =       0.40 minutes
	total time  =        219 seconds =       3.65 minutes
                                     G D M A

                                 by Anthony Stone

                           version 2.2.06, 22 June 2011

               Distributed Multipoles from Gaussian wavefunctions

Starting at 12:59:36 on 28 Apr 2020

Using SCF density matrix from file ./SSI/SSI-012ALA-108PHE-1-dimer.test.15612.fchk

                         Distributed Multipole Analysis

Standard DMA

Positions and radii in angstrom
Multipole moments in atomic units, ea_0^k for rank k

C          x =  0.356554  y = -2.514391  z = -1.912012 angstrom
           Maximum rank =  0   Radius =  0.650 angstrom
                   Q00  =  -0.223185

C          x =  0.817554  y = -3.454391  z = -3.012012 angstrom
           Maximum rank =  0   Radius =  0.650 angstrom
                   Q00  =  -0.239257

H          x = -0.704446  y = -2.289391  z = -2.024012 angstrom
           Maximum rank =  0   Radius =  0.325 angstrom
                   Q00  =   0.077718

H          x =  0.521554  y = -2.971391  z = -0.938012 angstrom
           Maximum rank =  0   Radius =  0.325 angstrom
                   Q00  =   0.071000

H          x =  0.922554  y = -1.582391  z = -1.960012 angstrom
           Maximum rank =  0   Radius =  0.325 angstrom
                   Q00  =   0.083065

H          x =  1.877554  y = -3.643391  z = -2.887012 angstrom
           Maximum rank =  0   Radius =  0.325 angstrom
                   Q00  =   0.078090

H          x =  0.646024  y = -3.013521  z = -4.005094 angstrom
           Maximum rank =  0   Radius =  0.325 angstrom
                   Q00  =   0.078104

H          x =  0.266264  y = -4.404571  z = -2.955133 angstrom
           Maximum rank =  0   Radius =  0.325 angstrom
                   Q00  =   0.074851

C          x =  2.018554  y =  1.853609  z =  1.387988 angstrom
           Maximum rank =  0   Radius =  0.650 angstrom
                   Q00  =  -0.207365

C          x = -0.859446  y = -0.551391  z =  0.769988 angstrom
           Maximum rank =  0   Radius =  0.650 angstrom
                   Q00  =  -0.071722

C          x =  0.407554  y = -0.044391  z =  1.078988 angstrom
           Maximum rank =  0   Radius =  0.650 angstrom
                   Q00  =   0.001296

C          x = -1.867446  y =  0.296609  z =  0.374988 angstrom
           Maximum rank =  0   Radius =  0.650 angstrom
                   Q00  =  -0.076442

C          x =  0.662554  y =  1.318609  z =  1.013988 angstrom
           Maximum rank =  0   Radius =  0.650 angstrom
                   Q00  =  -0.098642

C          x = -1.622446  y =  1.664609  z =  0.293988 angstrom
           Maximum rank =  0   Radius =  0.650 angstrom
                   Q00  =  -0.062321

C          x = -0.361446  y =  2.171609  z =  0.631988 angstrom
           Maximum rank =  0   Radius =  0.650 angstrom
                   Q00  =  -0.087465

H          x = -1.040446  y = -1.610391  z =  0.843988 angstrom
           Maximum rank =  0   Radius =  0.325 angstrom
                   Q00  =   0.063961

H          x =  1.187554  y = -0.725391  z =  1.386988 angstrom
           Maximum rank =  0   Radius =  0.325 angstrom
                   Q00  =   0.053869

H          x = -2.844446  y = -0.095391  z =  0.130988 angstrom
           Maximum rank =  0   Radius =  0.325 angstrom
                   Q00  =   0.059312

H          x = -2.415446  y =  2.329609  z = -0.018012 angstrom
           Maximum rank =  0   Radius =  0.325 angstrom
                   Q00  =   0.065293

H          x =  2.112554  y =  2.892609  z =  1.077988 angstrom
           Maximum rank =  0   Radius =  0.325 angstrom
                   Q00  =   0.097967

H          x =  2.765554  y =  1.278609  z =  0.842988 angstrom
           Maximum rank =  0   Radius =  0.325 angstrom
                   Q00  =   0.099689

H          x = -0.171446  y =  3.227609  z =  0.558988 angstrom
           Maximum rank =  0   Radius =  0.325 angstrom
                   Q00  =   0.057737

H          x =  2.211054  y =  1.790649  z =  2.469178 angstrom
           Maximum rank =  0   Radius =  0.325 angstrom
                   Q00  =   0.104445

Total multipoles referred to origin at
           x =   0.000000,  y =    0.000000,  z =    0.000000 angstrom
                   Q00  =  -0.000000

Finished at 12:59:36 on 28 Apr 2020

  DMA results are available in the Python driver through the
	  variable('DMA DISTRIBUTED MULTIPOLES')
  and
	  variable('DMA TOTAL MULTIPOLES')
  commands.

    Psi4 stopped on: Tuesday, 28 April 2020 12:59PM
    Psi4 wall time for execution: 0:03:38.69

*** Psi4 exiting successfully. Buy a developer a beer!
