                               Psi4 1.3.2 release

  ==> Input File <==

--------------------------------------------------------------------------
import numpy as np
set {scf_type pk
basis cc-pvdz
d_convergence 10
gdma_switch   0
gdma_limit    0
gdma_origin   [ 0.0,  0.0,  0.0 ]
}
molecule test {
    units Angstrom
    0 1
    --
    0 1
    C               -0.502812332403502    -0.854898103222812     1.586042990576645
    C                0.937187667596498    -1.358898103222812     1.403042990576645
    C               -0.281812332403502     0.461101896777188     2.353042990576645
    H               -1.062812332403502    -1.571898103222812     2.189042990576645
    H               -0.997812332403502    -0.688898103222812     0.630042990576645
    H                0.969187667596498    -2.424898103222811     1.190042990576645
    H                1.421187667596498    -0.800898103222812     0.600042990576645
    H               -0.152812332403502     1.299101896777188     1.665042990576645
    H                1.421787667596498    -1.129618103222812     2.363562990576645
    H                0.644547667596498     0.287081896777188     2.920112990576646
    H               -1.112122332403502     0.628611896777188     3.054842990576645
    C                0.003187667596498     0.357101896777188    -2.048957009423355
    C               -0.195812332403502     1.337101896777188    -3.197957009423355
    H                1.059187667596498     0.095101896777188    -1.956957009423355
    H               -0.330812332403502     0.823101896777188    -1.121957009423355
    H               -0.580812332403502    -0.548898103222812    -2.220957009423354
    H               -1.252812332403502     1.579101896777188    -3.251957009423355
    H                0.102797667596498     0.868261896777188    -4.147177009423355
    H                0.348307667596498     2.281181896777188    -3.047437009423354

}
e, wfn = energy('scf', return_wfn=True)
gdma(wfn)
dmavals = variable('DMA DISTRIBUTED MULTIPOLES')
charges = np.array(dmavals)
print(charges)
np.save('SSI-273PRO-283LEU-1-dimer.npy', np.array(charges))--------------------------------------------------------------------------

*** tstart() called on ds3
*** at Sun Apr 26 17:24:36 2020

   => Loading Basis Set <=

    Name: CC-PVDZ
    Role: ORBITAL
    Keyword: BASIS
    atoms 1-3, 12-13  entry C          line   138 file /theoryfs2/ds/metcalf/miniconda2/envs/tf2gpu/share/psi4/basis/cc-pvdz.gbs
    atoms 4-11, 14-19 entry H          line    22 file /theoryfs2/ds/metcalf/miniconda2/envs/tf2gpu/share/psi4/basis/cc-pvdz.gbs

         ---------------------------------------------------------
                                   SCF
               by Justin Turney, Rob Parrish, Andy Simmonett
                          and Daniel G. A. Smith
                              RHF Reference
                        1 Threads,    500 MiB Core
         ---------------------------------------------------------

  ==> Geometry <==

    Molecular point group: c1
    Full point group: C1

    Geometry (in Angstrom), charge = 0, multiplicity = 1:

       Center              X                  Y                   Z               Mass
    ------------   -----------------  -----------------  -----------------  -----------------
         C           -0.502812332404    -0.854898103223     1.586042990577    12.000000000000
         C            0.937187667596    -1.358898103223     1.403042990577    12.000000000000
         C           -0.281812332404     0.461101896777     2.353042990577    12.000000000000
         H           -1.062812332404    -1.571898103223     2.189042990577     1.007825032230
         H           -0.997812332404    -0.688898103223     0.630042990577     1.007825032230
         H            0.969187667596    -2.424898103223     1.190042990577     1.007825032230
         H            1.421187667596    -0.800898103223     0.600042990577     1.007825032230
         H           -0.152812332404     1.299101896777     1.665042990577     1.007825032230
         H            1.421787667596    -1.129618103223     2.363562990577     1.007825032230
         H            0.644547667596     0.287081896777     2.920112990577     1.007825032230
         H           -1.112122332404     0.628611896777     3.054842990577     1.007825032230
         C            0.003187667596     0.357101896777    -2.048957009423    12.000000000000
         C           -0.195812332404     1.337101896777    -3.197957009423    12.000000000000
         H            1.059187667596     0.095101896777    -1.956957009423     1.007825032230
         H           -0.330812332404     0.823101896777    -1.121957009423     1.007825032230
         H           -0.580812332404    -0.548898103223    -2.220957009423     1.007825032230
         H           -1.252812332404     1.579101896777    -3.251957009423     1.007825032230
         H            0.102797667596     0.868261896777    -4.147177009423     1.007825032230
         H            0.348307667596     2.281181896777    -3.047437009423     1.007825032230

  Running in c1 symmetry.

  Rotational constants: A =      0.23765  B =      0.03949  C =      0.03642 [cm^-1]
  Rotational constants: A =   7124.68329  B =   1183.81505  C =   1091.78807 [MHz]
  Nuclear repulsion =  179.015246018513579

  Charge       = 0
  Multiplicity = 1
  Electrons    = 44
  Nalpha       = 22
  Nbeta        = 22

  ==> Algorithm <==

  SCF Algorithm Type is PK.
  DIIS enabled.
  MOM disabled.
  Fractional occupation disabled.
  Guess Type is SAD.
  Energy threshold   = 1.00e-06
  Density threshold  = 1.00e-10
  Integral threshold = 0.00e+00

  ==> Primary Basis <==

  Basis Set: CC-PVDZ
    Blend: CC-PVDZ
    Number of shells: 72
    Number of basis function: 140
    Number of Cartesian functions: 145
    Spherical Harmonics?: true
    Max angular momentum: 2

  ==> Pre-Iterations <==

   -------------------------------------------------------
    Irrep   Nso     Nmo     Nalpha   Nbeta   Ndocc  Nsocc
   -------------------------------------------------------
     A        140     140       0       0       0       0
   -------------------------------------------------------
    Total     140     140      22      22      22       0
   -------------------------------------------------------

  ==> Integral Setup <==

  Using integral reordering PK algorithm.
  Sizing the integral batches needed.
  Building batch lookup table.
   Calculation information:
      Number of atoms:                  19
      Number of AO shells:              72
      Number of primitives:            180
      Number of atomic orbitals:       145
      Number of basis functions:       140

      Integral cutoff                 1.00e-12
      Number of threads:                 1

	Batch   1 pq = [       0,    9405] index = [             0,44231715] size =     44231715
	Batch   2 pq = [    9405,    9870] index = [      44231715,48713385] size =      4481670
  Task number: 5
  Buffer size: 11059200
  Buffer per thread: 2
  We computed 2846613 shell quartets total.
  Whereas there are 3454506 unique shell quartets.

  ==> DiskJK: Disk-Based J/K Matrices <==

    J tasked:                  Yes
    K tasked:                  Yes
    wK tasked:                  No
    Memory [MiB]:              375
    Schwarz Cutoff:          1E-12

    OpenMP threads:              1

  Minimum eigenvalue in the overlap matrix is 5.3571926218E-03.
  Using Symmetric Orthogonalization.

  SCF Guess: Superposition of Atomic Densities via on-the-fly atomic UHF.

  ==> Iterations <==

                        Total Energy        Delta E     RMS |[F,P]|

   @RHF iter SAD:  -196.44239532226669   -1.96442e+02   0.00000e+00
   @RHF iter   1:  -197.29496149676095   -8.52566e-01   3.82076e-03 DIIS
   @RHF iter   2:  -197.45476160152668   -1.59800e-01   1.65930e-03 DIIS
   @RHF iter   3:  -197.48372735497196   -2.89658e-02   3.26297e-04 DIIS
   @RHF iter   4:  -197.48592193973275   -2.19458e-03   4.72661e-05 DIIS
   @RHF iter   5:  -197.48595969918134   -3.77594e-05   1.49499e-05 DIIS
   @RHF iter   6:  -197.48596308456155   -3.38538e-06   2.55557e-06 DIIS
   @RHF iter   7:  -197.48596320296016   -1.18399e-07   4.49531e-07 DIIS
   @RHF iter   8:  -197.48596320706403   -4.10387e-09   9.29488e-08 DIIS
   @RHF iter   9:  -197.48596320724425   -1.80222e-10   3.02915e-08 DIIS
   @RHF iter  10:  -197.48596320726224   -1.79909e-11   7.39808e-09 DIIS
   @RHF iter  11:  -197.48596320726341   -1.16529e-12   1.45617e-09 DIIS
   @RHF iter  12:  -197.48596320726389   -4.83169e-13   2.87918e-10 DIIS
   @RHF iter  13:  -197.48596320726259    1.30740e-12   4.96114e-11 DIIS
  Energy and wave function converged.

  ==> Post-Iterations <==

    Orbital Energies [Eh]
    ---------------------

    Doubly Occupied:

       1A    -11.219640     2A    -11.218910     3A    -11.217410
       4A    -11.214651     5A    -11.212726     6A     -1.059101
       7A     -1.021287     8A     -0.909629     9A     -0.838308
      10A     -0.799874    11A     -0.634013    12A     -0.606823
      13A     -0.600536    14A     -0.599038    15A     -0.540368
      16A     -0.510353    17A     -0.504068    18A     -0.489168
      19A     -0.486350    20A     -0.480511    21A     -0.472594
      22A     -0.450417

    Virtual:

      23A      0.170970    24A      0.196350    25A      0.218109
      26A      0.223212    27A      0.227549    28A      0.245257
      29A      0.257444    30A      0.271244    31A      0.275183
      32A      0.283115    33A      0.309897    34A      0.316512
      35A      0.334789    36A      0.348283    37A      0.373863
      38A      0.400607    39A      0.425707    40A      0.567995
      41A      0.583259    42A      0.597146    43A      0.600507
      44A      0.627392    45A      0.634845    46A      0.637566
      47A      0.684537    48A      0.704809    49A      0.726390
      50A      0.798618    51A      0.829629    52A      0.844275
      53A      0.854441    54A      0.860371    55A      0.886364
      56A      0.888590    57A      0.893103    58A      0.893910
      59A      0.898789    60A      0.905179    61A      0.913553
      62A      0.917692    63A      0.933140    64A      0.943356
      65A      0.955820    66A      0.966231    67A      1.001441
      68A      1.014918    69A      1.085004    70A      1.125389
      71A      1.127891    72A      1.151111    73A      1.226047
      74A      1.245179    75A      1.388865    76A      1.448909
      77A      1.472562    78A      1.480842    79A      1.485642
      80A      1.582869    81A      1.602935    82A      1.629576
      83A      1.641243    84A      1.680480    85A      1.692010
      86A      1.729250    87A      1.737031    88A      1.804874
      89A      1.849410    90A      1.862630    91A      1.876009
      92A      1.885345    93A      1.896288    94A      1.902541
      95A      1.913870    96A      1.930327    97A      1.941503
      98A      1.943985    99A      1.953146   100A      1.958379
     101A      1.975855   102A      1.987015   103A      1.996444
     104A      2.001223   105A      2.026588   106A      2.067940
     107A      2.083400   108A      2.098683   109A      2.119842
     110A      2.156362   111A      2.185339   112A      2.232782
     113A      2.297235   114A      2.306500   115A      2.329842
     116A      2.339646   117A      2.420089   118A      2.445568
     119A      2.457508   120A      2.476461   121A      2.514789
     122A      2.539673   123A      2.551559   124A      2.576434
     125A      2.634321   126A      2.692715   127A      2.755191
     128A      2.759313   129A      2.777891   130A      2.785602
     131A      2.803621   132A      2.835750   133A      2.851611
     134A      2.858227   135A      2.864237   136A      2.923310
     137A      2.941763   138A      2.950585   139A      2.971567
     140A      3.046254

    Final Occupation by Irrep:
              A
    DOCC [    22 ]

  @RHF Final Energy:  -197.48596320726259

   => Energetics <=

    Nuclear Repulsion Energy =            179.0152460185135794
    One-Electron Energy =                -618.8308668001852766
    Two-Electron Energy =                 242.3296575744090831
    Total Energy =                       -197.4859632072625857

Computation Completed

Properties will be evaluated at   0.000000,   0.000000,   0.000000 [a0]

Properties computed using the SCF density matrix

  Nuclear Dipole Moment: [e a0]
     X:     0.4472      Y:     0.6529      Z:    -1.0628

  Electronic Dipole Moment: [e a0]
     X:    -0.4823      Y:    -0.6650      Z:     1.0271

  Dipole Moment: [e a0]
     X:    -0.0351      Y:    -0.0122      Z:    -0.0357     Total:     0.0515

  Dipole Moment: [D]
     X:    -0.0893      Y:    -0.0309      Z:    -0.0907     Total:     0.1310

*** tstop() called on ds3 at Sun Apr 26 17:25:02 2020
Module time:
	user time   =      18.07 seconds =       0.30 minutes
	system time =       6.21 seconds =       0.10 minutes
	total time  =         26 seconds =       0.43 minutes
Total time:
	user time   =      18.07 seconds =       0.30 minutes
	system time =       6.21 seconds =       0.10 minutes
	total time  =         26 seconds =       0.43 minutes
                                     G D M A

                                 by Anthony Stone

                           version 2.2.06, 22 June 2011

               Distributed Multipoles from Gaussian wavefunctions

Starting at 17:25:2 on 26 Apr 2020

Using SCF density matrix from file ./SSI/SSI-273PRO-283LEU-1-dimer.test.18454.fchk

                         Distributed Multipole Analysis

Standard DMA

Positions and radii in angstrom
Multipole moments in atomic units, ea_0^k for rank k

C          x = -0.502812  y = -0.854898  z =  1.586043 angstrom
           Maximum rank =  0   Radius =  0.650 angstrom
                   Q00  =  -0.092933

C          x =  0.937188  y = -1.358898  z =  1.403043 angstrom
           Maximum rank =  0   Radius =  0.650 angstrom
                   Q00  =  -0.222356

C          x = -0.281812  y =  0.461102  z =  2.353043 angstrom
           Maximum rank =  0   Radius =  0.650 angstrom
                   Q00  =  -0.239453

H          x = -1.062812  y = -1.571898  z =  2.189043 angstrom
           Maximum rank =  0   Radius =  0.325 angstrom
                   Q00  =   0.055031

H          x = -0.997812  y = -0.688898  z =  0.630043 angstrom
           Maximum rank =  0   Radius =  0.325 angstrom
                   Q00  =   0.061698

H          x =  0.969188  y = -2.424898  z =  1.190043 angstrom
           Maximum rank =  0   Radius =  0.325 angstrom
                   Q00  =   0.080395

H          x =  1.421188  y = -0.800898  z =  0.600043 angstrom
           Maximum rank =  0   Radius =  0.325 angstrom
                   Q00  =   0.080556

H          x = -0.152812  y =  1.299102  z =  1.665043 angstrom
           Maximum rank =  0   Radius =  0.325 angstrom
                   Q00  =   0.083248

H          x =  1.421788  y = -1.129618  z =  2.363563 angstrom
           Maximum rank =  0   Radius =  0.325 angstrom
                   Q00  =   0.052489

H          x =  0.644548  y =  0.287082  z =  2.920113 angstrom
           Maximum rank =  0   Radius =  0.325 angstrom
                   Q00  =   0.061746

H          x = -1.112122  y =  0.628612  z =  3.054843 angstrom
           Maximum rank =  0   Radius =  0.325 angstrom
                   Q00  =   0.079128

C          x =  0.003188  y =  0.357102  z = -2.048957 angstrom
           Maximum rank =  0   Radius =  0.650 angstrom
                   Q00  =  -0.229250

C          x = -0.195812  y =  1.337102  z = -3.197957 angstrom
           Maximum rank =  0   Radius =  0.650 angstrom
                   Q00  =  -0.245976

H          x =  1.059188  y =  0.095102  z = -1.956957 angstrom
           Maximum rank =  0   Radius =  0.325 angstrom
                   Q00  =   0.079744

H          x = -0.330812  y =  0.823102  z = -1.121957 angstrom
           Maximum rank =  0   Radius =  0.325 angstrom
                   Q00  =   0.077001

H          x = -0.580812  y = -0.548898  z = -2.220957 angstrom
           Maximum rank =  0   Radius =  0.325 angstrom
                   Q00  =   0.081651

H          x = -1.252812  y =  1.579102  z = -3.251957 angstrom
           Maximum rank =  0   Radius =  0.325 angstrom
                   Q00  =   0.077335

H          x =  0.102798  y =  0.868262  z = -4.147177 angstrom
           Maximum rank =  0   Radius =  0.325 angstrom
                   Q00  =   0.078933

H          x =  0.348308  y =  2.281182  z = -3.047437 angstrom
           Maximum rank =  0   Radius =  0.325 angstrom
                   Q00  =   0.081012

Total multipoles referred to origin at
           x =   0.000000,  y =    0.000000,  z =    0.000000 angstrom
                   Q00  =  -0.000000

Finished at 17:25:2 on 26 Apr 2020

  DMA results are available in the Python driver through the
	  variable('DMA DISTRIBUTED MULTIPOLES')
  and
	  variable('DMA TOTAL MULTIPOLES')
  commands.

    Psi4 stopped on: Sunday, 26 April 2020 05:25PM
    Psi4 wall time for execution: 0:00:25.41

*** Psi4 exiting successfully. Buy a developer a beer!
