                               Psi4 1.3.2 release

  ==> Input File <==

--------------------------------------------------------------------------
import numpy as np
set {scf_type pk
basis cc-pvdz
d_convergence 10
gdma_switch   0
gdma_limit    0
gdma_origin   [ 0.0,  0.0,  0.0 ]
}
molecule test {
    units Angstrom
    -1 1
    --
    -1 1
    C                1.093214510082131    -1.400117555514506    -0.737677337765917
    C                1.137214510082131    -0.987117555514506    -2.182677337765917
    C                2.532214510082131    -1.729117555514506    -0.371677337765917
    H                0.463214510082131    -2.287117555514506    -0.656677337765917
    H                0.696214510082131    -0.606117555514506    -0.109677337765917
    H                0.203214510082131    -1.227117555514506    -2.696677337765917
    H                1.311214510082131     0.088882444485494    -2.252677337765917
    H                3.021214510082131    -0.872117555514506     0.093322662234083
    H                1.987605510082131    -1.520537555514506    -2.632452737765917
    H                3.002459510082131    -1.977010555514506    -1.334703337765917
    H                2.538026510082132    -2.601639555514506     0.298152662234083
    C               -1.029785489917869     0.644882444485494     2.210322662234083
    C               -1.196785489917869     1.045882444485494     0.748322662234083
    O               -0.497785489917869     1.977882444485494     0.285322662234083
    O               -2.046785489917869     0.432882444485494     0.063322662234083
    H               -0.782785489917869    -0.415117555514506     2.278322662234083
    H               -1.983785489917869     0.790882444485494     2.721322662234083
    H               -0.268986489917869     1.247480444485494     2.728068662234083

}
e, wfn = energy('scf', return_wfn=True)
gdma(wfn)
dmavals = variable('DMA DISTRIBUTED MULTIPOLES')
charges = np.array(dmavals)
print(charges)
np.save('SSI-001PRO-046ASP-1-dimer.npy', np.array(charges))--------------------------------------------------------------------------

*** tstart() called on ds3
*** at Mon Apr 27 08:13:47 2020

   => Loading Basis Set <=

    Name: CC-PVDZ
    Role: ORBITAL
    Keyword: BASIS
    atoms 1-3, 12-13  entry C          line   138 file /theoryfs2/ds/metcalf/miniconda2/envs/tf2gpu/share/psi4/basis/cc-pvdz.gbs
    atoms 4-11, 16-18 entry H          line    22 file /theoryfs2/ds/metcalf/miniconda2/envs/tf2gpu/share/psi4/basis/cc-pvdz.gbs
    atoms 14-15       entry O          line   198 file /theoryfs2/ds/metcalf/miniconda2/envs/tf2gpu/share/psi4/basis/cc-pvdz.gbs

         ---------------------------------------------------------
                                   SCF
               by Justin Turney, Rob Parrish, Andy Simmonett
                          and Daniel G. A. Smith
                              RHF Reference
                        1 Threads,    500 MiB Core
         ---------------------------------------------------------

  ==> Geometry <==

    Molecular point group: c1
    Full point group: C1

    Geometry (in Angstrom), charge = -1, multiplicity = 1:

       Center              X                  Y                   Z               Mass
    ------------   -----------------  -----------------  -----------------  -----------------
         C            1.093214510082    -1.400117555515    -0.737677337766    12.000000000000
         C            1.137214510082    -0.987117555515    -2.182677337766    12.000000000000
         C            2.532214510082    -1.729117555515    -0.371677337766    12.000000000000
         H            0.463214510082    -2.287117555515    -0.656677337766     1.007825032230
         H            0.696214510082    -0.606117555515    -0.109677337766     1.007825032230
         H            0.203214510082    -1.227117555515    -2.696677337766     1.007825032230
         H            1.311214510082     0.088882444485    -2.252677337766     1.007825032230
         H            3.021214510082    -0.872117555515     0.093322662234     1.007825032230
         H            1.987605510082    -1.520537555515    -2.632452737766     1.007825032230
         H            3.002459510082    -1.977010555515    -1.334703337766     1.007825032230
         H            2.538026510082    -2.601639555515     0.298152662234     1.007825032230
         C           -1.029785489918     0.644882444485     2.210322662234    12.000000000000
         C           -1.196785489918     1.045882444485     0.748322662234    12.000000000000
         O           -0.497785489918     1.977882444485     0.285322662234    15.994914619570
         O           -2.046785489918     0.432882444485     0.063322662234    15.994914619570
         H           -0.782785489918    -0.415117555515     2.278322662234     1.007825032230
         H           -1.983785489918     0.790882444485     2.721322662234     1.007825032230
         H           -0.268986489918     1.247480444485     2.728068662234     1.007825032230

  Running in c1 symmetry.

  Rotational constants: A =      0.11796  B =      0.03362  C =      0.03080 [cm^-1]
  Rotational constants: A =   3536.43271  B =   1008.02671  C =    923.35458 [MHz]
  Nuclear repulsion =  293.272957749134093

  Charge       = -1
  Multiplicity = 1
  Electrons    = 58
  Nalpha       = 29
  Nbeta        = 29

  ==> Algorithm <==

  SCF Algorithm Type is PK.
  DIIS enabled.
  MOM disabled.
  Fractional occupation disabled.
  Guess Type is SAD.
  Energy threshold   = 1.00e-06
  Density threshold  = 1.00e-10
  Integral threshold = 0.00e+00

  ==> Primary Basis <==

  Basis Set: CC-PVDZ
    Blend: CC-PVDZ
    Number of shells: 75
    Number of basis function: 153
    Number of Cartesian functions: 160
    Spherical Harmonics?: true
    Max angular momentum: 2

  ==> Pre-Iterations <==

   -------------------------------------------------------
    Irrep   Nso     Nmo     Nalpha   Nbeta   Ndocc  Nsocc
   -------------------------------------------------------
     A        153     153       0       0       0       0
   -------------------------------------------------------
    Total     153     153      29      29      29       0
   -------------------------------------------------------

  ==> Integral Setup <==

  Using integral reordering PK algorithm.
  Sizing the integral batches needed.
  Building batch lookup table.
   Calculation information:
      Number of atoms:                  18
      Number of AO shells:              75
      Number of primitives:            209
      Number of atomic orbitals:       160
      Number of basis functions:       153

      Integral cutoff                 1.00e-12
      Number of threads:                 1

	Batch   1 pq = [       0,    9405] index = [             0,44231715] size =     44231715
	Batch   2 pq = [    9405,   11781] index = [      44231715,69401871] size =     25170156
  Task number: 7
  Buffer size: 11059200
  Buffer per thread: 2
  We computed 3537491 shell quartets total.
  Whereas there are 4062675 unique shell quartets.

  ==> DiskJK: Disk-Based J/K Matrices <==

    J tasked:                  Yes
    K tasked:                  Yes
    wK tasked:                  No
    Memory [MiB]:              375
    Schwarz Cutoff:          1E-12

    OpenMP threads:              1

  Minimum eigenvalue in the overlap matrix is 4.7821704600E-03.
  Using Symmetric Orthogonalization.

  SCF Guess: Superposition of Atomic Densities via on-the-fly atomic UHF.

  ==> Iterations <==

                        Total Energy        Delta E     RMS |[F,P]|

   @RHF iter SAD:  -343.98939257491139   -3.43989e+02   0.00000e+00
   @RHF iter   1:  -345.19087699278214   -1.20148e+00   5.02353e-03 DIIS
   @RHF iter   2:  -345.42170262319905   -2.30826e-01   2.79671e-03 DIIS
   @RHF iter   3:  -345.49088340941233   -6.91808e-02   4.26104e-04 DIIS
   @RHF iter   4:  -345.49380974561905   -2.92634e-03   1.60727e-04 DIIS
   @RHF iter   5:  -345.49421708139340   -4.07336e-04   2.45124e-05 DIIS
   @RHF iter   6:  -345.49422900592612   -1.19245e-05   6.83538e-06 DIIS
   @RHF iter   7:  -345.49422988226286   -8.76337e-07   1.77872e-06 DIIS
   @RHF iter   8:  -345.49422994419922   -6.19364e-08   7.12414e-07 DIIS
   @RHF iter   9:  -345.49422995095966   -6.76044e-09   2.21012e-07 DIIS
   @RHF iter  10:  -345.49422995218492   -1.22526e-09   7.81469e-08 DIIS
   @RHF iter  11:  -345.49422995237387   -1.88948e-10   2.53674e-08 DIIS
   @RHF iter  12:  -345.49422995239939   -2.55227e-11   8.38018e-09 DIIS
   @RHF iter  13:  -345.49422995240189   -2.50111e-12   2.55223e-09 DIIS
   @RHF iter  14:  -345.49422995240167    2.27374e-13   7.30315e-10 DIIS
   @RHF iter  15:  -345.49422995240297   -1.30740e-12   2.41606e-10 DIIS
   @RHF iter  16:  -345.49422995240076    2.21689e-12   8.35568e-11 DIIS
  Energy and wave function converged.

  ==> Post-Iterations <==

    Orbital Energies [Eh]
    ---------------------

    Doubly Occupied:

       1A    -20.257005     2A    -20.253249     3A    -11.113731
       4A    -11.104513     5A    -11.089434     6A    -11.085224
       7A    -11.050602     8A     -1.144489     9A     -1.030456
      10A     -0.945723    11A     -0.799223    12A     -0.795422
      13A     -0.675183    14A     -0.513667    15A     -0.498523
      16A     -0.495241    17A     -0.425919    18A     -0.411387
      19A     -0.405100    20A     -0.400509    21A     -0.399709
      22A     -0.360177    23A     -0.343505    24A     -0.339401
      25A     -0.337551    26A     -0.299116    27A     -0.180383
      28A     -0.167633    29A     -0.156714

    Virtual:

      30A      0.298643    31A      0.332155    32A      0.341138
      33A      0.351604    34A      0.359705    35A      0.392967
      36A      0.401441    37A      0.407394    38A      0.417326
      39A      0.435654    40A      0.464282    41A      0.494237
      42A      0.515810    43A      0.560715    44A      0.577503
      45A      0.674973    46A      0.678840    47A      0.703443
      48A      0.748690    49A      0.759666    50A      0.778088
      51A      0.799783    52A      0.833008    53A      0.871791
      54A      0.895766    55A      0.923469    56A      0.953177
      57A      0.969687    58A      0.979291    59A      0.993705
      60A      1.006473    61A      1.018745    62A      1.024320
      63A      1.030543    64A      1.040568    65A      1.042911
      66A      1.044938    67A      1.052943    68A      1.063254
      69A      1.093847    70A      1.098276    71A      1.141813
      72A      1.158553    73A      1.189904    74A      1.217701
      75A      1.264576    76A      1.321512    77A      1.355947
      78A      1.391607    79A      1.399423    80A      1.521335
      81A      1.548681    82A      1.581529    83A      1.584286
      84A      1.596941    85A      1.615365    86A      1.630904
      87A      1.660038    88A      1.686728    89A      1.726211
      90A      1.730416    91A      1.750729    92A      1.760231
      93A      1.834594    94A      1.841636    95A      1.848705
      96A      1.859215    97A      1.923839    98A      1.976767
      99A      1.999133   100A      2.024052   101A      2.043292
     102A      2.047435   103A      2.067377   104A      2.076262
     105A      2.083288   106A      2.096952   107A      2.100446
     108A      2.140803   109A      2.145722   110A      2.163034
     111A      2.164436   112A      2.194603   113A      2.217970
     114A      2.283368   115A      2.295533   116A      2.315600
     117A      2.347623   118A      2.365470   119A      2.425908
     120A      2.432329   121A      2.468835   122A      2.487196
     123A      2.567275   124A      2.575288   125A      2.609875
     126A      2.640540   127A      2.646243   128A      2.676149
     129A      2.740212   130A      2.779475   131A      2.787510
     132A      2.824722   133A      2.870091   134A      2.892350
     135A      2.907499   136A      2.920272   137A      2.952097
     138A      2.967349   139A      2.987771   140A      3.002509
     141A      3.033490   142A      3.061860   143A      3.207697
     144A      3.246140   145A      3.281895   146A      3.301141
     147A      3.370657   148A      3.644372   149A      3.783534
     150A      3.827247   151A      4.069435   152A      4.080672
     153A      4.195821

    Final Occupation by Irrep:
              A
    DOCC [    29 ]

  @RHF Final Energy:  -345.49422995240076

   => Energetics <=

    Nuclear Repulsion Energy =            293.2729577491340933
    One-Electron Energy =               -1063.3767968397912682
    Two-Electron Energy =                 424.6096091382564168
    Total Energy =                       -345.4942299524007581

Computation Completed

Properties will be evaluated at   0.000000,   0.000000,   0.000000 [a0]

Properties computed using the SCF density matrix

  Nuclear Dipole Moment: [e a0]
     X:     9.5383      Y:    -8.7814      Z:    -1.4642

  Electronic Dipole Moment: [e a0]
     X:    -7.5095      Y:     6.7663      Z:     1.5158

  Dipole Moment: [e a0]
     X:     2.0289      Y:    -2.0152      Z:     0.0516     Total:     2.8601

  Dipole Moment: [D]
     X:     5.1569      Y:    -5.1221      Z:     0.1311     Total:     7.2696

*** tstop() called on ds3 at Mon Apr 27 08:14:43 2020
Module time:
	user time   =      24.67 seconds =       0.41 minutes
	system time =       9.52 seconds =       0.16 minutes
	total time  =         56 seconds =       0.93 minutes
Total time:
	user time   =      24.67 seconds =       0.41 minutes
	system time =       9.52 seconds =       0.16 minutes
	total time  =         56 seconds =       0.93 minutes
                                     G D M A

                                 by Anthony Stone

                           version 2.2.06, 22 June 2011

               Distributed Multipoles from Gaussian wavefunctions

Starting at 8:14:43 on 27 Apr 2020

Using SCF density matrix from file ./SSI/SSI-001PRO-046ASP-1-dimer.test.775.fchk

                         Distributed Multipole Analysis

Standard DMA

Positions and radii in angstrom
Multipole moments in atomic units, ea_0^k for rank k

C          x =  1.093215  y = -1.400118  z = -0.737677 angstrom
           Maximum rank =  0   Radius =  0.650 angstrom
                   Q00  =  -0.049030

C          x =  1.137215  y = -0.987118  z = -2.182677 angstrom
           Maximum rank =  0   Radius =  0.650 angstrom
                   Q00  =  -0.213160

C          x =  2.532215  y = -1.729118  z = -0.371677 angstrom
           Maximum rank =  0   Radius =  0.650 angstrom
                   Q00  =  -0.258530

H          x =  0.463215  y = -2.287118  z = -0.656677 angstrom
           Maximum rank =  0   Radius =  0.325 angstrom
                   Q00  =   0.034162

H          x =  0.696215  y = -0.606118  z = -0.109677 angstrom
           Maximum rank =  0   Radius =  0.325 angstrom
                   Q00  =   0.102280

H          x =  0.203215  y = -1.227118  z = -2.696677 angstrom
           Maximum rank =  0   Radius =  0.325 angstrom
                   Q00  =   0.087031

H          x =  1.311215  y =  0.088882  z = -2.252677 angstrom
           Maximum rank =  0   Radius =  0.325 angstrom
                   Q00  =   0.099335

H          x =  3.021215  y = -0.872118  z =  0.093323 angstrom
           Maximum rank =  0   Radius =  0.325 angstrom
                   Q00  =   0.082124

H          x =  1.987606  y = -1.520538  z = -2.632453 angstrom
           Maximum rank =  0   Radius =  0.325 angstrom
                   Q00  =   0.003484

H          x =  3.002460  y = -1.977011  z = -1.334703 angstrom
           Maximum rank =  0   Radius =  0.325 angstrom
                   Q00  =   0.041721

H          x =  2.538027  y = -2.601640  z =  0.298153 angstrom
           Maximum rank =  0   Radius =  0.325 angstrom
                   Q00  =   0.062772

C          x = -1.029785  y =  0.644882  z =  2.210323 angstrom
           Maximum rank =  0   Radius =  0.650 angstrom
                   Q00  =  -0.276502

C          x = -1.196785  y =  1.045882  z =  0.748323 angstrom
           Maximum rank =  0   Radius =  0.650 angstrom
                   Q00  =   0.967335

O          x = -0.497785  y =  1.977882  z =  0.285323 angstrom
           Maximum rank =  0   Radius =  0.650 angstrom
                   Q00  =  -0.932256

O          x = -2.046785  y =  0.432882  z =  0.063323 angstrom
           Maximum rank =  0   Radius =  0.650 angstrom
                   Q00  =  -0.931427

H          x = -0.782785  y = -0.415118  z =  2.278323 angstrom
           Maximum rank =  0   Radius =  0.325 angstrom
                   Q00  =   0.063087

H          x = -1.983785  y =  0.790882  z =  2.721323 angstrom
           Maximum rank =  0   Radius =  0.325 angstrom
                   Q00  =   0.070100

H          x = -0.268986  y =  1.247480  z =  2.728069 angstrom
           Maximum rank =  0   Radius =  0.325 angstrom
                   Q00  =   0.047473

Total multipoles referred to origin at
           x =   0.000000,  y =    0.000000,  z =    0.000000 angstrom
                   Q00  =  -1.000000

Finished at 8:14:43 on 27 Apr 2020

  DMA results are available in the Python driver through the
	  variable('DMA DISTRIBUTED MULTIPOLES')
  and
	  variable('DMA TOTAL MULTIPOLES')
  commands.

    Psi4 stopped on: Monday, 27 April 2020 08:14AM
    Psi4 wall time for execution: 0:00:56.83

*** Psi4 exiting successfully. Buy a developer a beer!
