                               Psi4 1.3.2 release

  ==> Input File <==

--------------------------------------------------------------------------
import numpy as np
set {scf_type pk
basis cc-pvdz
d_convergence 10
gdma_switch   0
gdma_limit    0
gdma_origin   [ 0.0,  0.0,  0.0 ]
}
molecule test {
    units Angstrom
    0 1
    --
    0 1
    C               -3.649584215671545    -1.719454110680692     1.150042565412748
    C               -0.188584215671545    -0.304454110680692     1.091042565412748
    C               -1.551584215671545    -0.240454110680692     0.715042565412748
    C               -2.183584215671545    -1.415454110680692     1.220042565412748
    C               -1.226584215671545    -2.130454110680692     1.851042565412748
    C                0.241415784328455     1.785545889319308     0.045042565412748
    C                0.698415784328455     0.690545889319308     0.762042565412748
    C               -1.096584215671545     1.886545889319308    -0.342957434587252
    C               -2.003584215671545     0.876545889319308    -0.014957434587252
    N               -0.007584215671545    -1.475454110680692     1.785042565412748
    H                0.930415784328455     2.570545889319308    -0.216957434587252
    H                1.721415784328455     0.574545889319308     1.077042565412748
    H               -1.451584215671545     2.743545889319308    -0.899957434587252
    H               -3.034584215671545     0.979545889319308    -0.329957434587252
    H                0.872415784328455    -1.790454110680692     2.177042565412748
    H               -1.501584215671545    -3.069454110680692     2.314042565412748
    H               -3.783584215671545    -2.763454110680692     1.423042565412748
    H               -3.958584215671545    -1.584454110680692     0.107042565412748
    H               -4.202384215671546    -1.109024110680692     1.879282565412748
    C                2.839415784328455     0.779545889319308    -2.243957434587252
    C                4.187415784328455     1.137545889319308    -1.587957434587252
    C                2.897415784328455     0.193545889319308    -3.664957434587252
    H                2.361415784328455     0.055545889319308    -1.585957434587252
    H                2.245415784328455     1.693545889319308    -2.257957434587252
    H                4.735415784328454     1.798545889319308    -2.259957434587252
    H                3.777415784328455    -0.444454110680692    -3.725957434587252
    H                2.004415784328455    -0.406454110680692    -3.846957434587252
    H                4.777615784328455     0.229845889319308    -1.393717434587252
    H                3.980455784328455     1.716145889319308    -0.675617434587252
    H                2.966885784328455     0.975245889319308    -4.435717434587253

}
e, wfn = energy('scf', return_wfn=True)
gdma(wfn)
dmavals = variable('DMA DISTRIBUTED MULTIPOLES')
charges = np.array(dmavals)
print(charges)
np.save('SSI-104TRP-205GLU-1-dimer.npy', np.array(charges))--------------------------------------------------------------------------

*** tstart() called on ds3
*** at Tue Apr 28 02:59:41 2020

   => Loading Basis Set <=

    Name: CC-PVDZ
    Role: ORBITAL
    Keyword: BASIS
    atoms 1-9, 20-22   entry C          line   138 file /theoryfs2/ds/metcalf/miniconda2/envs/tf2gpu/share/psi4/basis/cc-pvdz.gbs
    atoms 10           entry N          line   168 file /theoryfs2/ds/metcalf/miniconda2/envs/tf2gpu/share/psi4/basis/cc-pvdz.gbs
    atoms 11-19, 23-30 entry H          line    22 file /theoryfs2/ds/metcalf/miniconda2/envs/tf2gpu/share/psi4/basis/cc-pvdz.gbs

         ---------------------------------------------------------
                                   SCF
               by Justin Turney, Rob Parrish, Andy Simmonett
                          and Daniel G. A. Smith
                              RHF Reference
                        1 Threads,    500 MiB Core
         ---------------------------------------------------------

  ==> Geometry <==

    Molecular point group: c1
    Full point group: C1

    Geometry (in Angstrom), charge = 0, multiplicity = 1:

       Center              X                  Y                   Z               Mass
    ------------   -----------------  -----------------  -----------------  -----------------
         C           -3.649584215672    -1.719454110681     1.150042565413    12.000000000000
         C           -0.188584215672    -0.304454110681     1.091042565413    12.000000000000
         C           -1.551584215672    -0.240454110681     0.715042565413    12.000000000000
         C           -2.183584215672    -1.415454110681     1.220042565413    12.000000000000
         C           -1.226584215672    -2.130454110681     1.851042565413    12.000000000000
         C            0.241415784328     1.785545889319     0.045042565413    12.000000000000
         C            0.698415784328     0.690545889319     0.762042565413    12.000000000000
         C           -1.096584215672     1.886545889319    -0.342957434587    12.000000000000
         C           -2.003584215672     0.876545889319    -0.014957434587    12.000000000000
         N           -0.007584215672    -1.475454110681     1.785042565413    14.003074004430
         H            0.930415784328     2.570545889319    -0.216957434587     1.007825032230
         H            1.721415784328     0.574545889319     1.077042565413     1.007825032230
         H           -1.451584215672     2.743545889319    -0.899957434587     1.007825032230
         H           -3.034584215672     0.979545889319    -0.329957434587     1.007825032230
         H            0.872415784328    -1.790454110681     2.177042565413     1.007825032230
         H           -1.501584215672    -3.069454110681     2.314042565413     1.007825032230
         H           -3.783584215672    -2.763454110681     1.423042565413     1.007825032230
         H           -3.958584215672    -1.584454110681     0.107042565413     1.007825032230
         H           -4.202384215672    -1.109024110681     1.879282565413     1.007825032230
         C            2.839415784328     0.779545889319    -2.243957434587    12.000000000000
         C            4.187415784328     1.137545889319    -1.587957434587    12.000000000000
         C            2.897415784328     0.193545889319    -3.664957434587    12.000000000000
         H            2.361415784328     0.055545889319    -1.585957434587     1.007825032230
         H            2.245415784328     1.693545889319    -2.257957434587     1.007825032230
         H            4.735415784328     1.798545889319    -2.259957434587     1.007825032230
         H            3.777415784328    -0.444454110681    -3.725957434587     1.007825032230
         H            2.004415784328    -0.406454110681    -3.846957434587     1.007825032230
         H            4.777615784328     0.229845889319    -1.393717434587     1.007825032230
         H            3.980455784328     1.716145889319    -0.675617434587     1.007825032230
         H            2.966885784328     0.975245889319    -4.435717434587     1.007825032230

  Running in c1 symmetry.

  Rotational constants: A =      0.04369  B =      0.01152  C =      0.01080 [cm^-1]
  Rotational constants: A =   1309.87886  B =    345.45636  C =    323.64900 [MHz]
  Nuclear repulsion =  736.771703463843210

  Charge       = 0
  Multiplicity = 1
  Electrons    = 96
  Nalpha       = 48
  Nbeta        = 48

  ==> Algorithm <==

  SCF Algorithm Type is PK.
  DIIS enabled.
  MOM disabled.
  Fractional occupation disabled.
  Guess Type is SAD.
  Energy threshold   = 1.00e-06
  Density threshold  = 1.00e-10
  Integral threshold = 0.00e+00

  ==> Primary Basis <==

  Basis Set: CC-PVDZ
    Blend: CC-PVDZ
    Number of shells: 129
    Number of basis function: 267
    Number of Cartesian functions: 280
    Spherical Harmonics?: true
    Max angular momentum: 2

  ==> Pre-Iterations <==

   -------------------------------------------------------
    Irrep   Nso     Nmo     Nalpha   Nbeta   Ndocc  Nsocc
   -------------------------------------------------------
     A        267     267       0       0       0       0
   -------------------------------------------------------
    Total     267     267      48      48      48       0
   -------------------------------------------------------

  ==> Integral Setup <==

  Using integral reordering PK algorithm.
  Sizing the integral batches needed.
  Building batch lookup table.
   Calculation information:
      Number of atoms:                  30
      Number of AO shells:             129
      Number of primitives:            371
      Number of atomic orbitals:       280
      Number of basis functions:       267

      Integral cutoff                 1.00e-12
      Number of threads:                 1

	Batch   1 pq = [       0,    9405] index = [             0,44231715] size =     44231715
	Batch   2 pq = [    9405,   13301] index = [      44231715,88464951] size =     44233236
	Batch   3 pq = [   13301,   16290] index = [      88464951,132690195] size =     44225244
	Batch   4 pq = [   16290,   18810] index = [     132690195,176917455] size =     44227260
	Batch   5 pq = [   18810,   21030] index = [     176917455,221140965] size =     44223510
	Batch   6 pq = [   21030,   23037] index = [     221140965,265363203] size =     44222238
	Batch   7 pq = [   23037,   24883] index = [     265363203,309594286] size =     44231083
	Batch   8 pq = [   24883,   26601] index = [     309594286,353819901] size =     44225615
	Batch   9 pq = [   26601,   28214] index = [     353819901,398029005] size =     44209104
	Batch  10 pq = [   28214,   29740] index = [     398029005,442248670] size =     44219665
	Batch  11 pq = [   29740,   31191] index = [     442248670,486454836] size =     44206166
	Batch  12 pq = [   31191,   32578] index = [     486454836,530679331] size =     44224495
	Batch  13 pq = [   32578,   33908] index = [     530679331,574893186] size =     44213855
	Batch  14 pq = [   33908,   35188] index = [     574893186,619115266] size =     44222080
	Batch  15 pq = [   35188,   35778] index = [     619115266,640050531] size =     20935265
  Task number: 58
  Buffer size: 11059200
  Buffer per thread: 2
  We computed 30747035 shell quartets total.
  Whereas there are 35158305 unique shell quartets.

  ==> DiskJK: Disk-Based J/K Matrices <==

    J tasked:                  Yes
    K tasked:                  Yes
    wK tasked:                  No
    Memory [MiB]:              375
    Schwarz Cutoff:          1E-12

    OpenMP threads:              1

  Minimum eigenvalue in the overlap matrix is 2.4330972973E-04.
  Using Symmetric Orthogonalization.

  SCF Guess: Superposition of Atomic Densities via on-the-fly atomic UHF.

  ==> Iterations <==

                        Total Energy        Delta E     RMS |[F,P]|

   @RHF iter SAD:  -518.04903125144313   -5.18049e+02   0.00000e+00
   @RHF iter   1:  -518.48496664352479   -4.35935e-01   2.49818e-03 DIIS
   @RHF iter   2:  -518.74390666430270   -2.58940e-01   1.11297e-03 DIIS
   @RHF iter   3:  -518.79057094348775   -4.66643e-02   2.87959e-04 DIIS
   @RHF iter   4:  -518.79477278929403   -4.20185e-03   1.30822e-04 DIIS
   @RHF iter   5:  -518.79545703739200   -6.84248e-04   1.95734e-05 DIIS
   @RHF iter   6:  -518.79548963482466   -3.25974e-05   8.97423e-06 DIIS
   @RHF iter   7:  -518.79549655334927   -6.91852e-06   3.66416e-06 DIIS
   @RHF iter   8:  -518.79549842366930   -1.87032e-06   1.51258e-06 DIIS
   @RHF iter   9:  -518.79549881655748   -3.92888e-07   6.43820e-07 DIIS
   @RHF iter  10:  -518.79549889486111   -7.83036e-08   2.84261e-07 DIIS
   @RHF iter  11:  -518.79549891239230   -1.75312e-08   1.06468e-07 DIIS
   @RHF iter  12:  -518.79549891473812   -2.34581e-09   3.72893e-08 DIIS
   @RHF iter  13:  -518.79549891492843   -1.90312e-10   1.09477e-08 DIIS
   @RHF iter  14:  -518.79549891495014   -2.17142e-11   4.17506e-09 DIIS
   @RHF iter  15:  -518.79549891495139   -1.25056e-12   2.32366e-09 DIIS
   @RHF iter  16:  -518.79549891495344   -2.04636e-12   1.10574e-09 DIIS
   @RHF iter  17:  -518.79549891495310    3.41061e-13   4.12652e-10 DIIS
   @RHF iter  18:  -518.79549891496345   -1.03455e-11   1.56931e-10 DIIS
   @RHF iter  19:  -518.79549891495105    1.23919e-11   6.10308e-11 DIIS
  Energy and wave function converged.

  ==> Post-Iterations <==

    Orbital Energies [Eh]
    ---------------------

    Doubly Occupied:

       1A    -15.601641     2A    -11.262480     3A    -11.261088
       4A    -11.231068     5A    -11.228542     6A    -11.227760
       7A    -11.226402     8A    -11.221131     9A    -11.218688
      10A    -11.216099    11A    -11.213415    12A    -11.212731
      13A    -11.211874    14A     -1.292586    15A     -1.128061
      16A     -1.077255    17A     -1.043717    18A     -0.997786
      19A     -0.986802    20A     -0.932591    21A     -0.921804
      22A     -0.837485    23A     -0.806456    24A     -0.788787
      25A     -0.750955    26A     -0.719690    27A     -0.664729
      28A     -0.639802    29A     -0.620457    30A     -0.601630
      31A     -0.594831    32A     -0.593348    33A     -0.587063
      34A     -0.565322    35A     -0.556175    36A     -0.544539
      37A     -0.534508    38A     -0.533395    39A     -0.526317
      40A     -0.494748    41A     -0.469317    42A     -0.468573
      43A     -0.464910    44A     -0.461492    45A     -0.451681
      46A     -0.372801    47A     -0.297025    48A     -0.274809

    Virtual:

      49A      0.124599    50A      0.168868    51A      0.171069
      52A      0.184731    53A      0.189493    54A      0.206676
      55A      0.219102    56A      0.220673    57A      0.233049
      58A      0.242434    59A      0.245133    60A      0.260748
      61A      0.267865    62A      0.268464    63A      0.279265
      64A      0.287323    65A      0.291455    66A      0.296363
      67A      0.321301    68A      0.338472    69A      0.370568
      70A      0.374560    71A      0.392878    72A      0.401434
      73A      0.424310    74A      0.432748    75A      0.445464
      76A      0.474477    77A      0.482434    78A      0.501306
      79A      0.511825    80A      0.585170    81A      0.595067
      82A      0.605558    83A      0.607316    84A      0.615885
      85A      0.631669    86A      0.637682    87A      0.641641
      88A      0.648592    89A      0.667360    90A      0.696445
      91A      0.718845    92A      0.722730    93A      0.728034
      94A      0.738835    95A      0.742657    96A      0.750104
      97A      0.754505    98A      0.762939    99A      0.774039
     100A      0.786771   101A      0.791787   102A      0.798845
     103A      0.814733   104A      0.815717   105A      0.834560
     106A      0.852661   107A      0.867772   108A      0.877007
     109A      0.881149   110A      0.889445   111A      0.891593
     112A      0.893319   113A      0.898672   114A      0.904881
     115A      0.906525   116A      0.915341   117A      0.918814
     118A      0.929268   119A      0.940497   120A      0.948315
     121A      0.957072   122A      0.958996   123A      0.967295
     124A      0.971731   125A      0.986613   126A      0.996278
     127A      1.013973   128A      1.016665   129A      1.065657
     130A      1.071110   131A      1.097002   132A      1.113653
     133A      1.125393   134A      1.130938   135A      1.142508
     136A      1.149094   137A      1.158711   138A      1.188739
     139A      1.215226   140A      1.215836   141A      1.229292
     142A      1.239153   143A      1.249800   144A      1.256416
     145A      1.270516   146A      1.292586   147A      1.309041
     148A      1.333686   149A      1.340877   150A      1.358804
     151A      1.367696   152A      1.395542   153A      1.398505
     154A      1.445344   155A      1.459366   156A      1.485115
     157A      1.518137   158A      1.544028   159A      1.563586
     160A      1.585462   161A      1.595203   162A      1.621125
     163A      1.633525   164A      1.639660   165A      1.649137
     166A      1.675335   167A      1.683346   168A      1.690863
     169A      1.696105   170A      1.717043   171A      1.751017
     172A      1.766561   173A      1.790963   174A      1.799704
     175A      1.813569   176A      1.834267   177A      1.838360
     178A      1.849606   179A      1.857717   180A      1.876725
     181A      1.882825   182A      1.889997   183A      1.902461
     184A      1.909038   185A      1.916417   186A      1.924643
     187A      1.928464   188A      1.936214   189A      1.942131
     190A      1.951624   191A      1.959462   192A      1.970576
     193A      1.975365   194A      1.987441   195A      1.998567
     196A      2.001544   197A      2.009394   198A      2.022484
     199A      2.026241   200A      2.034524   201A      2.044337
     202A      2.053868   203A      2.075267   204A      2.085362
     205A      2.105031   206A      2.110640   207A      2.117807
     208A      2.125306   209A      2.153687   210A      2.158316
     211A      2.162415   212A      2.168890   213A      2.186384
     214A      2.199745   215A      2.227320   216A      2.248904
     217A      2.261066   218A      2.274245   219A      2.300181
     220A      2.317951   221A      2.323324   222A      2.326221
     223A      2.339206   224A      2.352147   225A      2.361036
     226A      2.391283   227A      2.403389   228A      2.451988
     229A      2.465736   230A      2.477370   231A      2.525413
     232A      2.543611   233A      2.569188   234A      2.585288
     235A      2.614176   236A      2.624292   237A      2.644791
     238A      2.658926   239A      2.665313   240A      2.692072
     241A      2.706104   242A      2.759705   243A      2.766945
     244A      2.770000   245A      2.780722   246A      2.782345
     247A      2.792725   248A      2.814247   249A      2.830344
     250A      2.836288   251A      2.852938   252A      2.897158
     253A      2.903319   254A      2.924160   255A      2.934230
     256A      2.962422   257A      2.966755   258A      3.011591
     259A      3.037898   260A      3.059374   261A      3.091572
     262A      3.108540   263A      3.225238   264A      3.311724
     265A      3.370861   266A      3.753596   267A      3.967965

    Final Occupation by Irrep:
              A
    DOCC [    48 ]

  @RHF Final Energy:  -518.79549891495105

   => Energetics <=

    Nuclear Repulsion Energy =            736.7717034638432096
    One-Electron Energy =               -2163.2656754771915075
    Two-Electron Energy =                 907.6984730983973577
    Total Energy =                       -518.7954989149510538

Computation Completed

Properties will be evaluated at   0.000000,   0.000000,   0.000000 [a0]

Properties computed using the SCF density matrix

  Nuclear Dipole Moment: [e a0]
     X:    11.6631      Y:     2.0379      Z:   -11.8653

  Electronic Dipole Moment: [e a0]
     X:   -11.4298      Y:    -2.5956      Z:    12.3122

  Dipole Moment: [e a0]
     X:     0.2332      Y:    -0.5576      Z:     0.4469     Total:     0.7517

  Dipole Moment: [D]
     X:     0.5928      Y:    -1.4173      Z:     1.1358     Total:     1.9106

*** tstop() called on ds3 at Tue Apr 28 03:05:03 2020
Module time:
	user time   =     232.63 seconds =       3.88 minutes
	system time =     100.47 seconds =       1.67 minutes
	total time  =        322 seconds =       5.37 minutes
Total time:
	user time   =     232.63 seconds =       3.88 minutes
	system time =     100.47 seconds =       1.67 minutes
	total time  =        322 seconds =       5.37 minutes
                                     G D M A

                                 by Anthony Stone

                           version 2.2.06, 22 June 2011

               Distributed Multipoles from Gaussian wavefunctions

Starting at 3:5:3 on 28 Apr 2020

Using SCF density matrix from file ./SSI/SSI-104TRP-205GLU-1-dimer.test.15850.fchk

                         Distributed Multipole Analysis

Standard DMA

Positions and radii in angstrom
Multipole moments in atomic units, ea_0^k for rank k

C          x = -3.649584  y = -1.719454  z =  1.150043 angstrom
           Maximum rank =  0   Radius =  0.650 angstrom
                   Q00  =  -0.166280

C          x = -0.188584  y = -0.304454  z =  1.091043 angstrom
           Maximum rank =  0   Radius =  0.650 angstrom
                   Q00  =   0.248762

C          x = -1.551584  y = -0.240454  z =  0.715043 angstrom
           Maximum rank =  0   Radius =  0.650 angstrom
                   Q00  =  -0.048795

C          x = -2.183584  y = -1.415454  z =  1.220043 angstrom
           Maximum rank =  0   Radius =  0.650 angstrom
                   Q00  =  -0.131218

C          x = -1.226584  y = -2.130454  z =  1.851043 angstrom
           Maximum rank =  0   Radius =  0.650 angstrom
                   Q00  =   0.071210

C          x =  0.241416  y =  1.785546  z =  0.045043 angstrom
           Maximum rank =  0   Radius =  0.650 angstrom
                   Q00  =  -0.000372

C          x =  0.698416  y =  0.690546  z =  0.762043 angstrom
           Maximum rank =  0   Radius =  0.650 angstrom
                   Q00  =  -0.130720

C          x = -1.096584  y =  1.886546  z = -0.342957 angstrom
           Maximum rank =  0   Radius =  0.650 angstrom
                   Q00  =  -0.095374

C          x = -2.003584  y =  0.876546  z = -0.014957 angstrom
           Maximum rank =  0   Radius =  0.650 angstrom
                   Q00  =  -0.103069

N          x = -0.007584  y = -1.475454  z =  1.785043 angstrom
           Maximum rank =  0   Radius =  0.650 angstrom
                   Q00  =  -0.507695

H          x =  0.930416  y =  2.570546  z = -0.216957 angstrom
           Maximum rank =  0   Radius =  0.325 angstrom
                   Q00  =   0.064053

H          x =  1.721416  y =  0.574546  z =  1.077043 angstrom
           Maximum rank =  0   Radius =  0.325 angstrom
                   Q00  =   0.072676

H          x = -1.451584  y =  2.743546  z = -0.899957 angstrom
           Maximum rank =  0   Radius =  0.325 angstrom
                   Q00  =   0.060986

H          x = -3.034584  y =  0.979546  z = -0.329957 angstrom
           Maximum rank =  0   Radius =  0.325 angstrom
                   Q00  =   0.068100

H          x =  0.872416  y = -1.790454  z =  2.177043 angstrom
           Maximum rank =  0   Radius =  0.325 angstrom
                   Q00  =   0.222161

H          x = -1.501584  y = -3.069454  z =  2.314043 angstrom
           Maximum rank =  0   Radius =  0.325 angstrom
                   Q00  =   0.102875

H          x = -3.783584  y = -2.763454  z =  1.423043 angstrom
           Maximum rank =  0   Radius =  0.325 angstrom
                   Q00  =   0.100104

H          x = -3.958584  y = -1.584454  z =  0.107043 angstrom
           Maximum rank =  0   Radius =  0.325 angstrom
                   Q00  =   0.085813

H          x = -4.202384  y = -1.109024  z =  1.879283 angstrom
           Maximum rank =  0   Radius =  0.325 angstrom
                   Q00  =   0.086523

C          x =  2.839416  y =  0.779546  z = -2.243957 angstrom
           Maximum rank =  0   Radius =  0.650 angstrom
                   Q00  =  -0.089385

C          x =  4.187416  y =  1.137546  z = -1.587957 angstrom
           Maximum rank =  0   Radius =  0.650 angstrom
                   Q00  =  -0.246384

C          x =  2.897416  y =  0.193546  z = -3.664957 angstrom
           Maximum rank =  0   Radius =  0.650 angstrom
                   Q00  =  -0.232673

H          x =  2.361416  y =  0.055546  z = -1.585957 angstrom
           Maximum rank =  0   Radius =  0.325 angstrom
                   Q00  =   0.054954

H          x =  2.245416  y =  1.693546  z = -2.257957 angstrom
           Maximum rank =  0   Radius =  0.325 angstrom
                   Q00  =   0.044075

H          x =  4.735416  y =  1.798546  z = -2.259957 angstrom
           Maximum rank =  0   Radius =  0.325 angstrom
                   Q00  =   0.075003

H          x =  3.777416  y = -0.444454  z = -3.725957 angstrom
           Maximum rank =  0   Radius =  0.325 angstrom
                   Q00  =   0.071374

H          x =  2.004416  y = -0.406454  z = -3.846957 angstrom
           Maximum rank =  0   Radius =  0.325 angstrom
                   Q00  =   0.087927

H          x =  4.777616  y =  0.229846  z = -1.393717 angstrom
           Maximum rank =  0   Radius =  0.325 angstrom
                   Q00  =   0.077583

H          x =  3.980456  y =  1.716146  z = -0.675617 angstrom
           Maximum rank =  0   Radius =  0.325 angstrom
                   Q00  =   0.078534

H          x =  2.966886  y =  0.975246  z = -4.435717 angstrom
           Maximum rank =  0   Radius =  0.325 angstrom
                   Q00  =   0.079255

Total multipoles referred to origin at
           x =   0.000000,  y =    0.000000,  z =    0.000000 angstrom
                   Q00  =  -0.000000

Finished at 3:5:3 on 28 Apr 2020

  DMA results are available in the Python driver through the
	  variable('DMA DISTRIBUTED MULTIPOLES')
  and
	  variable('DMA TOTAL MULTIPOLES')
  commands.

    Psi4 stopped on: Tuesday, 28 April 2020 03:05AM
    Psi4 wall time for execution: 0:05:21.93

*** Psi4 exiting successfully. Buy a developer a beer!
