                               Psi4 1.3.2 release

  ==> Input File <==

--------------------------------------------------------------------------
import numpy as np
set {scf_type pk
basis cc-pvdz
d_convergence 10
gdma_switch   0
gdma_limit    0
gdma_origin   [ 0.0,  0.0,  0.0 ]
}
molecule test {
    units Angstrom
    0 1
    --
    0 1
    C               -4.933311192780513    -0.692209992956812    -1.298385586460322
    C               -3.662311192780512    -0.428209992956812    -0.505385586460322
    O               -2.674311192780512    -1.159209992956812    -0.562385586460322
    N               -3.721311192780512     0.584790007043188     0.303614413539678
    H               -5.753311192780513    -0.078209992956812    -0.921385586460322
    H               -5.205311192780513    -1.740209992956812    -1.166385586460323
    H               -2.895311192780512     0.805790007043188     0.839614413539678
    H               -4.564311192780513     1.128790007043188     0.409614413539678
    H               -4.766070192780512    -0.476969992956812    -2.364075586460322
    C                4.172688807219488     1.114790007043188     2.128614413539677
    C                1.043688807219488    -0.202209992956812    -0.577385586460322
    C                2.377688807219488    -0.116209992956812    -1.073385586460323
    C                0.763688807219488     0.160790007043188     0.740614413539677
    C                3.403688807219488     0.332790007043188    -0.205385586460322
    C                1.775688807219488     0.607790007043188     1.562614413539677
    C                3.095688807219488     0.691790007043188     1.129614413539678
    O               -0.015311192780512    -0.665209992956812    -1.301385586460323
    H                0.244688807219488    -0.937209992956812    -2.201385586460323
    H                2.603688807219488    -0.417209992956812    -2.085385586460323
    H               -0.248311192780512     0.087790007043188     1.105614413539677
    H                4.424688807219488     0.386790007043188    -0.560385586460322
    H                1.533688807219488     0.892790007043188     2.576614413539678
    H                3.726688807219488     1.482790007043188     3.054614413539678
    H                4.746688807219487     1.927790007043188     1.680614413539677
    H                4.846398807219487     0.274430007043188     2.352004413539678

}
e, wfn = energy('scf', return_wfn=True)
gdma(wfn)
dmavals = variable('DMA DISTRIBUTED MULTIPOLES')
charges = np.array(dmavals)
print(charges)
np.save('SSI-183GLN-209TYR-1-dimer.npy', np.array(charges))--------------------------------------------------------------------------

*** tstart() called on ds3
*** at Tue Apr 28 15:40:40 2020

   => Loading Basis Set <=

    Name: CC-PVDZ
    Role: ORBITAL
    Keyword: BASIS
    atoms 1-2, 10-16 entry C          line   138 file /theoryfs2/ds/metcalf/miniconda2/envs/tf2gpu/share/psi4/basis/cc-pvdz.gbs
    atoms 3, 17      entry O          line   198 file /theoryfs2/ds/metcalf/miniconda2/envs/tf2gpu/share/psi4/basis/cc-pvdz.gbs
    atoms 4          entry N          line   168 file /theoryfs2/ds/metcalf/miniconda2/envs/tf2gpu/share/psi4/basis/cc-pvdz.gbs
    atoms 5-9, 18-25 entry H          line    22 file /theoryfs2/ds/metcalf/miniconda2/envs/tf2gpu/share/psi4/basis/cc-pvdz.gbs

         ---------------------------------------------------------
                                   SCF
               by Justin Turney, Rob Parrish, Andy Simmonett
                          and Daniel G. A. Smith
                              RHF Reference
                        1 Threads,    500 MiB Core
         ---------------------------------------------------------

  ==> Geometry <==

    Molecular point group: c1
    Full point group: C1

    Geometry (in Angstrom), charge = 0, multiplicity = 1:

       Center              X                  Y                   Z               Mass
    ------------   -----------------  -----------------  -----------------  -----------------
         C           -4.933311192781    -0.692209992957    -1.298385586460    12.000000000000
         C           -3.662311192781    -0.428209992957    -0.505385586460    12.000000000000
         O           -2.674311192781    -1.159209992957    -0.562385586460    15.994914619570
         N           -3.721311192781     0.584790007043     0.303614413540    14.003074004430
         H           -5.753311192781    -0.078209992957    -0.921385586460     1.007825032230
         H           -5.205311192781    -1.740209992957    -1.166385586460     1.007825032230
         H           -2.895311192781     0.805790007043     0.839614413540     1.007825032230
         H           -4.564311192781     1.128790007043     0.409614413540     1.007825032230
         H           -4.766070192781    -0.476969992957    -2.364075586460     1.007825032230
         C            4.172688807219     1.114790007043     2.128614413540    12.000000000000
         C            1.043688807219    -0.202209992957    -0.577385586460    12.000000000000
         C            2.377688807219    -0.116209992957    -1.073385586460    12.000000000000
         C            0.763688807219     0.160790007043     0.740614413540    12.000000000000
         C            3.403688807219     0.332790007043    -0.205385586460    12.000000000000
         C            1.775688807219     0.607790007043     1.562614413540    12.000000000000
         C            3.095688807219     0.691790007043     1.129614413540    12.000000000000
         O           -0.015311192781    -0.665209992957    -1.301385586460    15.994914619570
         H            0.244688807219    -0.937209992957    -2.201385586460     1.007825032230
         H            2.603688807219    -0.417209992957    -2.085385586460     1.007825032230
         H           -0.248311192781     0.087790007043     1.105614413540     1.007825032230
         H            4.424688807219     0.386790007043    -0.560385586460     1.007825032230
         H            1.533688807219     0.892790007043     2.576614413540     1.007825032230
         H            3.726688807219     1.482790007043     3.054614413540     1.007825032230
         H            4.746688807219     1.927790007043     1.680614413540     1.007825032230
         H            4.846398807219     0.274430007043     2.352004413540     1.007825032230

  Running in c1 symmetry.

  Rotational constants: A =      0.07943  B =      0.01011  C =      0.00917 [cm^-1]
  Rotational constants: A =   2381.31141  B =    303.18196  C =    274.79211 [MHz]
  Nuclear repulsion =  636.603983793301154

  Charge       = 0
  Multiplicity = 1
  Electrons    = 90
  Nalpha       = 45
  Nbeta        = 45

  ==> Algorithm <==

  SCF Algorithm Type is PK.
  DIIS enabled.
  MOM disabled.
  Fractional occupation disabled.
  Guess Type is SAD.
  Energy threshold   = 1.00e-06
  Density threshold  = 1.00e-10
  Integral threshold = 0.00e+00

  ==> Primary Basis <==

  Basis Set: CC-PVDZ
    Blend: CC-PVDZ
    Number of shells: 111
    Number of basis function: 233
    Number of Cartesian functions: 245
    Spherical Harmonics?: true
    Max angular momentum: 2

  ==> Pre-Iterations <==

   -------------------------------------------------------
    Irrep   Nso     Nmo     Nalpha   Nbeta   Ndocc  Nsocc
   -------------------------------------------------------
     A        233     233       0       0       0       0
   -------------------------------------------------------
    Total     233     233      45      45      45       0
   -------------------------------------------------------

  ==> Integral Setup <==

  Using integral reordering PK algorithm.
  Sizing the integral batches needed.
  Building batch lookup table.
   Calculation information:
      Number of atoms:                  25
      Number of AO shells:             111
      Number of primitives:            329
      Number of atomic orbitals:       245
      Number of basis functions:       233

      Integral cutoff                 1.00e-12
      Number of threads:                 1

	Batch   1 pq = [       0,    9405] index = [             0,44231715] size =     44231715
	Batch   2 pq = [    9405,   13301] index = [      44231715,88464951] size =     44233236
	Batch   3 pq = [   13301,   16290] index = [      88464951,132690195] size =     44225244
	Batch   4 pq = [   16290,   18810] index = [     132690195,176917455] size =     44227260
	Batch   5 pq = [   18810,   21030] index = [     176917455,221140965] size =     44223510
	Batch   6 pq = [   21030,   23037] index = [     221140965,265363203] size =     44222238
	Batch   7 pq = [   23037,   24883] index = [     265363203,309594286] size =     44231083
	Batch   8 pq = [   24883,   26601] index = [     309594286,353819901] size =     44225615
	Batch   9 pq = [   26601,   27261] index = [     353819901,371594691] size =     17774790
  Task number: 34
  Buffer size: 11059200
  Buffer per thread: 2
  We computed 13848290 shell quartets total.
  Whereas there are 19322436 unique shell quartets.

  ==> DiskJK: Disk-Based J/K Matrices <==

    J tasked:                  Yes
    K tasked:                  Yes
    wK tasked:                  No
    Memory [MiB]:              375
    Schwarz Cutoff:          1E-12

    OpenMP threads:              1

  Minimum eigenvalue in the overlap matrix is 3.3632515120E-04.
  Using Symmetric Orthogonalization.

  SCF Guess: Superposition of Atomic Densities via on-the-fly atomic UHF.

  ==> Iterations <==

                        Total Energy        Delta E     RMS |[F,P]|

   @RHF iter SAD:  -551.14082608069475   -5.51141e+02   0.00000e+00
   @RHF iter   1:  -552.27548983408872   -1.13466e+00   3.25584e-03 DIIS
   @RHF iter   2:  -552.53510676268161   -2.59617e-01   1.74386e-03 DIIS
   @RHF iter   3:  -552.59918082535910   -6.40741e-02   3.99270e-04 DIIS
   @RHF iter   4:  -552.60409430430730   -4.91348e-03   1.55372e-04 DIIS
   @RHF iter   5:  -552.60489533537623   -8.01031e-04   2.47720e-05 DIIS
   @RHF iter   6:  -552.60493520157320   -3.98662e-05   1.19949e-05 DIIS
   @RHF iter   7:  -552.60494251534578   -7.31377e-06   4.53869e-06 DIIS
   @RHF iter   8:  -552.60494405679856   -1.54145e-06   1.86793e-06 DIIS
   @RHF iter   9:  -552.60494429127618   -2.34478e-07   7.07425e-07 DIIS
   @RHF iter  10:  -552.60494432864698   -3.73708e-08   2.40952e-07 DIIS
   @RHF iter  11:  -552.60494433370445   -5.05747e-09   8.09068e-08 DIIS
   @RHF iter  12:  -552.60494433433598   -6.31530e-10   4.20873e-08 DIIS
   @RHF iter  13:  -552.60494433449287   -1.56888e-10   1.79022e-08 DIIS
   @RHF iter  14:  -552.60494433454187   -4.89990e-11   7.91816e-09 DIIS
   @RHF iter  15:  -552.60494433454824   -6.36646e-12   2.92662e-09 DIIS
   @RHF iter  16:  -552.60494433455199   -3.75167e-12   9.94107e-10 DIIS
   @RHF iter  17:  -552.60494433455028    1.70530e-12   3.86362e-10 DIIS
   @RHF iter  18:  -552.60494433454926    1.02318e-12   1.07960e-10 DIIS
   @RHF iter  19:  -552.60494433455278   -3.52429e-12   4.69785e-11 DIIS
  Energy and wave function converged.

  ==> Post-Iterations <==

    Orbital Energies [Eh]
    ---------------------

    Doubly Occupied:

       1A    -20.565256     2A    -20.490073     3A    -15.584148
       4A    -11.336069     5A    -11.291249     6A    -11.238658
       7A    -11.237321     8A    -11.231444     9A    -11.227364
      10A    -11.225080    11A    -11.223810    12A    -11.215121
      13A     -1.377459    14A     -1.359681    15A     -1.218366
      16A     -1.133455    17A     -1.020372    18A     -1.005047
      19A     -0.994141    20A     -0.913843    21A     -0.830076
      22A     -0.800150    23A     -0.788953    24A     -0.728105
      25A     -0.713617    26A     -0.650905    27A     -0.642806
      28A     -0.629694    29A     -0.608636    30A     -0.594526
      31A     -0.577237    32A     -0.570703    33A     -0.561636
      34A     -0.557421    35A     -0.551514    36A     -0.548880
      37A     -0.521041    38A     -0.514429    39A     -0.485659
      40A     -0.472702    41A     -0.452701    42A     -0.398279
      43A     -0.393007    44A     -0.328559    45A     -0.285848

    Virtual:

      46A      0.137717    47A      0.163997    48A      0.166197
      49A      0.191031    50A      0.193322    51A      0.203379
      52A      0.210771    53A      0.224235    54A      0.230447
      55A      0.239489    56A      0.272086    57A      0.274273
      58A      0.281270    59A      0.288044    60A      0.291827
      61A      0.345187    62A      0.372052    63A      0.376587
      64A      0.400314    65A      0.429513    66A      0.455761
      67A      0.482321    68A      0.500125    69A      0.501505
      70A      0.520780    71A      0.570451    72A      0.621688
      73A      0.633205    74A      0.637632    75A      0.652334
      76A      0.664126    77A      0.675809    78A      0.695056
      79A      0.699710    80A      0.707185    81A      0.717302
      82A      0.720542    83A      0.732498    84A      0.742157
      85A      0.744508    86A      0.751562    87A      0.770315
      88A      0.776307    89A      0.786917    90A      0.794858
      91A      0.804046    92A      0.835599    93A      0.836683
      94A      0.855061    95A      0.857373    96A      0.862178
      97A      0.883041    98A      0.889513    99A      0.893300
     100A      0.900638   101A      0.917945   102A      0.922363
     103A      0.932672   104A      0.938850   105A      0.943078
     106A      0.950852   107A      0.962796   108A      1.004547
     109A      1.014283   110A      1.025726   111A      1.029177
     112A      1.066642   113A      1.079015   114A      1.095833
     115A      1.128201   116A      1.137338   117A      1.154084
     118A      1.162789   119A      1.184828   120A      1.220908
     121A      1.242190   122A      1.250988   123A      1.270731
     124A      1.280175   125A      1.298657   126A      1.304531
     127A      1.314734   128A      1.329142   129A      1.345842
     130A      1.370439   131A      1.379134   132A      1.398023
     133A      1.417068   134A      1.424814   135A      1.446431
     136A      1.479258   137A      1.493800   138A      1.517762
     139A      1.522231   140A      1.566637   141A      1.608945
     142A      1.635173   143A      1.637400   144A      1.659522
     145A      1.678558   146A      1.689767   147A      1.704842
     148A      1.734695   149A      1.745549   150A      1.753743
     151A      1.785384   152A      1.807302   153A      1.817597
     154A      1.843522   155A      1.855348   156A      1.865239
     157A      1.875883   158A      1.886140   159A      1.892050
     160A      1.904348   161A      1.913905   162A      1.915611
     163A      1.929110   164A      1.935270   165A      1.941732
     166A      1.944539   167A      1.963806   168A      1.977295
     169A      1.985452   170A      2.006138   171A      2.022874
     172A      2.050614   173A      2.063551   174A      2.073116
     175A      2.074235   176A      2.077543   177A      2.086203
     178A      2.130237   179A      2.137599   180A      2.143949
     181A      2.168139   182A      2.194678   183A      2.212317
     184A      2.222998   185A      2.255121   186A      2.279498
     187A      2.301931   188A      2.308550   189A      2.362610
     190A      2.388827   191A      2.400355   192A      2.416667
     193A      2.445029   194A      2.451393   195A      2.458951
     196A      2.475334   197A      2.502654   198A      2.525316
     199A      2.548042   200A      2.560382   201A      2.575225
     202A      2.611479   203A      2.631798   204A      2.645207
     205A      2.730019   206A      2.750798   207A      2.775076
     208A      2.776605   209A      2.792881   210A      2.796099
     211A      2.814363   212A      2.839090   213A      2.877755
     214A      2.889995   215A      2.954135   216A      3.001538
     217A      3.008795   218A      3.072246   219A      3.102223
     220A      3.125376   221A      3.146394   222A      3.257892
     223A      3.272874   224A      3.297514   225A      3.360908
     226A      3.516455   227A      3.549281   228A      3.589487
     229A      3.697803   230A      3.887218   231A      3.921477
     232A      3.953291   233A      4.207472

    Final Occupation by Irrep:
              A
    DOCC [    45 ]

  @RHF Final Energy:  -552.60494433455278

   => Energetics <=

    Nuclear Repulsion Energy =            636.6039837933011540
    One-Electron Energy =               -2016.2277737220351810
    Two-Electron Energy =                 827.0188455941811299
    Total Energy =                       -552.6049443345527834

Computation Completed

Properties will be evaluated at   0.000000,   0.000000,   0.000000 [a0]

Properties computed using the SCF density matrix

  Nuclear Dipole Moment: [e a0]
     X:    -1.2265      Y:     3.1180      Z:     2.5398

  Electronic Dipole Moment: [e a0]
     X:     0.3407      Y:    -2.1034      Z:    -2.6226

  Dipole Moment: [e a0]
     X:    -0.8859      Y:     1.0146      Z:    -0.0828     Total:     1.3495

  Dipole Moment: [D]
     X:    -2.2516      Y:     2.5789      Z:    -0.2104     Total:     3.4300

*** tstop() called on ds3 at Tue Apr 28 15:46:10 2020
Module time:
	user time   =     117.61 seconds =       1.96 minutes
	system time =      59.02 seconds =       0.98 minutes
	total time  =        330 seconds =       5.50 minutes
Total time:
	user time   =     117.61 seconds =       1.96 minutes
	system time =      59.02 seconds =       0.98 minutes
	total time  =        330 seconds =       5.50 minutes
                                     G D M A

                                 by Anthony Stone

                           version 2.2.06, 22 June 2011

               Distributed Multipoles from Gaussian wavefunctions

Starting at 15:46:10 on 28 Apr 2020

Using SCF density matrix from file ./SSI/SSI-183GLN-209TYR-1-dimer.test.10837.fchk

                         Distributed Multipole Analysis

Standard DMA

Positions and radii in angstrom
Multipole moments in atomic units, ea_0^k for rank k

C          x = -4.933311  y = -0.692210  z = -1.298386 angstrom
           Maximum rank =  0   Radius =  0.650 angstrom
                   Q00  =  -0.260578

C          x = -3.662311  y = -0.428210  z = -0.505386 angstrom
           Maximum rank =  0   Radius =  0.650 angstrom
                   Q00  =   0.800502

O          x = -2.674311  y = -1.159210  z = -0.562386 angstrom
           Maximum rank =  0   Radius =  0.650 angstrom
                   Q00  =  -0.794559

N          x = -3.721311  y =  0.584790  z =  0.303614 angstrom
           Maximum rank =  0   Radius =  0.650 angstrom
                   Q00  =  -0.501432

H          x = -5.753311  y = -0.078210  z = -0.921386 angstrom
           Maximum rank =  0   Radius =  0.325 angstrom
                   Q00  =   0.070541

H          x = -5.205311  y = -1.740210  z = -1.166386 angstrom
           Maximum rank =  0   Radius =  0.325 angstrom
                   Q00  =   0.129377

H          x = -2.895311  y =  0.805790  z =  0.839614 angstrom
           Maximum rank =  0   Radius =  0.325 angstrom
                   Q00  =   0.222478

H          x = -4.564311  y =  1.128790  z =  0.409614 angstrom
           Maximum rank =  0   Radius =  0.325 angstrom
                   Q00  =   0.204894

H          x = -4.766070  y = -0.476970  z = -2.364076 angstrom
           Maximum rank =  0   Radius =  0.325 angstrom
                   Q00  =   0.130290

C          x =  4.172689  y =  1.114790  z =  2.128614 angstrom
           Maximum rank =  0   Radius =  0.650 angstrom
                   Q00  =  -0.200201

C          x =  1.043689  y = -0.202210  z = -0.577386 angstrom
           Maximum rank =  0   Radius =  0.650 angstrom
                   Q00  =   0.334361

C          x =  2.377689  y = -0.116210  z = -1.073386 angstrom
           Maximum rank =  0   Radius =  0.650 angstrom
                   Q00  =  -0.203811

C          x =  0.763689  y =  0.160790  z =  0.740614 angstrom
           Maximum rank =  0   Radius =  0.650 angstrom
                   Q00  =  -0.086514

C          x =  3.403689  y =  0.332790  z = -0.205386 angstrom
           Maximum rank =  0   Radius =  0.650 angstrom
                   Q00  =  -0.066419

C          x =  1.775689  y =  0.607790  z =  1.562614 angstrom
           Maximum rank =  0   Radius =  0.650 angstrom
                   Q00  =   0.028383

C          x =  3.095689  y =  0.691790  z =  1.129614 angstrom
           Maximum rank =  0   Radius =  0.650 angstrom
                   Q00  =  -0.141877

O          x = -0.015311  y = -0.665210  z = -1.301386 angstrom
           Maximum rank =  0   Radius =  0.650 angstrom
                   Q00  =  -0.623393

H          x =  0.244689  y = -0.937210  z = -2.201386 angstrom
           Maximum rank =  0   Radius =  0.325 angstrom
                   Q00  =   0.398422

H          x =  2.603689  y = -0.417210  z = -2.085386 angstrom
           Maximum rank =  0   Radius =  0.325 angstrom
                   Q00  =   0.076976

H          x = -0.248311  y =  0.087790  z =  1.105614 angstrom
           Maximum rank =  0   Radius =  0.325 angstrom
                   Q00  =   0.070357

H          x =  4.424689  y =  0.386790  z = -0.560386 angstrom
           Maximum rank =  0   Radius =  0.325 angstrom
                   Q00  =   0.069863

H          x =  1.533689  y =  0.892790  z =  2.576614 angstrom
           Maximum rank =  0   Radius =  0.325 angstrom
                   Q00  =   0.053781

H          x =  3.726689  y =  1.482790  z =  3.054614 angstrom
           Maximum rank =  0   Radius =  0.325 angstrom
                   Q00  =   0.096425

H          x =  4.746689  y =  1.927790  z =  1.680614 angstrom
           Maximum rank =  0   Radius =  0.325 angstrom
                   Q00  =   0.094419

H          x =  4.846399  y =  0.274430  z =  2.352004 angstrom
           Maximum rank =  0   Radius =  0.325 angstrom
                   Q00  =   0.097715

Total multipoles referred to origin at
           x =   0.000000,  y =    0.000000,  z =    0.000000 angstrom
                   Q00  =  -0.000000

Finished at 15:46:10 on 28 Apr 2020

  DMA results are available in the Python driver through the
	  variable('DMA DISTRIBUTED MULTIPOLES')
  and
	  variable('DMA TOTAL MULTIPOLES')
  commands.

    Psi4 stopped on: Tuesday, 28 April 2020 03:46PM
    Psi4 wall time for execution: 0:05:30.34

*** Psi4 exiting successfully. Buy a developer a beer!
