                               Psi4 1.3.2 release

  ==> Input File <==

--------------------------------------------------------------------------
import numpy as np
set {scf_type pk
basis cc-pvdz
d_convergence 10
gdma_switch   0
gdma_limit    0
gdma_origin   [ 0.0,  0.0,  0.0 ]
}
molecule test {
    units Angstrom
    0 1
    --
    0 1
    C                0.148828272205878    -1.178735216745548    -1.355309536130248
    C               -0.357171727794122    -1.199735216745548    -2.810309536130247
    C                0.253828272205878     0.187264783254452    -0.719309536130248
    C               -0.809171727794122     0.772264783254452    -0.064309536130247
    C                1.445828272205878     0.876264783254452    -0.775309536130247
    C               -0.682171727794122     2.036264783254452     0.539690463869753
    C                1.581828272205878     2.118264783254452    -0.206309536130247
    C                0.530828272205878     2.697264783254453     0.450690463869753
    H               -0.496171727794122    -1.812735216745548    -0.750309536130248
    H                1.135828272205878    -1.605735216745548    -1.327309536130247
    H               -0.075171727794122    -2.168735216745548    -3.208309536130248
    H               -1.745171727794122     0.241264783254452     0.000690463869753
    H                2.293828272205878     0.435264783254452    -1.280309536130248
    H               -1.516171727794122     2.488264783254452     1.060690463869753
    H                2.527828272205877     2.639264783254453    -0.272309536130247
    H                0.647828272205878     3.673264783254452     0.903690463869752
    H                0.126524272205878    -0.418555216745548    -3.415119536130247
    H               -1.455465727794122    -1.165595216745548    -2.861156536130247
    C               -0.193171727794122    -2.390735216745548     2.123690463869753
    C               -1.594171727794122    -2.807735216745548     2.559690463869753
    H                0.042828272205878    -2.784735216745548     1.139690463869753
    H               -0.116171727794122    -1.304735216745548     2.110690463869752
    H                0.534828272205878    -2.777735216745548     2.834690463869753
    H               -1.690171727794122    -2.467735216745548     3.591690463869753
    H               -1.706741727794122    -3.901865216745548     2.545350463869752
    H               -2.381341727794122    -2.293455216745548     1.988830463869752

}
e, wfn = energy('scf', return_wfn=True)
gdma(wfn)
dmavals = variable('DMA DISTRIBUTED MULTIPOLES')
charges = np.array(dmavals)
print(charges)
np.save('SSI-125PHE-143VAL-1-dimer.npy', np.array(charges))--------------------------------------------------------------------------

*** tstart() called on ds3
*** at Sun Apr 26 20:47:04 2020

   => Loading Basis Set <=

    Name: CC-PVDZ
    Role: ORBITAL
    Keyword: BASIS
    atoms 1-8, 19-20  entry C          line   138 file /theoryfs2/ds/metcalf/miniconda2/envs/tf2gpu/share/psi4/basis/cc-pvdz.gbs
    atoms 9-18, 21-26 entry H          line    22 file /theoryfs2/ds/metcalf/miniconda2/envs/tf2gpu/share/psi4/basis/cc-pvdz.gbs

         ---------------------------------------------------------
                                   SCF
               by Justin Turney, Rob Parrish, Andy Simmonett
                          and Daniel G. A. Smith
                              RHF Reference
                        1 Threads,    500 MiB Core
         ---------------------------------------------------------

  ==> Geometry <==

    Molecular point group: c1
    Full point group: C1

    Geometry (in Angstrom), charge = 0, multiplicity = 1:

       Center              X                  Y                   Z               Mass
    ------------   -----------------  -----------------  -----------------  -----------------
         C            0.148828272206    -1.178735216746    -1.355309536130    12.000000000000
         C           -0.357171727794    -1.199735216746    -2.810309536130    12.000000000000
         C            0.253828272206     0.187264783254    -0.719309536130    12.000000000000
         C           -0.809171727794     0.772264783254    -0.064309536130    12.000000000000
         C            1.445828272206     0.876264783254    -0.775309536130    12.000000000000
         C           -0.682171727794     2.036264783254     0.539690463870    12.000000000000
         C            1.581828272206     2.118264783254    -0.206309536130    12.000000000000
         C            0.530828272206     2.697264783254     0.450690463870    12.000000000000
         H           -0.496171727794    -1.812735216746    -0.750309536130     1.007825032230
         H            1.135828272206    -1.605735216746    -1.327309536130     1.007825032230
         H           -0.075171727794    -2.168735216746    -3.208309536130     1.007825032230
         H           -1.745171727794     0.241264783254     0.000690463870     1.007825032230
         H            2.293828272206     0.435264783254    -1.280309536130     1.007825032230
         H           -1.516171727794     2.488264783254     1.060690463870     1.007825032230
         H            2.527828272206     2.639264783254    -0.272309536130     1.007825032230
         H            0.647828272206     3.673264783254     0.903690463870     1.007825032230
         H            0.126524272206    -0.418555216746    -3.415119536130     1.007825032230
         H           -1.455465727794    -1.165595216746    -2.861156536130     1.007825032230
         C           -0.193171727794    -2.390735216746     2.123690463870    12.000000000000
         C           -1.594171727794    -2.807735216746     2.559690463870    12.000000000000
         H            0.042828272206    -2.784735216746     1.139690463870     1.007825032230
         H           -0.116171727794    -1.304735216746     2.110690463870     1.007825032230
         H            0.534828272206    -2.777735216746     2.834690463870     1.007825032230
         H           -1.690171727794    -2.467735216746     3.591690463870     1.007825032230
         H           -1.706741727794    -3.901865216746     2.545350463870     1.007825032230
         H           -2.381341727794    -2.293455216746     1.988830463870     1.007825032230

  Running in c1 symmetry.

  Rotational constants: A =      0.04401  B =      0.02511  C =      0.01903 [cm^-1]
  Rotational constants: A =   1319.43670  B =    752.87699  C =    570.51805 [MHz]
  Nuclear repulsion =  496.125537393955426

  Charge       = 0
  Multiplicity = 1
  Electrons    = 76
  Nalpha       = 38
  Nbeta        = 38

  ==> Algorithm <==

  SCF Algorithm Type is PK.
  DIIS enabled.
  MOM disabled.
  Fractional occupation disabled.
  Guess Type is SAD.
  Energy threshold   = 1.00e-06
  Density threshold  = 1.00e-10
  Integral threshold = 0.00e+00

  ==> Primary Basis <==

  Basis Set: CC-PVDZ
    Blend: CC-PVDZ
    Number of shells: 108
    Number of basis function: 220
    Number of Cartesian functions: 230
    Spherical Harmonics?: true
    Max angular momentum: 2

  ==> Pre-Iterations <==

   -------------------------------------------------------
    Irrep   Nso     Nmo     Nalpha   Nbeta   Ndocc  Nsocc
   -------------------------------------------------------
     A        220     220       0       0       0       0
   -------------------------------------------------------
    Total     220     220      38      38      38       0
   -------------------------------------------------------

  ==> Integral Setup <==

  Using integral reordering PK algorithm.
  Sizing the integral batches needed.
  Building batch lookup table.
   Calculation information:
      Number of atoms:                  26
      Number of AO shells:             108
      Number of primitives:            300
      Number of atomic orbitals:       230
      Number of basis functions:       220

      Integral cutoff                 1.00e-12
      Number of threads:                 1

	Batch   1 pq = [       0,    9405] index = [             0,44231715] size =     44231715
	Batch   2 pq = [    9405,   13301] index = [      44231715,88464951] size =     44233236
	Batch   3 pq = [   13301,   16290] index = [      88464951,132690195] size =     44225244
	Batch   4 pq = [   16290,   18810] index = [     132690195,176917455] size =     44227260
	Batch   5 pq = [   18810,   21030] index = [     176917455,221140965] size =     44223510
	Batch   6 pq = [   21030,   23037] index = [     221140965,265363203] size =     44222238
	Batch   7 pq = [   23037,   24310] index = [     265363203,295500205] size =     30137002
  Task number: 27
  Buffer size: 11059200
  Buffer per thread: 2
  We computed 16414184 shell quartets total.
  Whereas there are 17325441 unique shell quartets.

  ==> DiskJK: Disk-Based J/K Matrices <==

    J tasked:                  Yes
    K tasked:                  Yes
    wK tasked:                  No
    Memory [MiB]:              375
    Schwarz Cutoff:          1E-12

    OpenMP threads:              1

  Minimum eigenvalue in the overlap matrix is 2.8222133120E-04.
  Using Symmetric Orthogonalization.

  SCF Guess: Superposition of Atomic Densities via on-the-fly atomic UHF.

  ==> Iterations <==

                        Total Energy        Delta E     RMS |[F,P]|

   @RHF iter SAD:  -387.00078128804512   -3.87001e+02   0.00000e+00
   @RHF iter   1:  -387.76979720650422   -7.69016e-01   2.74752e-03 DIIS
   @RHF iter   2:  -387.98656852033218   -2.16771e-01   1.14763e-03 DIIS
   @RHF iter   3:  -388.02127614674509   -3.47076e-02   2.48612e-04 DIIS
   @RHF iter   4:  -388.02410301570558   -2.82687e-03   5.91085e-05 DIIS
   @RHF iter   5:  -388.02420876576895   -1.05750e-04   2.09649e-05 DIIS
   @RHF iter   6:  -388.02422270029928   -1.39345e-05   4.07798e-06 DIIS
   @RHF iter   7:  -388.02422336888310   -6.68584e-07   1.12926e-06 DIIS
   @RHF iter   8:  -388.02422341979940   -5.09163e-08   2.84619e-07 DIIS
   @RHF iter   9:  -388.02422342592263   -6.12323e-09   1.20034e-07 DIIS
   @RHF iter  10:  -388.02422342733900   -1.41637e-09   6.30645e-08 DIIS
   @RHF iter  11:  -388.02422342785627   -5.17275e-10   2.67599e-08 DIIS
   @RHF iter  12:  -388.02422342795120   -9.49285e-11   1.10397e-08 DIIS
   @RHF iter  13:  -388.02422342796353   -1.23350e-11   3.77620e-09 DIIS
   @RHF iter  14:  -388.02422342796456   -1.02318e-12   9.66896e-10 DIIS
   @RHF iter  15:  -388.02422342796592   -1.36424e-12   3.53414e-10 DIIS
   @RHF iter  16:  -388.02422342796638   -4.54747e-13   1.48009e-10 DIIS
   @RHF iter  17:  -388.02422342796723   -8.52651e-13   6.71348e-11 DIIS
  Energy and wave function converged.

  ==> Post-Iterations <==

    Orbital Energies [Eh]
    ---------------------

    Doubly Occupied:

       1A    -11.235517     2A    -11.232549     3A    -11.229222
       4A    -11.228931     5A    -11.227107     6A    -11.227063
       7A    -11.224816     8A    -11.223645     9A    -11.217470
      10A    -11.210968    11A     -1.159884    12A     -1.063726
      13A     -1.016855    14A     -1.011965    15A     -0.985424
      16A     -0.863398    17A     -0.833980    18A     -0.827960
      19A     -0.786343    20A     -0.692623    21A     -0.642514
      22A     -0.631010    23A     -0.598250    24A     -0.596905
      25A     -0.589773    26A     -0.587038    27A     -0.576854
      28A     -0.541502    29A     -0.519532    30A     -0.500347
      31A     -0.498132    32A     -0.489231    33A     -0.483578
      34A     -0.479287    35A     -0.473034    36A     -0.464948
      37A     -0.331539    38A     -0.325378

    Virtual:

      39A      0.136987    40A      0.141929    41A      0.171831
      42A      0.193509    43A      0.201518    44A      0.211161
      45A      0.232568    46A      0.235612    47A      0.246103
      48A      0.251369    49A      0.263808    50A      0.263899
      51A      0.274178    52A      0.278066    53A      0.286848
      54A      0.308744    55A      0.320731    56A      0.341042
      57A      0.352490    58A      0.392578    59A      0.400430
      60A      0.418442    61A      0.456352    62A      0.470993
      63A      0.494515    64A      0.501946    65A      0.565711
      66A      0.577246    67A      0.601692    68A      0.602652
      69A      0.610708    70A      0.628396    71A      0.632760
      72A      0.643902    73A      0.680662    74A      0.693550
      75A      0.696865    76A      0.717287    77A      0.733740
      78A      0.741508    79A      0.745355    80A      0.751198
      81A      0.755867    82A      0.770012    83A      0.793615
      84A      0.802169    85A      0.833273    86A      0.845543
      87A      0.855487    88A      0.863795    89A      0.874082
      90A      0.881158    91A      0.886706    92A      0.889564
      93A      0.897768    94A      0.904246    95A      0.908203
      96A      0.916473    97A      0.931095    98A      0.936683
      99A      0.941103   100A      0.945573   101A      0.957628
     102A      0.963002   103A      0.980226   104A      0.995220
     105A      1.009336   106A      1.015622   107A      1.047893
     108A      1.066424   109A      1.124663   110A      1.130113
     111A      1.139053   112A      1.150540   113A      1.162949
     114A      1.170209   115A      1.181184   116A      1.228063
     117A      1.244410   118A      1.249252   119A      1.257155
     120A      1.275733   121A      1.299857   122A      1.307150
     123A      1.321973   124A      1.332033   125A      1.396819
     126A      1.427923   127A      1.453352   128A      1.477315
     129A      1.485984   130A      1.501477   131A      1.539372
     132A      1.574800   133A      1.597289   134A      1.621057
     135A      1.672576   136A      1.682119   137A      1.690753
     138A      1.703045   139A      1.737759   140A      1.753701
     141A      1.762074   142A      1.772393   143A      1.839020
     144A      1.860356   145A      1.865162   146A      1.869872
     147A      1.873531   148A      1.887269   149A      1.890851
     150A      1.894562   151A      1.906301   152A      1.918599
     153A      1.928975   154A      1.939714   155A      1.941904
     156A      1.950011   157A      1.950322   158A      1.956825
     159A      1.961562   160A      1.969618   161A      1.985305
     162A      1.988130   163A      1.991743   164A      1.996182
     165A      2.010843   166A      2.026902   167A      2.034789
     168A      2.076923   169A      2.085873   170A      2.094401
     171A      2.105779   172A      2.127355   173A      2.150723
     174A      2.165481   175A      2.174382   176A      2.177506
     177A      2.190880   178A      2.212367   179A      2.254060
     180A      2.266667   181A      2.279658   182A      2.296684
     183A      2.312432   184A      2.317995   185A      2.323042
     186A      2.345128   187A      2.397246   188A      2.449228
     189A      2.457126   190A      2.467005   191A      2.482640
     192A      2.490973   193A      2.530460   194A      2.553591
     195A      2.567015   196A      2.583398   197A      2.595586
     198A      2.655175   199A      2.741432   200A      2.763247
     201A      2.771628   202A      2.786727   203A      2.800596
     204A      2.808131   205A      2.814496   206A      2.842949
     207A      2.852995   208A      2.868864   209A      2.875689
     210A      2.930141   211A      2.958611   212A      2.979398
     213A      3.000209   214A      3.010447   215A      3.039967
     216A      3.071344   217A      3.200740   218A      3.224964
     219A      3.327357   220A      4.002803

    Final Occupation by Irrep:
              A
    DOCC [    38 ]

  @RHF Final Energy:  -388.02422342796723

   => Energetics <=

    Nuclear Repulsion Energy =            496.1255373939554261
    One-Electron Energy =               -1506.6429283423090055
    Two-Electron Energy =                 622.4931675203863506
    Total Energy =                       -388.0242234279671720

Computation Completed

Properties will be evaluated at   0.000000,   0.000000,   0.000000 [a0]

Properties computed using the SCF density matrix

  Nuclear Dipole Moment: [e a0]
     X:    -3.6309      Y:   -12.3974      Z:     2.8698

  Electronic Dipole Moment: [e a0]
     X:     3.6660      Y:    12.3127      Z:    -2.9204

  Dipole Moment: [e a0]
     X:     0.0351      Y:    -0.0847      Z:    -0.0506     Total:     0.1047

  Dipole Moment: [D]
     X:     0.0892      Y:    -0.2153      Z:    -0.1287     Total:     0.2662

*** tstop() called on ds3 at Sun Apr 26 20:49:55 2020
Module time:
	user time   =     129.55 seconds =       2.16 minutes
	system time =      47.82 seconds =       0.80 minutes
	total time  =        171 seconds =       2.85 minutes
Total time:
	user time   =     129.55 seconds =       2.16 minutes
	system time =      47.82 seconds =       0.80 minutes
	total time  =        171 seconds =       2.85 minutes
                                     G D M A

                                 by Anthony Stone

                           version 2.2.06, 22 June 2011

               Distributed Multipoles from Gaussian wavefunctions

Starting at 20:49:55 on 26 Apr 2020

Using SCF density matrix from file ./SSI/SSI-125PHE-143VAL-1-dimer.test.10189.fchk

                         Distributed Multipole Analysis

Standard DMA

Positions and radii in angstrom
Multipole moments in atomic units, ea_0^k for rank k

C          x =  0.148828  y = -1.178735  z = -1.355310 angstrom
           Maximum rank =  0   Radius =  0.650 angstrom
                   Q00  =  -0.026614

C          x = -0.357172  y = -1.199735  z = -2.810310 angstrom
           Maximum rank =  0   Radius =  0.650 angstrom
                   Q00  =  -0.255709

C          x =  0.253828  y =  0.187265  z = -0.719310 angstrom
           Maximum rank =  0   Radius =  0.650 angstrom
                   Q00  =  -0.112456

C          x = -0.809172  y =  0.772265  z = -0.064310 angstrom
           Maximum rank =  0   Radius =  0.650 angstrom
                   Q00  =  -0.097109

C          x =  1.445828  y =  0.876265  z = -0.775310 angstrom
           Maximum rank =  0   Radius =  0.650 angstrom
                   Q00  =   0.001094

C          x = -0.682172  y =  2.036265  z =  0.539690 angstrom
           Maximum rank =  0   Radius =  0.650 angstrom
                   Q00  =  -0.074992

C          x =  1.581828  y =  2.118265  z = -0.206310 angstrom
           Maximum rank =  0   Radius =  0.650 angstrom
                   Q00  =  -0.060171

C          x =  0.530828  y =  2.697265  z =  0.450690 angstrom
           Maximum rank =  0   Radius =  0.650 angstrom
                   Q00  =  -0.057201

H          x = -0.496172  y = -1.812735  z = -0.750310 angstrom
           Maximum rank =  0   Radius =  0.325 angstrom
                   Q00  =   0.070712

H          x =  1.135828  y = -1.605735  z = -1.327310 angstrom
           Maximum rank =  0   Radius =  0.325 angstrom
                   Q00  =   0.066785

H          x = -0.075172  y = -2.168735  z = -3.208310 angstrom
           Maximum rank =  0   Radius =  0.325 angstrom
                   Q00  =   0.085137

H          x = -1.745172  y =  0.241265  z =  0.000690 angstrom
           Maximum rank =  0   Radius =  0.325 angstrom
                   Q00  =   0.054139

H          x =  2.293828  y =  0.435265  z = -1.280310 angstrom
           Maximum rank =  0   Radius =  0.325 angstrom
                   Q00  =   0.049731

H          x = -1.516172  y =  2.488265  z =  1.060690 angstrom
           Maximum rank =  0   Radius =  0.325 angstrom
                   Q00  =   0.066084

H          x =  2.527828  y =  2.639265  z = -0.272310 angstrom
           Maximum rank =  0   Radius =  0.325 angstrom
                   Q00  =   0.058912

H          x =  0.647828  y =  3.673265  z =  0.903690 angstrom
           Maximum rank =  0   Radius =  0.325 angstrom
                   Q00  =   0.057630

H          x =  0.126524  y = -0.418555  z = -3.415120 angstrom
           Maximum rank =  0   Radius =  0.325 angstrom
                   Q00  =   0.088921

H          x = -1.455466  y = -1.165595  z = -2.861157 angstrom
           Maximum rank =  0   Radius =  0.325 angstrom
                   Q00  =   0.084822

C          x = -0.193172  y = -2.390735  z =  2.123690 angstrom
           Maximum rank =  0   Radius =  0.650 angstrom
                   Q00  =  -0.234152

C          x = -1.594172  y = -2.807735  z =  2.559690 angstrom
           Maximum rank =  0   Radius =  0.650 angstrom
                   Q00  =  -0.237408

H          x =  0.042828  y = -2.784735  z =  1.139690 angstrom
           Maximum rank =  0   Radius =  0.325 angstrom
                   Q00  =   0.073862

H          x = -0.116172  y = -1.304735  z =  2.110690 angstrom
           Maximum rank =  0   Radius =  0.325 angstrom
                   Q00  =   0.091375

H          x =  0.534828  y = -2.777735  z =  2.834690 angstrom
           Maximum rank =  0   Radius =  0.325 angstrom
                   Q00  =   0.076773

H          x = -1.690172  y = -2.467735  z =  3.591690 angstrom
           Maximum rank =  0   Radius =  0.325 angstrom
                   Q00  =   0.074044

H          x = -1.706742  y = -3.901865  z =  2.545350 angstrom
           Maximum rank =  0   Radius =  0.325 angstrom
                   Q00  =   0.079452

H          x = -2.381342  y = -2.293455  z =  1.988830 angstrom
           Maximum rank =  0   Radius =  0.325 angstrom
                   Q00  =   0.076336

Total multipoles referred to origin at
           x =   0.000000,  y =    0.000000,  z =    0.000000 angstrom
                   Q00  =  -0.000000

Finished at 20:49:55 on 26 Apr 2020

  DMA results are available in the Python driver through the
	  variable('DMA DISTRIBUTED MULTIPOLES')
  and
	  variable('DMA TOTAL MULTIPOLES')
  commands.

    Psi4 stopped on: Sunday, 26 April 2020 08:49PM
    Psi4 wall time for execution: 0:02:51.03

*** Psi4 exiting successfully. Buy a developer a beer!
