                               Psi4 1.3.2 release

  ==> Input File <==

--------------------------------------------------------------------------
import numpy as np
set {scf_type pk
basis cc-pvdz
d_convergence 10
gdma_switch   0
gdma_limit    0
gdma_origin   [ 0.0,  0.0,  0.0 ]
}
molecule test {
    units Angstrom
    0 1
    --
    0 1
    C                1.964973805575939     1.135981197992408    -2.792087845594953
    C               -1.072026194424061    -0.195018802007592    -0.922087845594953
    C               -1.387026194424061     0.882981197992408    -0.102087845594953
    C                0.008973805575939    -0.110018802007592    -1.790087845594953
    C                0.784973805575939     1.045981197992408    -1.850087845594953
    C               -0.616026194424061     2.037981197992408    -0.143087845594953
    C                0.463973805575939     2.114981197992408    -1.016087845594953
    O               -2.445026194424061     0.802981197992408     0.753912154405047
    H               -1.660026194424061    -1.094018802007592    -0.861087845594953
    H                0.244973805575939    -0.952018802007592    -2.428087845594953
    H               -0.807026194424061     2.847981197992408     0.544912154405047
    H               -2.712026194424061     1.673981197992408     1.063912154405047
    H                2.061973805575939     2.167981197992408    -3.133087845594953
    H                1.742973805575939     0.529981197992408    -3.665087845594953
    H                1.073973805575939     3.009981197992408    -1.035087845594953
    H                2.919933805575939     0.823151197992408    -2.344667845594953
    C                0.767973805575939    -2.023018802007592     1.866912154405047
    C                1.703973805575939    -3.219018802007592     2.038912154405047
    C               -0.122026194424061    -1.865018802007592     3.096912154405047
    H                1.344973805575939    -1.113018802007592     1.702912154405047
    H                0.131973805575939    -2.191018802007592     0.996912154405047
    H                2.063973805575939    -3.529018802007592     1.057912154405047
    H                1.130973805575939    -4.049018802007592     2.450912154405047
    H               -0.824026194424061    -2.701018802007592     3.125912154405047
    H                0.475973805575939    -1.915018802007592     4.006912154405048
    H                2.564173805575939    -3.017848802007592     2.694342154405047
    H               -0.688566194424061    -0.922788802007592     3.061602154405047

}
e, wfn = energy('scf', return_wfn=True)
gdma(wfn)
dmavals = variable('DMA DISTRIBUTED MULTIPOLES')
charges = np.array(dmavals)
print(charges)
np.save('SSI-072TYR-076ARG-2-dimer.npy', np.array(charges))--------------------------------------------------------------------------

*** tstart() called on ds3
*** at Mon Apr 27 13:51:09 2020

   => Loading Basis Set <=

    Name: CC-PVDZ
    Role: ORBITAL
    Keyword: BASIS
    atoms 1-7, 17-19  entry C          line   138 file /theoryfs2/ds/metcalf/miniconda2/envs/tf2gpu/share/psi4/basis/cc-pvdz.gbs
    atoms 8           entry O          line   198 file /theoryfs2/ds/metcalf/miniconda2/envs/tf2gpu/share/psi4/basis/cc-pvdz.gbs
    atoms 9-16, 20-27 entry H          line    22 file /theoryfs2/ds/metcalf/miniconda2/envs/tf2gpu/share/psi4/basis/cc-pvdz.gbs

         ---------------------------------------------------------
                                   SCF
               by Justin Turney, Rob Parrish, Andy Simmonett
                          and Daniel G. A. Smith
                              RHF Reference
                        1 Threads,    500 MiB Core
         ---------------------------------------------------------

  ==> Geometry <==

    Molecular point group: c1
    Full point group: C1

    Geometry (in Angstrom), charge = 0, multiplicity = 1:

       Center              X                  Y                   Z               Mass
    ------------   -----------------  -----------------  -----------------  -----------------
         C            1.964973805576     1.135981197992    -2.792087845595    12.000000000000
         C           -1.072026194424    -0.195018802008    -0.922087845595    12.000000000000
         C           -1.387026194424     0.882981197992    -0.102087845595    12.000000000000
         C            0.008973805576    -0.110018802008    -1.790087845595    12.000000000000
         C            0.784973805576     1.045981197992    -1.850087845595    12.000000000000
         C           -0.616026194424     2.037981197992    -0.143087845595    12.000000000000
         C            0.463973805576     2.114981197992    -1.016087845595    12.000000000000
         O           -2.445026194424     0.802981197992     0.753912154405    15.994914619570
         H           -1.660026194424    -1.094018802008    -0.861087845595     1.007825032230
         H            0.244973805576    -0.952018802008    -2.428087845595     1.007825032230
         H           -0.807026194424     2.847981197992     0.544912154405     1.007825032230
         H           -2.712026194424     1.673981197992     1.063912154405     1.007825032230
         H            2.061973805576     2.167981197992    -3.133087845595     1.007825032230
         H            1.742973805576     0.529981197992    -3.665087845595     1.007825032230
         H            1.073973805576     3.009981197992    -1.035087845595     1.007825032230
         H            2.919933805576     0.823151197992    -2.344667845595     1.007825032230
         C            0.767973805576    -2.023018802008     1.866912154405    12.000000000000
         C            1.703973805576    -3.219018802008     2.038912154405    12.000000000000
         C           -0.122026194424    -1.865018802008     3.096912154405    12.000000000000
         H            1.344973805576    -1.113018802008     1.702912154405     1.007825032230
         H            0.131973805576    -2.191018802008     0.996912154405     1.007825032230
         H            2.063973805576    -3.529018802008     1.057912154405     1.007825032230
         H            1.130973805576    -4.049018802008     2.450912154405     1.007825032230
         H           -0.824026194424    -2.701018802008     3.125912154405     1.007825032230
         H            0.475973805576    -1.915018802008     4.006912154405     1.007825032230
         H            2.564173805576    -3.017848802008     2.694342154405     1.007825032230
         H           -0.688566194424    -0.922788802008     3.061602154405     1.007825032230

  Running in c1 symmetry.

  Rotational constants: A =      0.03910  B =      0.01905  C =      0.01461 [cm^-1]
  Rotational constants: A =   1172.26337  B =    571.22531  C =    438.09210 [MHz]
  Nuclear repulsion =  580.150574449785040

  Charge       = 0
  Multiplicity = 1
  Electrons    = 84
  Nalpha       = 42
  Nbeta        = 42

  ==> Algorithm <==

  SCF Algorithm Type is PK.
  DIIS enabled.
  MOM disabled.
  Fractional occupation disabled.
  Guess Type is SAD.
  Energy threshold   = 1.00e-06
  Density threshold  = 1.00e-10
  Integral threshold = 0.00e+00

  ==> Primary Basis <==

  Basis Set: CC-PVDZ
    Blend: CC-PVDZ
    Number of shells: 114
    Number of basis function: 234
    Number of Cartesian functions: 245
    Spherical Harmonics?: true
    Max angular momentum: 2

  ==> Pre-Iterations <==

   -------------------------------------------------------
    Irrep   Nso     Nmo     Nalpha   Nbeta   Ndocc  Nsocc
   -------------------------------------------------------
     A        234     234       0       0       0       0
   -------------------------------------------------------
    Total     234     234      42      42      42       0
   -------------------------------------------------------

  ==> Integral Setup <==

  Using integral reordering PK algorithm.
  Sizing the integral batches needed.
  Building batch lookup table.
   Calculation information:
      Number of atoms:                  27
      Number of AO shells:             114
      Number of primitives:            322
      Number of atomic orbitals:       245
      Number of basis functions:       234

      Integral cutoff                 1.00e-12
      Number of threads:                 1

	Batch   1 pq = [       0,    9405] index = [             0,44231715] size =     44231715
	Batch   2 pq = [    9405,   13301] index = [      44231715,88464951] size =     44233236
	Batch   3 pq = [   13301,   16290] index = [      88464951,132690195] size =     44225244
	Batch   4 pq = [   16290,   18810] index = [     132690195,176917455] size =     44227260
	Batch   5 pq = [   18810,   21030] index = [     176917455,221140965] size =     44223510
	Batch   6 pq = [   21030,   23037] index = [     221140965,265363203] size =     44222238
	Batch   7 pq = [   23037,   24883] index = [     265363203,309594286] size =     44231083
	Batch   8 pq = [   24883,   26601] index = [     309594286,353819901] size =     44225615
	Batch   9 pq = [   26601,   27495] index = [     353819901,378001260] size =     24181359
  Task number: 35
  Buffer size: 11059200
  Buffer per thread: 2
  We computed 19139279 shell quartets total.
  Whereas there are 21487290 unique shell quartets.

  ==> DiskJK: Disk-Based J/K Matrices <==

    J tasked:                  Yes
    K tasked:                  Yes
    wK tasked:                  No
    Memory [MiB]:              375
    Schwarz Cutoff:          1E-12

    OpenMP threads:              1

  Minimum eigenvalue in the overlap matrix is 3.2006993596E-04.
  Using Symmetric Orthogonalization.

  SCF Guess: Superposition of Atomic Densities via on-the-fly atomic UHF.

  ==> Iterations <==

                        Total Energy        Delta E     RMS |[F,P]|

   @RHF iter SAD:  -461.70914234707334   -4.61709e+02   0.00000e+00
   @RHF iter   1:  -462.60413758711161   -8.94995e-01   2.83571e-03 DIIS
   @RHF iter   2:  -462.84842084816535   -2.44283e-01   1.21254e-03 DIIS
   @RHF iter   3:  -462.88897694112654   -4.05561e-02   2.68064e-04 DIIS
   @RHF iter   4:  -462.89222969403198   -3.25275e-03   1.04074e-04 DIIS
   @RHF iter   5:  -462.89257447742216   -3.44783e-04   2.03680e-05 DIIS
   @RHF iter   6:  -462.89259365686434   -1.91794e-05   6.36793e-06 DIIS
   @RHF iter   7:  -462.89259554908386   -1.89222e-06   1.75737e-06 DIIS
   @RHF iter   8:  -462.89259575125965   -2.02176e-07   6.55045e-07 DIIS
   @RHF iter   9:  -462.89259577676745   -2.55078e-08   2.35111e-07 DIIS
   @RHF iter  10:  -462.89259578029021   -3.52276e-09   7.62768e-08 DIIS
   @RHF iter  11:  -462.89259578098523   -6.95024e-10   3.42724e-08 DIIS
   @RHF iter  12:  -462.89259578116116   -1.75930e-10   1.92115e-08 DIIS
   @RHF iter  13:  -462.89259578121016   -4.89990e-11   7.68565e-09 DIIS
   @RHF iter  14:  -462.89259578121255   -2.38742e-12   1.81943e-09 DIIS
   @RHF iter  15:  -462.89259578121880   -6.25278e-12   6.84713e-10 DIIS
   @RHF iter  16:  -462.89259578121329    5.51381e-12   2.10624e-10 DIIS
   @RHF iter  17:  -462.89259578121795   -4.66116e-12   9.06529e-11 DIIS
  Energy and wave function converged.

  ==> Post-Iterations <==

    Orbital Energies [Eh]
    ---------------------

    Doubly Occupied:

       1A    -20.583192     2A    -11.298357     3A    -11.238754
       4A    -11.238029     5A    -11.233712     6A    -11.232987
       7A    -11.229906     8A    -11.228205     9A    -11.209319
      10A    -11.208599    11A    -11.205980    12A     -1.400142
      13A     -1.152069    14A     -1.046098    15A     -1.037317
      16A     -1.019348    17A     -0.926573    18A     -0.914062
      19A     -0.844567    20A     -0.803180    21A     -0.788872
      22A     -0.732292    23A     -0.668495    24A     -0.642237
      25A     -0.617175    26A     -0.610878    27A     -0.590209
      28A     -0.588300    29A     -0.583426    30A     -0.573619
      31A     -0.563599    32A     -0.539838    33A     -0.525559
      34A     -0.522036    35A     -0.496849    36A     -0.485589
      37A     -0.472020    38A     -0.462323    39A     -0.460576
      40A     -0.456352    41A     -0.339364    42A     -0.303142

    Virtual:

      43A      0.129310    44A      0.153605    45A      0.175134
      46A      0.183227    47A      0.194108    48A      0.211647
      49A      0.220623    50A      0.237207    51A      0.242521
      52A      0.250304    53A      0.261620    54A      0.267742
      55A      0.277346    56A      0.279635    57A      0.291558
      58A      0.296348    59A      0.304637    60A      0.334715
      61A      0.368573    62A      0.375573    63A      0.386369
      64A      0.425307    65A      0.436101    66A      0.454384
      67A      0.480759    68A      0.498906    69A      0.508176
      70A      0.596313    71A      0.599968    72A      0.608106
      73A      0.614569    74A      0.616071    75A      0.630018
      76A      0.639118    77A      0.660165    78A      0.670173
      79A      0.681078    80A      0.700769    81A      0.718574
      82A      0.733486    83A      0.735971    84A      0.763779
      85A      0.770076    86A      0.779528    87A      0.787912
      88A      0.795337    89A      0.800778    90A      0.818152
      91A      0.843341    92A      0.854761    93A      0.859359
      94A      0.868052    95A      0.875043    96A      0.883939
      97A      0.888843    98A      0.895527    99A      0.898911
     100A      0.903201   101A      0.907892   102A      0.918635
     103A      0.924366   104A      0.929493   105A      0.935446
     106A      0.938260   107A      0.941125   108A      0.951431
     109A      0.962870   110A      0.982655   111A      1.002370
     112A      1.016805   113A      1.045012   114A      1.056911
     115A      1.124641   116A      1.126795   117A      1.132944
     118A      1.143618   119A      1.153115   120A      1.166762
     121A      1.195366   122A      1.212543   123A      1.239145
     124A      1.248643   125A      1.269588   126A      1.290942
     127A      1.296670   128A      1.313777   129A      1.323419
     130A      1.349560   131A      1.366159   132A      1.386615
     133A      1.402035   134A      1.444312   135A      1.476231
     136A      1.487559   137A      1.500275   138A      1.524073
     139A      1.550871   140A      1.569856   141A      1.614107
     142A      1.628428   143A      1.649940   144A      1.679369
     145A      1.687650   146A      1.697489   147A      1.704753
     148A      1.730967   149A      1.735873   150A      1.748967
     151A      1.781004   152A      1.797705   153A      1.806342
     154A      1.858498   155A      1.872462   156A      1.879024
     157A      1.882180   158A      1.892526   159A      1.895046
     160A      1.909605   161A      1.915091   162A      1.922151
     163A      1.926505   164A      1.927830   165A      1.945290
     166A      1.954635   167A      1.963241   168A      1.972763
     169A      1.977699   170A      1.980929   171A      1.991441
     172A      2.000525   173A      2.018243   174A      2.030984
     175A      2.033976   176A      2.049648   177A      2.058594
     178A      2.065788   179A      2.069039   180A      2.076213
     181A      2.141664   182A      2.150381   183A      2.156295
     184A      2.167671   185A      2.177390   186A      2.200089
     187A      2.231350   188A      2.260150   189A      2.280813
     190A      2.288123   191A      2.291624   192A      2.311759
     193A      2.315575   194A      2.328077   195A      2.364829
     196A      2.374972   197A      2.429751   198A      2.449798
     199A      2.470680   200A      2.485486   201A      2.506085
     202A      2.536478   203A      2.540308   204A      2.564500
     205A      2.575022   206A      2.599554   207A      2.620627
     208A      2.637339   209A      2.652374   210A      2.753883
     211A      2.770567   212A      2.772404   213A      2.781319
     214A      2.793539   215A      2.799170   216A      2.806785
     217A      2.841727   218A      2.855774   219A      2.902610
     220A      2.908419   221A      2.958935   222A      2.969655
     223A      2.983835   224A      3.001547   225A      3.065106
     226A      3.088796   227A      3.106349   228A      3.268144
     229A      3.284621   230A      3.352645   231A      3.575895
     232A      3.675516   233A      3.975878   234A      4.177252

    Final Occupation by Irrep:
              A
    DOCC [    42 ]

  @RHF Final Energy:  -462.89259578121795

   => Energetics <=

    Nuclear Repulsion Energy =            580.1505744497850401
    One-Electron Energy =               -1777.9400496881403342
    Two-Electron Energy =                 734.8968794571374019
    Total Energy =                       -462.8925957812180059

Computation Completed

Properties will be evaluated at   0.000000,   0.000000,   0.000000 [a0]

Properties computed using the SCF density matrix

  Nuclear Dipole Moment: [e a0]
     X:     8.4857      Y:    -9.7756      Z:     6.7901

  Electronic Dipole Moment: [e a0]
     X:    -8.3569      Y:    10.3890      Z:    -6.9323

  Dipole Moment: [e a0]
     X:     0.1288      Y:     0.6134      Z:    -0.1422     Total:     0.6427

  Dipole Moment: [D]
     X:     0.3273      Y:     1.5591      Z:    -0.3615     Total:     1.6336

*** tstop() called on ds3 at Mon Apr 27 13:54:40 2020
Module time:
	user time   =     136.59 seconds =       2.28 minutes
	system time =      56.47 seconds =       0.94 minutes
	total time  =        211 seconds =       3.52 minutes
Total time:
	user time   =     136.59 seconds =       2.28 minutes
	system time =      56.47 seconds =       0.94 minutes
	total time  =        211 seconds =       3.52 minutes
                                     G D M A

                                 by Anthony Stone

                           version 2.2.06, 22 June 2011

               Distributed Multipoles from Gaussian wavefunctions

Starting at 13:54:40 on 27 Apr 2020

Using SCF density matrix from file ./SSI/SSI-072TYR-076ARG-2-dimer.test.8003.fchk

                         Distributed Multipole Analysis

Standard DMA

Positions and radii in angstrom
Multipole moments in atomic units, ea_0^k for rank k

C          x =  1.964974  y =  1.135981  z = -2.792088 angstrom
           Maximum rank =  0   Radius =  0.650 angstrom
                   Q00  =  -0.192303

C          x = -1.072026  y = -0.195019  z = -0.922088 angstrom
           Maximum rank =  0   Radius =  0.650 angstrom
                   Q00  =  -0.109707

C          x = -1.387026  y =  0.882981  z = -0.102088 angstrom
           Maximum rank =  0   Radius =  0.650 angstrom
                   Q00  =   0.294695

C          x =  0.008974  y = -0.110019  z = -1.790088 angstrom
           Maximum rank =  0   Radius =  0.650 angstrom
                   Q00  =  -0.015727

C          x =  0.784974  y =  1.045981  z = -1.850088 angstrom
           Maximum rank =  0   Radius =  0.650 angstrom
                   Q00  =  -0.141747

C          x = -0.616026  y =  2.037981  z = -0.143088 angstrom
           Maximum rank =  0   Radius =  0.650 angstrom
                   Q00  =  -0.174868

C          x =  0.463974  y =  2.114981  z = -1.016088 angstrom
           Maximum rank =  0   Radius =  0.650 angstrom
                   Q00  =   0.026841

O          x = -2.445026  y =  0.802981  z =  0.753912 angstrom
           Maximum rank =  0   Radius =  0.650 angstrom
                   Q00  =  -0.668860

H          x = -1.660026  y = -1.094019  z = -0.861088 angstrom
           Maximum rank =  0   Radius =  0.325 angstrom
                   Q00  =   0.080316

H          x =  0.244974  y = -0.952019  z = -2.428088 angstrom
           Maximum rank =  0   Radius =  0.325 angstrom
                   Q00  =   0.063212

H          x = -0.807026  y =  2.847981  z =  0.544912 angstrom
           Maximum rank =  0   Radius =  0.325 angstrom
                   Q00  =   0.072826

H          x = -2.712026  y =  1.673981  z =  1.063912 angstrom
           Maximum rank =  0   Radius =  0.325 angstrom
                   Q00  =   0.406733

H          x =  2.061974  y =  2.167981  z = -3.133088 angstrom
           Maximum rank =  0   Radius =  0.325 angstrom
                   Q00  =   0.094775

H          x =  1.742974  y =  0.529981  z = -3.665088 angstrom
           Maximum rank =  0   Radius =  0.325 angstrom
                   Q00  =   0.097138

H          x =  1.073974  y =  3.009981  z = -1.035088 angstrom
           Maximum rank =  0   Radius =  0.325 angstrom
                   Q00  =   0.067887

H          x =  2.919934  y =  0.823151  z = -2.344668 angstrom
           Maximum rank =  0   Radius =  0.325 angstrom
                   Q00  =   0.101424

C          x =  0.767974  y = -2.023019  z =  1.866912 angstrom
           Maximum rank =  0   Radius =  0.650 angstrom
                   Q00  =  -0.067905

C          x =  1.703974  y = -3.219019  z =  2.038912 angstrom
           Maximum rank =  0   Radius =  0.650 angstrom
                   Q00  =  -0.251210

C          x = -0.122026  y = -1.865019  z =  3.096912 angstrom
           Maximum rank =  0   Radius =  0.650 angstrom
                   Q00  =  -0.240404

H          x =  1.344974  y = -1.113019  z =  1.702912 angstrom
           Maximum rank =  0   Radius =  0.325 angstrom
                   Q00  =   0.053306

H          x =  0.131974  y = -2.191019  z =  0.996912 angstrom
           Maximum rank =  0   Radius =  0.325 angstrom
                   Q00  =   0.049394

H          x =  2.063974  y = -3.529019  z =  1.057912 angstrom
           Maximum rank =  0   Radius =  0.325 angstrom
                   Q00  =   0.076979

H          x =  1.130974  y = -4.049019  z =  2.450912 angstrom
           Maximum rank =  0   Radius =  0.325 angstrom
                   Q00  =   0.070057

H          x = -0.824026  y = -2.701019  z =  3.125912 angstrom
           Maximum rank =  0   Radius =  0.325 angstrom
                   Q00  =   0.072132

H          x =  0.475974  y = -1.915019  z =  4.006912 angstrom
           Maximum rank =  0   Radius =  0.325 angstrom
                   Q00  =   0.069365

H          x =  2.564174  y = -3.017849  z =  2.694342 angstrom
           Maximum rank =  0   Radius =  0.325 angstrom
                   Q00  =   0.080276

H          x = -0.688566  y = -0.922789  z =  3.061602 angstrom
           Maximum rank =  0   Radius =  0.325 angstrom
                   Q00  =   0.085374

Total multipoles referred to origin at
           x =   0.000000,  y =    0.000000,  z =    0.000000 angstrom
                   Q00  =  -0.000000

Finished at 13:54:41 on 27 Apr 2020

  DMA results are available in the Python driver through the
	  variable('DMA DISTRIBUTED MULTIPOLES')
  and
	  variable('DMA TOTAL MULTIPOLES')
  commands.

    Psi4 stopped on: Monday, 27 April 2020 01:54PM
    Psi4 wall time for execution: 0:03:31.90

*** Psi4 exiting successfully. Buy a developer a beer!
