                               Psi4 1.3.2 release

  ==> Input File <==

--------------------------------------------------------------------------
import numpy as np
set {scf_type pk
basis cc-pvdz
d_convergence 10
gdma_switch   0
gdma_limit    0
gdma_origin   [ 0.0,  0.0,  0.0 ]
}
molecule test {
    units Angstrom
    1 1
    --
    1 1
    C                0.437970854071837    -0.851754630642114    -0.473533997137116
    C                1.629970854071837    -0.140754630642114    -1.097533997137116
    C               -1.711029145928163     0.162245369357886    -1.177533997137116
    N               -0.736029145928163     0.006245369357886    -0.293533997137116
    N               -1.678029145928164    -0.456754630642114    -2.344533997137116
    N               -2.729029145928164     0.942245369357886    -0.883533997137116
    H                0.178970854071836    -1.730754630642114    -1.068533997137116
    H                0.736970854071837    -1.221754630642114     0.509466002862884
    H                1.951970854071836     0.672245369357886    -0.448533997137116
    H                1.354970854071837     0.261245369357886    -2.073533997137116
    H               -0.853029145928164     0.470245369357886     0.600466002862884
    H               -0.906029145928163    -1.057754630642114    -2.573533997137116
    H               -2.430029145928164    -0.337754630642114    -3.005533997137116
    H               -2.747029145928164     1.420245369357886     0.006466002862884
    H               -3.492029145928164     1.057245369357886    -1.532533997137116
    H                2.430352854071836    -0.886184630642114    -1.214662997137116
    C                2.608970854071836     0.412245369357886     2.426466002862885
    C                2.153970854071836    -0.120754630642114     3.777466002862885
    H                3.049970854071836    -0.393754630642114     1.838466002862884
    H                1.754970854071837     0.823245369357886     1.895466002862884
    H                3.339970854071836     1.205245369357886     2.568466002862884
    H                1.795970854071837     0.718245369357886     4.370466002862885
    H                3.011405854071837    -0.591914630642114     4.280274002862885
    H                1.321250824071836    -0.825364630642114     3.635680002862884

}
e, wfn = energy('scf', return_wfn=True)
gdma(wfn)
dmavals = variable('DMA DISTRIBUTED MULTIPOLES')
charges = np.array(dmavals)
print(charges)
np.save('SSI-034ARG-064LEU-1-dimer.npy', np.array(charges))--------------------------------------------------------------------------

*** tstart() called on ds3
*** at Tue Apr 28 09:52:25 2020

   => Loading Basis Set <=

    Name: CC-PVDZ
    Role: ORBITAL
    Keyword: BASIS
    atoms 1-3, 17-18  entry C          line   138 file /theoryfs2/ds/metcalf/miniconda2/envs/tf2gpu/share/psi4/basis/cc-pvdz.gbs
    atoms 4-6         entry N          line   168 file /theoryfs2/ds/metcalf/miniconda2/envs/tf2gpu/share/psi4/basis/cc-pvdz.gbs
    atoms 7-16, 19-24 entry H          line    22 file /theoryfs2/ds/metcalf/miniconda2/envs/tf2gpu/share/psi4/basis/cc-pvdz.gbs

         ---------------------------------------------------------
                                   SCF
               by Justin Turney, Rob Parrish, Andy Simmonett
                          and Daniel G. A. Smith
                              RHF Reference
                        1 Threads,    500 MiB Core
         ---------------------------------------------------------

  ==> Geometry <==

    Molecular point group: c1
    Full point group: C1

    Geometry (in Angstrom), charge = 1, multiplicity = 1:

       Center              X                  Y                   Z               Mass
    ------------   -----------------  -----------------  -----------------  -----------------
         C            0.437970854072    -0.851754630642    -0.473533997137    12.000000000000
         C            1.629970854072    -0.140754630642    -1.097533997137    12.000000000000
         C           -1.711029145928     0.162245369358    -1.177533997137    12.000000000000
         N           -0.736029145928     0.006245369358    -0.293533997137    14.003074004430
         N           -1.678029145928    -0.456754630642    -2.344533997137    14.003074004430
         N           -2.729029145928     0.942245369358    -0.883533997137    14.003074004430
         H            0.178970854072    -1.730754630642    -1.068533997137     1.007825032230
         H            0.736970854072    -1.221754630642     0.509466002863     1.007825032230
         H            1.951970854072     0.672245369358    -0.448533997137     1.007825032230
         H            1.354970854072     0.261245369358    -2.073533997137     1.007825032230
         H           -0.853029145928     0.470245369358     0.600466002863     1.007825032230
         H           -0.906029145928    -1.057754630642    -2.573533997137     1.007825032230
         H           -2.430029145928    -0.337754630642    -3.005533997137     1.007825032230
         H           -2.747029145928     1.420245369358     0.006466002863     1.007825032230
         H           -3.492029145928     1.057245369358    -1.532533997137     1.007825032230
         H            2.430352854072    -0.886184630642    -1.214662997137     1.007825032230
         C            2.608970854072     0.412245369358     2.426466002863    12.000000000000
         C            2.153970854072    -0.120754630642     3.777466002863    12.000000000000
         H            3.049970854072    -0.393754630642     1.838466002863     1.007825032230
         H            1.754970854072     0.823245369358     1.895466002863     1.007825032230
         H            3.339970854072     1.205245369358     2.568466002863     1.007825032230
         H            1.795970854072     0.718245369358     4.370466002863     1.007825032230
         H            3.011405854072    -0.591914630642     4.280274002863     1.007825032230
         H            1.321250824072    -0.825364630642     3.635680002863     1.007825032230

  Running in c1 symmetry.

  Rotational constants: A =      0.09963  B =      0.02132  C =      0.01865 [cm^-1]
  Rotational constants: A =   2986.76817  B =    639.05374  C =    558.98304 [MHz]
  Nuclear repulsion =  391.872748067949431

  Charge       = 1
  Multiplicity = 1
  Electrons    = 66
  Nalpha       = 33
  Nbeta        = 33

  ==> Algorithm <==

  SCF Algorithm Type is PK.
  DIIS enabled.
  MOM disabled.
  Fractional occupation disabled.
  Guess Type is SAD.
  Energy threshold   = 1.00e-06
  Density threshold  = 1.00e-10
  Integral threshold = 0.00e+00

  ==> Primary Basis <==

  Basis Set: CC-PVDZ
    Blend: CC-PVDZ
    Number of shells: 96
    Number of basis function: 192
    Number of Cartesian functions: 200
    Spherical Harmonics?: true
    Max angular momentum: 2

  ==> Pre-Iterations <==

   -------------------------------------------------------
    Irrep   Nso     Nmo     Nalpha   Nbeta   Ndocc  Nsocc
   -------------------------------------------------------
     A        192     192       0       0       0       0
   -------------------------------------------------------
    Total     192     192      33      33      33       0
   -------------------------------------------------------

  ==> Integral Setup <==

  Using integral reordering PK algorithm.
  Sizing the integral batches needed.
  Building batch lookup table.
   Calculation information:
      Number of atoms:                  24
      Number of AO shells:              96
      Number of primitives:            256
      Number of atomic orbitals:       200
      Number of basis functions:       192

      Integral cutoff                 1.00e-12
      Number of threads:                 1

	Batch   1 pq = [       0,    9405] index = [             0,44231715] size =     44231715
	Batch   2 pq = [    9405,   13301] index = [      44231715,88464951] size =     44233236
	Batch   3 pq = [   13301,   16290] index = [      88464951,132690195] size =     44225244
	Batch   4 pq = [   16290,   18528] index = [     132690195,171652656] size =     38962461
  Task number: 16
  Buffer size: 11059200
  Buffer per thread: 2
  We computed 8803372 shell quartets total.
  Whereas there are 10841496 unique shell quartets.

  ==> DiskJK: Disk-Based J/K Matrices <==

    J tasked:                  Yes
    K tasked:                  Yes
    wK tasked:                  No
    Memory [MiB]:              375
    Schwarz Cutoff:          1E-12

    OpenMP threads:              1

  Minimum eigenvalue in the overlap matrix is 3.8569026977E-03.
  Using Symmetric Orthogonalization.

  SCF Guess: Superposition of Atomic Densities via on-the-fly atomic UHF.

  ==> Iterations <==

                        Total Energy        Delta E     RMS |[F,P]|

   @RHF iter SAD:  -361.17046265299285   -3.61170e+02   0.00000e+00
   @RHF iter   1:  -361.62007000019173   -4.49607e-01   3.23052e-03 DIIS
   @RHF iter   2:  -361.82313487473766   -2.03065e-01   1.27270e-03 DIIS
   @RHF iter   3:  -361.85315153797723   -3.00167e-02   2.98423e-04 DIIS
   @RHF iter   4:  -361.85596584317062   -2.81431e-03   5.03968e-05 DIIS
   @RHF iter   5:  -361.85604151275572   -7.56696e-05   1.96160e-05 DIIS
   @RHF iter   6:  -361.85605207099491   -1.05582e-05   3.79487e-06 DIIS
   @RHF iter   7:  -361.85605271590106   -6.44906e-07   1.27892e-06 DIIS
   @RHF iter   8:  -361.85605276708651   -5.11855e-08   3.95527e-07 DIIS
   @RHF iter   9:  -361.85605277211391   -5.02740e-09   1.07777e-07 DIIS
   @RHF iter  10:  -361.85605277255047   -4.36557e-10   2.74644e-08 DIIS
   @RHF iter  11:  -361.85605277259032   -3.98472e-11   1.12434e-08 DIIS
   @RHF iter  12:  -361.85605277259577   -5.45697e-12   3.82956e-09 DIIS
   @RHF iter  13:  -361.85605277259583   -5.68434e-14   1.36009e-09 DIIS
   @RHF iter  14:  -361.85605277259651   -6.82121e-13   3.38071e-10 DIIS
   @RHF iter  15:  -361.85605277259640    1.13687e-13   7.57378e-11 DIIS
  Energy and wave function converged.

  ==> Post-Iterations <==

    Orbital Energies [Eh]
    ---------------------

    Doubly Occupied:

       1A    -15.787347     2A    -15.787274     3A    -15.781639
       4A    -11.587966     5A    -11.434407     6A    -11.363801
       7A    -11.316687     8A    -11.310452     9A     -1.545075
      10A     -1.401617    11A     -1.391949    12A     -1.185924
      13A     -1.118354    14A     -1.060316    15A     -1.007477
      16A     -0.977458    17A     -0.933031    18A     -0.931591
      19A     -0.860347    20A     -0.856650    21A     -0.822486
      22A     -0.793610    23A     -0.759638    24A     -0.701925
      25A     -0.699759    26A     -0.695663    27A     -0.670695
      28A     -0.648815    29A     -0.616744    30A     -0.593954
      31A     -0.584436    32A     -0.580562    33A     -0.575595

    Virtual:

      34A     -0.010733    35A      0.021322    36A      0.024834
      37A      0.037866    38A      0.056414    39A      0.080622
      40A      0.094244    41A      0.102558    42A      0.119280
      43A      0.131874    44A      0.142248    45A      0.163243
      46A      0.170789    47A      0.180205    48A      0.193472
      49A      0.210263    50A      0.221941    51A      0.226792
      52A      0.242150    53A      0.286331    54A      0.311509
      55A      0.340089    56A      0.350009    57A      0.435544
      58A      0.458230    59A      0.476220    60A      0.489883
      61A      0.507999    62A      0.517344    63A      0.529770
      64A      0.540380    65A      0.545287    66A      0.552530
      67A      0.556927    68A      0.573408    69A      0.581240
      70A      0.589710    71A      0.661916    72A      0.679126
      73A      0.715244    74A      0.720325    75A      0.733687
      76A      0.744857    77A      0.761357    78A      0.771664
      79A      0.779807    80A      0.790207    81A      0.801970
      82A      0.805225    83A      0.811290    84A      0.814520
      85A      0.826312    86A      0.828744    87A      0.850005
      88A      0.850901    89A      0.860883    90A      0.880163
      91A      0.895522    92A      0.929243    93A      0.944130
      94A      0.960417    95A      0.987057    96A      1.026189
      97A      1.055684    98A      1.059959    99A      1.115754
     100A      1.129251   101A      1.145940   102A      1.149931
     103A      1.184960   104A      1.195750   105A      1.223507
     106A      1.273637   107A      1.319955   108A      1.363360
     109A      1.373769   110A      1.390056   111A      1.402901
     112A      1.443913   113A      1.487048   114A      1.494432
     115A      1.513910   116A      1.541558   117A      1.570740
     118A      1.585541   119A      1.594202   120A      1.636404
     121A      1.652869   122A      1.678383   123A      1.697142
     124A      1.712394   125A      1.721710   126A      1.729395
     127A      1.749763   128A      1.756124   129A      1.765895
     130A      1.794087   131A      1.802179   132A      1.809214
     133A      1.823770   134A      1.831438   135A      1.838261
     136A      1.851600   137A      1.858943   138A      1.869728
     139A      1.873709   140A      1.889374   141A      1.900944
     142A      1.909526   143A      1.916460   144A      1.940622
     145A      2.000629   146A      2.012464   147A      2.029807
     148A      2.035295   149A      2.052401   150A      2.114317
     151A      2.141985   152A      2.188810   153A      2.199033
     154A      2.215372   155A      2.233053   156A      2.239677
     157A      2.261620   158A      2.271358   159A      2.324610
     160A      2.339496   161A      2.343903   162A      2.361509
     163A      2.378570   164A      2.389322   165A      2.413549
     166A      2.440560   167A      2.475696   168A      2.485317
     169A      2.490062   170A      2.571723   171A      2.612568
     172A      2.624186   173A      2.660648   174A      2.673258
     175A      2.696735   176A      2.713070   177A      2.738906
     178A      2.747208   179A      2.754841   180A      2.767201
     181A      2.788400   182A      2.816279   183A      2.843192
     184A      2.863424   185A      2.874450   186A      2.885980
     187A      2.948367   188A      3.073015   189A      3.104897
     190A      3.138172   191A      3.580834   192A      3.658542

    Final Occupation by Irrep:
              A
    DOCC [    33 ]

  @RHF Final Energy:  -361.85605277259640

   => Energetics <=

    Nuclear Repulsion Energy =            391.8727480679494306
    One-Electron Energy =               -1254.6911105688952830
    Two-Electron Energy =                 500.9623097283493962
    Total Energy =                       -361.8560527725963993

Computation Completed

Properties will be evaluated at   0.000000,   0.000000,   0.000000 [a0]

Properties computed using the SCF density matrix

  Nuclear Dipole Moment: [e a0]
     X:     9.8571      Y:    -0.3926      Z:     7.3116

  Electronic Dipole Moment: [e a0]
     X:   -12.4797      Y:     0.5757      Z:    -9.2375

  Dipole Moment: [e a0]
     X:    -2.6226      Y:     0.1831      Z:    -1.9259     Total:     3.2589

  Dipole Moment: [D]
     X:    -6.6659      Y:     0.4655      Z:    -4.8952     Total:     8.2834

*** tstop() called on ds3 at Tue Apr 28 09:53:45 2020
Module time:
	user time   =      59.26 seconds =       0.99 minutes
	system time =      25.03 seconds =       0.42 minutes
	total time  =         80 seconds =       1.33 minutes
Total time:
	user time   =      59.26 seconds =       0.99 minutes
	system time =      25.03 seconds =       0.42 minutes
	total time  =         80 seconds =       1.33 minutes
                                     G D M A

                                 by Anthony Stone

                           version 2.2.06, 22 June 2011

               Distributed Multipoles from Gaussian wavefunctions

Starting at 9:53:45 on 28 Apr 2020

Using SCF density matrix from file ./SSI/SSI-034ARG-064LEU-1-dimer.test.19233.fchk

                         Distributed Multipole Analysis

Standard DMA

Positions and radii in angstrom
Multipole moments in atomic units, ea_0^k for rank k

C          x =  0.437971  y = -0.851755  z = -0.473534 angstrom
           Maximum rank =  0   Radius =  0.650 angstrom
                   Q00  =  -0.008026

C          x =  1.629971  y = -0.140755  z = -1.097534 angstrom
           Maximum rank =  0   Radius =  0.650 angstrom
                   Q00  =  -0.227365

C          x = -1.711029  y =  0.162245  z = -1.177534 angstrom
           Maximum rank =  0   Radius =  0.650 angstrom
                   Q00  =   1.084695

N          x = -0.736029  y =  0.006245  z = -0.293534 angstrom
           Maximum rank =  0   Radius =  0.650 angstrom
                   Q00  =  -0.503519

N          x = -1.678029  y = -0.456755  z = -2.344534 angstrom
           Maximum rank =  0   Radius =  0.650 angstrom
                   Q00  =  -0.584718

N          x = -2.729029  y =  0.942245  z = -0.883534 angstrom
           Maximum rank =  0   Radius =  0.650 angstrom
                   Q00  =  -0.596051

H          x =  0.178971  y = -1.730755  z = -1.068534 angstrom
           Maximum rank =  0   Radius =  0.325 angstrom
                   Q00  =   0.070636

H          x =  0.736971  y = -1.221755  z =  0.509466 angstrom
           Maximum rank =  0   Radius =  0.325 angstrom
                   Q00  =   0.134181

H          x =  1.951971  y =  0.672245  z = -0.448534 angstrom
           Maximum rank =  0   Radius =  0.325 angstrom
                   Q00  =   0.118460

H          x =  1.354971  y =  0.261245  z = -2.073534 angstrom
           Maximum rank =  0   Radius =  0.325 angstrom
                   Q00  =   0.088196

H          x = -0.853029  y =  0.470245  z =  0.600466 angstrom
           Maximum rank =  0   Radius =  0.325 angstrom
                   Q00  =   0.232205

H          x = -0.906029  y = -1.057755  z = -2.573534 angstrom
           Maximum rank =  0   Radius =  0.325 angstrom
                   Q00  =   0.271564

H          x = -2.430029  y = -0.337755  z = -3.005534 angstrom
           Maximum rank =  0   Radius =  0.325 angstrom
                   Q00  =   0.267263

H          x = -2.747029  y =  1.420245  z =  0.006466 angstrom
           Maximum rank =  0   Radius =  0.325 angstrom
                   Q00  =   0.265930

H          x = -3.492029  y =  1.057245  z = -1.532534 angstrom
           Maximum rank =  0   Radius =  0.325 angstrom
                   Q00  =   0.267443

H          x =  2.430353  y = -0.886185  z = -1.214663 angstrom
           Maximum rank =  0   Radius =  0.325 angstrom
                   Q00  =   0.120403

C          x =  2.608971  y =  0.412245  z =  2.426466 angstrom
           Maximum rank =  0   Radius =  0.650 angstrom
                   Q00  =  -0.247441

C          x =  2.153971  y = -0.120755  z =  3.777466 angstrom
           Maximum rank =  0   Radius =  0.650 angstrom
                   Q00  =  -0.219450

H          x =  3.049971  y = -0.393755  z =  1.838466 angstrom
           Maximum rank =  0   Radius =  0.325 angstrom
                   Q00  =   0.075715

H          x =  1.754971  y =  0.823245  z =  1.895466 angstrom
           Maximum rank =  0   Radius =  0.325 angstrom
                   Q00  =   0.030298

H          x =  3.339971  y =  1.205245  z =  2.568466 angstrom
           Maximum rank =  0   Radius =  0.325 angstrom
                   Q00  =   0.105603

H          x =  1.795971  y =  0.718245  z =  4.370466 angstrom
           Maximum rank =  0   Radius =  0.325 angstrom
                   Q00  =   0.088472

H          x =  3.011406  y = -0.591915  z =  4.280274 angstrom
           Maximum rank =  0   Radius =  0.325 angstrom
                   Q00  =   0.102781

H          x =  1.321251  y = -0.825365  z =  3.635680 angstrom
           Maximum rank =  0   Radius =  0.325 angstrom
                   Q00  =   0.062724

Total multipoles referred to origin at
           x =   0.000000,  y =    0.000000,  z =    0.000000 angstrom
                   Q00  =   1.000000

Finished at 9:53:46 on 28 Apr 2020

  DMA results are available in the Python driver through the
	  variable('DMA DISTRIBUTED MULTIPOLES')
  and
	  variable('DMA TOTAL MULTIPOLES')
  commands.

    Psi4 stopped on: Tuesday, 28 April 2020 09:53AM
    Psi4 wall time for execution: 0:01:20.30

*** Psi4 exiting successfully. Buy a developer a beer!
