                               Psi4 1.3.2 release

  ==> Input File <==

--------------------------------------------------------------------------
import numpy as np
set {scf_type pk
basis cc-pvdz
d_convergence 10
gdma_switch   0
gdma_limit    0
gdma_origin   [ 0.0,  0.0,  0.0 ]
}
molecule test {
    units Angstrom
    -1 1
    --
    -1 1
    C                1.818559617198237    -0.799011143838729     0.135455872894752
    C                1.501559617198237    -2.000011143838729     1.027455872894752
    C                3.043559617198237    -1.087011143838729    -0.740544127105248
    H                0.955559617198237    -0.601011143838729    -0.501544127105248
    H                2.015559617198237     0.080988856161271     0.750455872894752
    H                2.379559617198237    -2.265011143838728     1.615455872894753
    H                1.278559617198237    -2.850011143838729     0.380455872894752
    H                3.930559617198237    -1.134011143838729    -0.099544127105248
    H                2.914559617198237    -2.074011143838729    -1.198544127105248
    H                0.630394617198237    -1.839324743838729     1.679568772894753
    H                3.183389617198237    -0.335357143838729    -1.531408127105248
    C               -1.099440382801763     2.061988856161272    -0.914544127105248
    C               -1.631440382801763     0.923988856161271    -0.055544127105248
    O               -1.796440382801763     1.119988856161271     1.155455872894753
    O               -1.839440382801763    -0.191011143838729    -0.597544127105248
    H               -1.643440382801763     2.105988856161271    -1.860544127105247
    H               -0.055440382801763     1.840988856161271    -1.146544127105247
    H               -1.140299382801763     3.044029856161271    -0.420656127105248

}
e, wfn = energy('scf', return_wfn=True)
gdma(wfn)
dmavals = variable('DMA DISTRIBUTED MULTIPOLES')
charges = np.array(dmavals)
print(charges)
np.save('SSI-090LYS-122ASP-2-dimer.npy', np.array(charges))--------------------------------------------------------------------------

*** tstart() called on ds3
*** at Mon Apr 27 22:31:03 2020

   => Loading Basis Set <=

    Name: CC-PVDZ
    Role: ORBITAL
    Keyword: BASIS
    atoms 1-3, 12-13  entry C          line   138 file /theoryfs2/ds/metcalf/miniconda2/envs/tf2gpu/share/psi4/basis/cc-pvdz.gbs
    atoms 4-11, 16-18 entry H          line    22 file /theoryfs2/ds/metcalf/miniconda2/envs/tf2gpu/share/psi4/basis/cc-pvdz.gbs
    atoms 14-15       entry O          line   198 file /theoryfs2/ds/metcalf/miniconda2/envs/tf2gpu/share/psi4/basis/cc-pvdz.gbs

         ---------------------------------------------------------
                                   SCF
               by Justin Turney, Rob Parrish, Andy Simmonett
                          and Daniel G. A. Smith
                              RHF Reference
                        1 Threads,    500 MiB Core
         ---------------------------------------------------------

  ==> Geometry <==

    Molecular point group: c1
    Full point group: C1

    Geometry (in Angstrom), charge = -1, multiplicity = 1:

       Center              X                  Y                   Z               Mass
    ------------   -----------------  -----------------  -----------------  -----------------
         C            1.818559617198    -0.799011143839     0.135455872895    12.000000000000
         C            1.501559617198    -2.000011143839     1.027455872895    12.000000000000
         C            3.043559617198    -1.087011143839    -0.740544127105    12.000000000000
         H            0.955559617198    -0.601011143839    -0.501544127105     1.007825032230
         H            2.015559617198     0.080988856161     0.750455872895     1.007825032230
         H            2.379559617198    -2.265011143839     1.615455872895     1.007825032230
         H            1.278559617198    -2.850011143839     0.380455872895     1.007825032230
         H            3.930559617198    -1.134011143839    -0.099544127105     1.007825032230
         H            2.914559617198    -2.074011143839    -1.198544127105     1.007825032230
         H            0.630394617198    -1.839324743839     1.679568772895     1.007825032230
         H            3.183389617198    -0.335357143839    -1.531408127105     1.007825032230
         C           -1.099440382802     2.061988856161    -0.914544127105    12.000000000000
         C           -1.631440382802     0.923988856161    -0.055544127105    12.000000000000
         O           -1.796440382802     1.119988856161     1.155455872895    15.994914619570
         O           -1.839440382802    -0.191011143839    -0.597544127105    15.994914619570
         H           -1.643440382802     2.105988856161    -1.860544127105     1.007825032230
         H           -0.055440382802     1.840988856161    -1.146544127105     1.007825032230
         H           -1.140299382802     3.044029856161    -0.420656127105     1.007825032230

  Running in c1 symmetry.

  Rotational constants: A =      0.11880  B =      0.03087  C =      0.02800 [cm^-1]
  Rotational constants: A =   3561.42141  B =    925.58255  C =    839.50810 [MHz]
  Nuclear repulsion =  288.478518401608767

  Charge       = -1
  Multiplicity = 1
  Electrons    = 58
  Nalpha       = 29
  Nbeta        = 29

  ==> Algorithm <==

  SCF Algorithm Type is PK.
  DIIS enabled.
  MOM disabled.
  Fractional occupation disabled.
  Guess Type is SAD.
  Energy threshold   = 1.00e-06
  Density threshold  = 1.00e-10
  Integral threshold = 0.00e+00

  ==> Primary Basis <==

  Basis Set: CC-PVDZ
    Blend: CC-PVDZ
    Number of shells: 75
    Number of basis function: 153
    Number of Cartesian functions: 160
    Spherical Harmonics?: true
    Max angular momentum: 2

  ==> Pre-Iterations <==

   -------------------------------------------------------
    Irrep   Nso     Nmo     Nalpha   Nbeta   Ndocc  Nsocc
   -------------------------------------------------------
     A        153     153       0       0       0       0
   -------------------------------------------------------
    Total     153     153      29      29      29       0
   -------------------------------------------------------

  ==> Integral Setup <==

  Using integral reordering PK algorithm.
  Sizing the integral batches needed.
  Building batch lookup table.
   Calculation information:
      Number of atoms:                  18
      Number of AO shells:              75
      Number of primitives:            209
      Number of atomic orbitals:       160
      Number of basis functions:       153

      Integral cutoff                 1.00e-12
      Number of threads:                 1

	Batch   1 pq = [       0,    9405] index = [             0,44231715] size =     44231715
	Batch   2 pq = [    9405,   11781] index = [      44231715,69401871] size =     25170156
  Task number: 7
  Buffer size: 11059200
  Buffer per thread: 2
  We computed 3417649 shell quartets total.
  Whereas there are 4062675 unique shell quartets.

  ==> DiskJK: Disk-Based J/K Matrices <==

    J tasked:                  Yes
    K tasked:                  Yes
    wK tasked:                  No
    Memory [MiB]:              375
    Schwarz Cutoff:          1E-12

    OpenMP threads:              1

  Minimum eigenvalue in the overlap matrix is 5.2304314903E-03.
  Using Symmetric Orthogonalization.

  SCF Guess: Superposition of Atomic Densities via on-the-fly atomic UHF.

  ==> Iterations <==

                        Total Energy        Delta E     RMS |[F,P]|

   @RHF iter SAD:  -343.86256442063728   -3.43863e+02   0.00000e+00
   @RHF iter   1:  -345.21579646739190   -1.35323e+00   4.96615e-03 DIIS
   @RHF iter   2:  -345.44377642742495   -2.27980e-01   2.74790e-03 DIIS
   @RHF iter   3:  -345.51013464746609   -6.63582e-02   4.23969e-04 DIIS
   @RHF iter   4:  -345.51307740423516   -2.94276e-03   1.59412e-04 DIIS
   @RHF iter   5:  -345.51348473877829   -4.07335e-04   2.41535e-05 DIIS
   @RHF iter   6:  -345.51349663758430   -1.18988e-05   6.51034e-06 DIIS
   @RHF iter   7:  -345.51349750895486   -8.71371e-07   2.31608e-06 DIIS
   @RHF iter   8:  -345.51349760439450   -9.54396e-08   7.81114e-07 DIIS
   @RHF iter   9:  -345.51349762210111   -1.77066e-08   4.64918e-07 DIIS
   @RHF iter  10:  -345.51349762708327   -4.98216e-09   1.29424e-07 DIIS
   @RHF iter  11:  -345.51349762786504   -7.81768e-10   3.40583e-08 DIIS
   @RHF iter  12:  -345.51349762790556   -4.05294e-11   8.43228e-09 DIIS
   @RHF iter  13:  -345.51349762790653   -9.66338e-13   2.71839e-09 DIIS
   @RHF iter  14:  -345.51349762790852   -1.98952e-12   7.85615e-10 DIIS
   @RHF iter  15:  -345.51349762790693    1.59162e-12   2.63578e-10 DIIS
   @RHF iter  16:  -345.51349762790858   -1.64846e-12   9.42864e-11 DIIS
  Energy and wave function converged.

  ==> Post-Iterations <==

    Orbital Energies [Eh]
    ---------------------

    Doubly Occupied:

       1A    -20.255944     2A    -20.251879     3A    -11.114541
       4A    -11.111387     5A    -11.098685     6A    -11.096516
       7A    -11.048912     8A     -1.147686     9A     -1.031591
      10A     -0.937802    11A     -0.809862    12A     -0.794244
      13A     -0.680630    14A     -0.510787    15A     -0.497716
      16A     -0.484760    17A     -0.432619    18A     -0.417550
      19A     -0.408896    20A     -0.404577    21A     -0.400894
      22A     -0.358732    23A     -0.353495    24A     -0.349627
      25A     -0.339293    26A     -0.300488    27A     -0.179808
      28A     -0.166923    29A     -0.156183

    Virtual:

      30A      0.288112    31A      0.324774    32A      0.340435
      33A      0.348193    34A      0.369076    35A      0.380962
      36A      0.402592    37A      0.406661    38A      0.413626
      39A      0.420427    40A      0.453567    41A      0.474965
      42A      0.507968    43A      0.539837    44A      0.579519
      45A      0.678395    46A      0.693813    47A      0.706802
      48A      0.726117    49A      0.728054    50A      0.752186
      51A      0.782149    52A      0.831807    53A      0.878212
      54A      0.905332    55A      0.929748    56A      0.948535
      57A      0.969045    58A      0.975883    59A      0.995538
      60A      0.999862    61A      1.012147    62A      1.019481
      63A      1.025783    64A      1.031909    65A      1.043010
      66A      1.049191    67A      1.056216    68A      1.064488
      69A      1.091571    70A      1.099192    71A      1.124314
      72A      1.151891    73A      1.234910    74A      1.244465
      75A      1.254300    76A      1.312808    77A      1.331599
      78A      1.357171    79A      1.400289    80A      1.488866
      81A      1.547022    82A      1.562302    83A      1.581765
      84A      1.597240    85A      1.602827    86A      1.610360
      87A      1.654395    88A      1.672908    89A      1.691376
      90A      1.732151    91A      1.745520    92A      1.778873
      93A      1.807504    94A      1.827240    95A      1.845728
      96A      1.866749    97A      1.970470    98A      1.980508
      99A      1.997216   100A      2.025981   101A      2.039715
     102A      2.049290   103A      2.071931   104A      2.079735
     105A      2.086112   106A      2.094553   107A      2.099739
     108A      2.105151   109A      2.112977   110A      2.136188
     111A      2.144063   112A      2.149968   113A      2.217161
     114A      2.242562   115A      2.258276   116A      2.272507
     117A      2.365900   118A      2.393408   119A      2.414629
     120A      2.427961   121A      2.439273   122A      2.441769
     123A      2.481506   124A      2.589512   125A      2.613751
     126A      2.651037   127A      2.671705   128A      2.692227
     129A      2.711588   130A      2.743453   131A      2.751981
     132A      2.789811   133A      2.858513   134A      2.873231
     135A      2.894765   136A      2.920837   137A      2.933059
     138A      2.972665   139A      2.992800   140A      3.025333
     141A      3.070447   142A      3.084548   143A      3.187696
     144A      3.247478   145A      3.284333   146A      3.299914
     147A      3.369681   148A      3.646849   149A      3.791608
     150A      3.842857   151A      4.072253   152A      4.090351
     153A      4.204941

    Final Occupation by Irrep:
              A
    DOCC [    29 ]

  @RHF Final Energy:  -345.51349762790858

   => Energetics <=

    Nuclear Repulsion Energy =            288.4785184016087669
    One-Electron Energy =               -1053.6999770807256027
    Two-Electron Energy =                 419.7079610512082581
    Total Energy =                       -345.5134976279085777

Computation Completed

Properties will be evaluated at   0.000000,   0.000000,   0.000000 [a0]

Properties computed using the SCF density matrix

  Nuclear Dipole Moment: [e a0]
     X:    13.5280      Y:    -3.7705      Z:    -2.1843

  Electronic Dipole Moment: [e a0]
     X:   -10.4995      Y:     3.2749      Z:     1.5798

  Dipole Moment: [e a0]
     X:     3.0284      Y:    -0.4956      Z:    -0.6045     Total:     3.1277

  Dipole Moment: [D]
     X:     7.6975      Y:    -1.2596      Z:    -1.5364     Total:     7.9498

*** tstop() called on ds3 at Mon Apr 27 22:31:35 2020
Module time:
	user time   =      22.91 seconds =       0.38 minutes
	system time =      10.30 seconds =       0.17 minutes
	total time  =         32 seconds =       0.53 minutes
Total time:
	user time   =      22.91 seconds =       0.38 minutes
	system time =      10.30 seconds =       0.17 minutes
	total time  =         32 seconds =       0.53 minutes
                                     G D M A

                                 by Anthony Stone

                           version 2.2.06, 22 June 2011

               Distributed Multipoles from Gaussian wavefunctions

Starting at 22:31:35 on 27 Apr 2020

Using SCF density matrix from file ./SSI/SSI-090LYS-122ASP-2-dimer.test.31132.fchk

                         Distributed Multipole Analysis

Standard DMA

Positions and radii in angstrom
Multipole moments in atomic units, ea_0^k for rank k

C          x =  1.818560  y = -0.799011  z =  0.135456 angstrom
           Maximum rank =  0   Radius =  0.650 angstrom
                   Q00  =  -0.033141

C          x =  1.501560  y = -2.000011  z =  1.027456 angstrom
           Maximum rank =  0   Radius =  0.650 angstrom
                   Q00  =  -0.239672

C          x =  3.043560  y = -1.087011  z = -0.740544 angstrom
           Maximum rank =  0   Radius =  0.650 angstrom
                   Q00  =  -0.244043

H          x =  0.955560  y = -0.601011  z = -0.501544 angstrom
           Maximum rank =  0   Radius =  0.325 angstrom
                   Q00  =   0.068669

H          x =  2.015560  y =  0.080989  z =  0.750456 angstrom
           Maximum rank =  0   Radius =  0.325 angstrom
                   Q00  =   0.038297

H          x =  2.379560  y = -2.265011  z =  1.615456 angstrom
           Maximum rank =  0   Radius =  0.325 angstrom
                   Q00  =   0.033073

H          x =  1.278560  y = -2.850011  z =  0.380456 angstrom
           Maximum rank =  0   Radius =  0.325 angstrom
                   Q00  =   0.064370

H          x =  3.930560  y = -1.134011  z = -0.099544 angstrom
           Maximum rank =  0   Radius =  0.325 angstrom
                   Q00  =   0.049674

H          x =  2.914560  y = -2.074011  z = -1.198544 angstrom
           Maximum rank =  0   Radius =  0.325 angstrom
                   Q00  =   0.062094

H          x =  0.630395  y = -1.839325  z =  1.679569 angstrom
           Maximum rank =  0   Radius =  0.325 angstrom
                   Q00  =   0.116294

H          x =  3.183390  y = -0.335357  z = -1.531408 angstrom
           Maximum rank =  0   Radius =  0.325 angstrom
                   Q00  =   0.075572

C          x = -1.099440  y =  2.061989  z = -0.914544 angstrom
           Maximum rank =  0   Radius =  0.650 angstrom
                   Q00  =  -0.277445

C          x = -1.631440  y =  0.923989  z = -0.055544 angstrom
           Maximum rank =  0   Radius =  0.650 angstrom
                   Q00  =   0.965825

O          x = -1.796440  y =  1.119989  z =  1.155456 angstrom
           Maximum rank =  0   Radius =  0.650 angstrom
                   Q00  =  -0.916496

O          x = -1.839440  y = -0.191011  z = -0.597544 angstrom
           Maximum rank =  0   Radius =  0.650 angstrom
                   Q00  =  -0.941289

H          x = -1.643440  y =  2.105989  z = -1.860544 angstrom
           Maximum rank =  0   Radius =  0.325 angstrom
                   Q00  =   0.057638

H          x = -0.055440  y =  1.840989  z = -1.146544 angstrom
           Maximum rank =  0   Radius =  0.325 angstrom
                   Q00  =   0.072827

H          x = -1.140299  y =  3.044030  z = -0.420656 angstrom
           Maximum rank =  0   Radius =  0.325 angstrom
                   Q00  =   0.047751

Total multipoles referred to origin at
           x =   0.000000,  y =    0.000000,  z =    0.000000 angstrom
                   Q00  =  -1.000000

Finished at 22:31:35 on 27 Apr 2020

  DMA results are available in the Python driver through the
	  variable('DMA DISTRIBUTED MULTIPOLES')
  and
	  variable('DMA TOTAL MULTIPOLES')
  commands.

    Psi4 stopped on: Monday, 27 April 2020 10:31PM
    Psi4 wall time for execution: 0:00:32.43

*** Psi4 exiting successfully. Buy a developer a beer!
