                               Psi4 1.3.2 release

  ==> Input File <==

--------------------------------------------------------------------------
import numpy as np
set {scf_type pk
basis cc-pvdz
d_convergence 10
gdma_switch   0
gdma_limit    0
gdma_origin   [ 0.0,  0.0,  0.0 ]
}
molecule test {
    units Angstrom
    0 1
    --
    0 1
    C                0.625328156398011     0.652081971200870    -3.460403041294025
    C                0.541328156398011    -0.452918028799130     0.170596958705976
    C               -0.670671843601989    -1.120918028799130     0.244596958705976
    C                0.959328156398011     0.119081971200870    -1.015403041294024
    C                0.160328156398011     0.028081971200870    -2.155403041294024
    C               -1.476671843601989    -1.252918028799130    -0.875403041294024
    C               -1.041671843601989    -0.703918028799131    -2.088403041294024
    H                1.160328156398011    -0.368918028799130     1.053596958705976
    H               -0.988671843601989    -1.544918028799130     1.187596958705976
    H                1.902328156398011     0.647081971200870    -1.049403041294024
    H               -2.421671843601989    -1.773918028799131    -0.810403041294024
    H                1.378328156398011     1.410081971200869    -3.243403041294024
    H               -0.221671843601989     1.157081971200870    -3.918403041294024
    H               -1.660671843601989    -0.798918028799130    -2.968403041294025
    H                1.041306156398011    -0.082502028799130    -4.165632041294025
    C               -0.038671843601989     0.632081971200870     3.712596958705975
    C                0.745328156398011     1.645081971200870     4.552596958705974
    H               -0.417671843601989     1.106081971200870     2.806596958705975
    H                0.611328156398011    -0.189918028799130     3.424596958705976
    H               -0.869671843601989     0.220081971200870     4.283596958705975
    H                0.971328156398011     1.183081971200870     5.514596958705976
    H                0.155191156398011     2.557432971200870     4.723926958705975
    H                1.694186156398011     1.886990271200870     4.051449958705976

}
e, wfn = energy('scf', return_wfn=True)
gdma(wfn)
dmavals = variable('DMA DISTRIBUTED MULTIPOLES')
charges = np.array(dmavals)
print(charges)
np.save('SSI-032PHE-081VAL-1-dimer.npy', np.array(charges))--------------------------------------------------------------------------

*** tstart() called on ds3
*** at Mon Apr 27 21:42:11 2020

   => Loading Basis Set <=

    Name: CC-PVDZ
    Role: ORBITAL
    Keyword: BASIS
    atoms 1-7, 16-17  entry C          line   138 file /theoryfs2/ds/metcalf/miniconda2/envs/tf2gpu/share/psi4/basis/cc-pvdz.gbs
    atoms 8-15, 18-23 entry H          line    22 file /theoryfs2/ds/metcalf/miniconda2/envs/tf2gpu/share/psi4/basis/cc-pvdz.gbs

         ---------------------------------------------------------
                                   SCF
               by Justin Turney, Rob Parrish, Andy Simmonett
                          and Daniel G. A. Smith
                              RHF Reference
                        1 Threads,    500 MiB Core
         ---------------------------------------------------------

  ==> Geometry <==

    Molecular point group: c1
    Full point group: C1

    Geometry (in Angstrom), charge = 0, multiplicity = 1:

       Center              X                  Y                   Z               Mass
    ------------   -----------------  -----------------  -----------------  -----------------
         C            0.625328156398     0.652081971201    -3.460403041294    12.000000000000
         C            0.541328156398    -0.452918028799     0.170596958706    12.000000000000
         C           -0.670671843602    -1.120918028799     0.244596958706    12.000000000000
         C            0.959328156398     0.119081971201    -1.015403041294    12.000000000000
         C            0.160328156398     0.028081971201    -2.155403041294    12.000000000000
         C           -1.476671843602    -1.252918028799    -0.875403041294    12.000000000000
         C           -1.041671843602    -0.703918028799    -2.088403041294    12.000000000000
         H            1.160328156398    -0.368918028799     1.053596958706     1.007825032230
         H           -0.988671843602    -1.544918028799     1.187596958706     1.007825032230
         H            1.902328156398     0.647081971201    -1.049403041294     1.007825032230
         H           -2.421671843602    -1.773918028799    -0.810403041294     1.007825032230
         H            1.378328156398     1.410081971201    -3.243403041294     1.007825032230
         H           -0.221671843602     1.157081971201    -3.918403041294     1.007825032230
         H           -1.660671843602    -0.798918028799    -2.968403041294     1.007825032230
         H            1.041306156398    -0.082502028799    -4.165632041294     1.007825032230
         C           -0.038671843602     0.632081971201     3.712596958706    12.000000000000
         C            0.745328156398     1.645081971201     4.552596958706    12.000000000000
         H           -0.417671843602     1.106081971201     2.806596958706     1.007825032230
         H            0.611328156398    -0.189918028799     3.424596958706     1.007825032230
         H           -0.869671843602     0.220081971201     4.283596958706     1.007825032230
         H            0.971328156398     1.183081971201     5.514596958706     1.007825032230
         H            0.155191156398     2.557432971201     4.723926958706     1.007825032230
         H            1.694186156398     1.886990271201     4.051449958706     1.007825032230

  Running in c1 symmetry.

  Rotational constants: A =      0.09743  B =      0.01861  C =      0.01636 [cm^-1]
  Rotational constants: A =   2920.82836  B =    557.78100  C =    490.32528 [MHz]
  Nuclear repulsion =  396.895484131363901

  Charge       = 0
  Multiplicity = 1
  Electrons    = 68
  Nalpha       = 34
  Nbeta        = 34

  ==> Algorithm <==

  SCF Algorithm Type is PK.
  DIIS enabled.
  MOM disabled.
  Fractional occupation disabled.
  Guess Type is SAD.
  Energy threshold   = 1.00e-06
  Density threshold  = 1.00e-10
  Integral threshold = 0.00e+00

  ==> Primary Basis <==

  Basis Set: CC-PVDZ
    Blend: CC-PVDZ
    Number of shells: 96
    Number of basis function: 196
    Number of Cartesian functions: 205
    Spherical Harmonics?: true
    Max angular momentum: 2

  ==> Pre-Iterations <==

   -------------------------------------------------------
    Irrep   Nso     Nmo     Nalpha   Nbeta   Ndocc  Nsocc
   -------------------------------------------------------
     A        196     196       0       0       0       0
   -------------------------------------------------------
    Total     196     196      34      34      34       0
   -------------------------------------------------------

  ==> Integral Setup <==

  Using integral reordering PK algorithm.
  Sizing the integral batches needed.
  Building batch lookup table.
   Calculation information:
      Number of atoms:                  23
      Number of AO shells:              96
      Number of primitives:            268
      Number of atomic orbitals:       205
      Number of basis functions:       196

      Integral cutoff                 1.00e-12
      Number of threads:                 1

	Batch   1 pq = [       0,    9405] index = [             0,44231715] size =     44231715
	Batch   2 pq = [    9405,   13301] index = [      44231715,88464951] size =     44233236
	Batch   3 pq = [   13301,   16290] index = [      88464951,132690195] size =     44225244
	Batch   4 pq = [   16290,   18810] index = [     132690195,176917455] size =     44227260
	Batch   5 pq = [   18810,   19306] index = [     176917455,186370471] size =      9453016
  Task number: 17
  Buffer size: 11059200
  Buffer per thread: 2
  We computed 8279668 shell quartets total.
  Whereas there are 10841496 unique shell quartets.

  ==> DiskJK: Disk-Based J/K Matrices <==

    J tasked:                  Yes
    K tasked:                  Yes
    wK tasked:                  No
    Memory [MiB]:              375
    Schwarz Cutoff:          1E-12

    OpenMP threads:              1

  Minimum eigenvalue in the overlap matrix is 3.1576244047E-04.
  Using Symmetric Orthogonalization.

  SCF Guess: Superposition of Atomic Densities via on-the-fly atomic UHF.

  ==> Iterations <==

                        Total Energy        Delta E     RMS |[F,P]|

   @RHF iter SAD:  -347.83285260724028   -3.47833e+02   0.00000e+00
   @RHF iter   1:  -348.76799259456845   -9.35140e-01   2.88799e-03 DIIS
   @RHF iter   2:  -348.96010492568877   -1.92112e-01   1.19357e-03 DIIS
   @RHF iter   3:  -348.98993635560964   -2.98314e-02   2.56793e-04 DIIS
   @RHF iter   4:  -348.99240165560622   -2.46530e-03   4.89614e-05 DIIS
   @RHF iter   5:  -348.99246764350949   -6.59879e-05   1.58981e-05 DIIS
   @RHF iter   6:  -348.99247407271116   -6.42920e-06   4.26411e-06 DIIS
   @RHF iter   7:  -348.99247458130469   -5.08594e-07   1.26358e-06 DIIS
   @RHF iter   8:  -348.99247462785837   -4.65537e-08   2.74595e-07 DIIS
   @RHF iter   9:  -348.99247463180643   -3.94806e-09   1.13016e-07 DIIS
   @RHF iter  10:  -348.99247463241011   -6.03677e-10   4.61802e-08 DIIS
   @RHF iter  11:  -348.99247463259201   -1.81899e-10   2.09220e-08 DIIS
   @RHF iter  12:  -348.99247463263038   -3.83693e-11   1.12163e-08 DIIS
   @RHF iter  13:  -348.99247463264248   -1.21076e-11   4.09631e-09 DIIS
   @RHF iter  14:  -348.99247463264351   -1.02318e-12   1.12499e-09 DIIS
   @RHF iter  15:  -348.99247463264510   -1.59162e-12   3.74703e-10 DIIS
   @RHF iter  16:  -348.99247463264373    1.36424e-12   1.08490e-10 DIIS
   @RHF iter  17:  -348.99247463264658   -2.84217e-12   4.14187e-11 DIIS
  Energy and wave function converged.

  ==> Post-Iterations <==

    Orbital Energies [Eh]
    ---------------------

    Doubly Occupied:

       1A    -11.242473     2A    -11.235718     3A    -11.232463
       4A    -11.231572     5A    -11.229871     6A    -11.228821
       7A    -11.228353     8A    -11.219639     9A    -11.215942
      10A     -1.150778    11A     -1.041306    12A     -1.017487
      13A     -1.011244    14A     -0.929855    15A     -0.837381
      16A     -0.823043    17A     -0.794120    18A     -0.689881
      19A     -0.630139    20A     -0.628655    21A     -0.598117
      22A     -0.597334    23A     -0.582508    24A     -0.575939
      25A     -0.558117    26A     -0.535734    27A     -0.499797
      28A     -0.488663    29A     -0.488096    30A     -0.483975
      31A     -0.481944    32A     -0.477856    33A     -0.332236
      34A     -0.320105

    Virtual:

      35A      0.135928    36A      0.142435    37A      0.175092
      38A      0.191158    39A      0.204640    40A      0.219553
      41A      0.227937    42A      0.241632    43A      0.255821
      44A      0.258465    45A      0.268486    46A      0.281103
      47A      0.284843    48A      0.288629    49A      0.290001
      50A      0.332877    51A      0.365658    52A      0.374099
      53A      0.396662    54A      0.455866    55A      0.463799
      56A      0.478703    57A      0.492631    58A      0.558535
      59A      0.592209    60A      0.598963    61A      0.607248
      62A      0.626621    63A      0.634739    64A      0.666924
      65A      0.682777    66A      0.688299    67A      0.694028
      68A      0.716827    69A      0.723109    70A      0.738180
      71A      0.744679    72A      0.748456    73A      0.758816
      74A      0.762582    75A      0.779755    76A      0.803778
      77A      0.833110    78A      0.858468    79A      0.863236
      80A      0.869299    81A      0.877880    82A      0.889667
      83A      0.890176    84A      0.894118    85A      0.901231
      86A      0.903720    87A      0.910237    88A      0.917638
      89A      0.929920    90A      0.935295    91A      0.940572
      92A      0.945890    93A      0.978643    94A      0.997903
      95A      1.022262    96A      1.052086    97A      1.115486
      98A      1.121603    99A      1.131546   100A      1.142258
     101A      1.160664   102A      1.180928   103A      1.207427
     104A      1.227527   105A      1.233403   106A      1.248655
     107A      1.259767   108A      1.266316   109A      1.295130
     110A      1.307712   111A      1.321585   112A      1.328579
     113A      1.414004   114A      1.473688   115A      1.484465
     116A      1.504552   117A      1.522382   118A      1.553886
     119A      1.580901   120A      1.607628   121A      1.673905
     122A      1.680635   123A      1.695414   124A      1.700066
     125A      1.735500   126A      1.749636   127A      1.760431
     128A      1.789615   129A      1.812661   130A      1.856302
     131A      1.864209   132A      1.875665   133A      1.888199
     134A      1.890323   135A      1.897067   136A      1.914406
     137A      1.917987   138A      1.922702   139A      1.934621
     140A      1.939555   141A      1.940923   142A      1.948156
     143A      1.955955   144A      1.959811   145A      1.974827
     146A      1.979665   147A      1.992759   148A      2.010789
     149A      2.046478   150A      2.052517   151A      2.074676
     152A      2.104850   153A      2.114073   154A      2.124127
     155A      2.145977   156A      2.162127   157A      2.165445
     158A      2.179465   159A      2.188890   160A      2.247376
     161A      2.276412   162A      2.288720   163A      2.296872
     164A      2.300561   165A      2.313997   166A      2.320575
     167A      2.349639   168A      2.444888   169A      2.455201
     170A      2.466871   171A      2.473812   172A      2.504198
     173A      2.538060   174A      2.564936   175A      2.582471
     176A      2.623496   177A      2.738975   178A      2.748929
     179A      2.761257   180A      2.771013   181A      2.786158
     182A      2.797009   183A      2.812842   184A      2.844268
     185A      2.846659   186A      2.851452   187A      2.877421
     188A      2.946355   189A      2.962951   190A      2.981812
     191A      3.006573   192A      3.022679   193A      3.149609
     194A      3.197164   195A      3.300663   196A      3.963648

    Final Occupation by Irrep:
              A
    DOCC [    34 ]

  @RHF Final Energy:  -348.99247463264658

   => Energetics <=

    Nuclear Repulsion Energy =            396.8954841313639008
    One-Electron Energy =               -1256.4975923486581451
    Two-Electron Energy =                 510.6096335846476677
    Total Energy =                       -348.9924746326465765

Computation Completed

Properties will be evaluated at   0.000000,   0.000000,   0.000000 [a0]

Properties computed using the SCF density matrix

  Nuclear Dipole Moment: [e a0]
     X:     2.1883      Y:     5.0706      Z:    10.2093

  Electronic Dipole Moment: [e a0]
     X:    -2.1717      Y:    -5.0184      Z:   -10.3182

  Dipole Moment: [e a0]
     X:     0.0166      Y:     0.0522      Z:    -0.1088     Total:     0.1218

  Dipole Moment: [D]
     X:     0.0422      Y:     0.1328      Z:    -0.2766     Total:     0.3097

*** tstop() called on ds3 at Mon Apr 27 21:43:36 2020
Module time:
	user time   =      59.53 seconds =       0.99 minutes
	system time =      28.55 seconds =       0.48 minutes
	total time  =         85 seconds =       1.42 minutes
Total time:
	user time   =      59.53 seconds =       0.99 minutes
	system time =      28.55 seconds =       0.48 minutes
	total time  =         85 seconds =       1.42 minutes
                                     G D M A

                                 by Anthony Stone

                           version 2.2.06, 22 June 2011

               Distributed Multipoles from Gaussian wavefunctions

Starting at 21:43:36 on 27 Apr 2020

Using SCF density matrix from file ./SSI/SSI-032PHE-081VAL-1-dimer.test.29074.fchk

                         Distributed Multipole Analysis

Standard DMA

Positions and radii in angstrom
Multipole moments in atomic units, ea_0^k for rank k

C          x =  0.625328  y =  0.652082  z = -3.460403 angstrom
           Maximum rank =  0   Radius =  0.650 angstrom
                   Q00  =  -0.203670

C          x =  0.541328  y = -0.452918  z =  0.170597 angstrom
           Maximum rank =  0   Radius =  0.650 angstrom
                   Q00  =   0.004297

C          x = -0.670672  y = -1.120918  z =  0.244597 angstrom
           Maximum rank =  0   Radius =  0.650 angstrom
                   Q00  =  -0.055376

C          x =  0.959328  y =  0.119082  z = -1.015403 angstrom
           Maximum rank =  0   Radius =  0.650 angstrom
                   Q00  =  -0.092198

C          x =  0.160328  y =  0.028082  z = -2.155403 angstrom
           Maximum rank =  0   Radius =  0.650 angstrom
                   Q00  =  -0.105641

C          x = -1.476672  y = -1.252918  z = -0.875403 angstrom
           Maximum rank =  0   Radius =  0.650 angstrom
                   Q00  =  -0.073630

C          x = -1.041672  y = -0.703918  z = -2.088403 angstrom
           Maximum rank =  0   Radius =  0.650 angstrom
                   Q00  =  -0.079300

H          x =  1.160328  y = -0.368918  z =  1.053597 angstrom
           Maximum rank =  0   Radius =  0.325 angstrom
                   Q00  =   0.062078

H          x = -0.988672  y = -1.544918  z =  1.187597 angstrom
           Maximum rank =  0   Radius =  0.325 angstrom
                   Q00  =   0.059241

H          x =  1.902328  y =  0.647082  z = -1.049403 angstrom
           Maximum rank =  0   Radius =  0.325 angstrom
                   Q00  =   0.056701

H          x = -2.421672  y = -1.773918  z = -0.810403 angstrom
           Maximum rank =  0   Radius =  0.325 angstrom
                   Q00  =   0.066640

H          x =  1.378328  y =  1.410082  z = -3.243403 angstrom
           Maximum rank =  0   Radius =  0.325 angstrom
                   Q00  =   0.097682

H          x = -0.221672  y =  1.157082  z = -3.918403 angstrom
           Maximum rank =  0   Radius =  0.325 angstrom
                   Q00  =   0.100338

H          x = -1.660672  y = -0.798918  z = -2.968403 angstrom
           Maximum rank =  0   Radius =  0.325 angstrom
                   Q00  =   0.057504

H          x =  1.041306  y = -0.082502  z = -4.165632 angstrom
           Maximum rank =  0   Radius =  0.325 angstrom
                   Q00  =   0.105371

C          x = -0.038672  y =  0.632082  z =  3.712597 angstrom
           Maximum rank =  0   Radius =  0.650 angstrom
                   Q00  =  -0.246927

C          x =  0.745328  y =  1.645082  z =  4.552597 angstrom
           Maximum rank =  0   Radius =  0.650 angstrom
                   Q00  =  -0.228103

H          x = -0.417672  y =  1.106082  z =  2.806597 angstrom
           Maximum rank =  0   Radius =  0.325 angstrom
                   Q00  =   0.085696

H          x =  0.611328  y = -0.189918  z =  3.424597 angstrom
           Maximum rank =  0   Radius =  0.325 angstrom
                   Q00  =   0.073183

H          x = -0.869672  y =  0.220082  z =  4.283597 angstrom
           Maximum rank =  0   Radius =  0.325 angstrom
                   Q00  =   0.079114

H          x =  0.971328  y =  1.183082  z =  5.514597 angstrom
           Maximum rank =  0   Radius =  0.325 angstrom
                   Q00  =   0.076961

H          x =  0.155191  y =  2.557433  z =  4.723927 angstrom
           Maximum rank =  0   Radius =  0.325 angstrom
                   Q00  =   0.082161

H          x =  1.694186  y =  1.886990  z =  4.051450 angstrom
           Maximum rank =  0   Radius =  0.325 angstrom
                   Q00  =   0.077878

Total multipoles referred to origin at
           x =   0.000000,  y =    0.000000,  z =    0.000000 angstrom
                   Q00  =  -0.000000

Finished at 21:43:36 on 27 Apr 2020

  DMA results are available in the Python driver through the
	  variable('DMA DISTRIBUTED MULTIPOLES')
  and
	  variable('DMA TOTAL MULTIPOLES')
  commands.

    Psi4 stopped on: Monday, 27 April 2020 09:43PM
    Psi4 wall time for execution: 0:01:24.89

*** Psi4 exiting successfully. Buy a developer a beer!
