                               Psi4 1.3.2 release

  ==> Input File <==

--------------------------------------------------------------------------
import numpy as np
set {scf_type pk
basis cc-pvdz
d_convergence 10
gdma_switch   0
gdma_limit    0
gdma_origin   [ 0.0,  0.0,  0.0 ]
}
molecule test {
    units Angstrom
    1 1
    --
    1 1
    C                0.505670036369067    -2.088804421706650    -0.750738428485917
    C                0.984670036369067    -3.527804421706650    -0.826738428485917
    H                1.184670036369067    -1.488804421706650    -0.145738428485917
    H                0.471670036369067    -1.674804421706650    -1.759738428485917
    H               -0.487329963630933    -2.077804421706650    -0.332738428485917
    H                1.936670036369067    -3.536804421706650    -1.350738428485917
    H                1.138475036369067    -3.936034421706650     0.183059571514083
    H                0.255630036369067    -4.134144421706650    -1.384282428485917
    C               -1.962329963630933     1.104195578293350     1.410261571514083
    C                0.110670036369067     1.144195578293350     0.060261571514083
    N               -0.520329963630933     1.298195578293350     1.212261571514083
    N               -0.555329963630933     0.798195578293350    -1.023738428485917
    N                1.408670036369067     1.343195578293350    -0.003738428485917
    H                0.016670036369067     1.646195578293350     1.993261571514083
    H               -1.555329963630933     0.695195578293350    -0.994738428485917
    H               -0.072329963630933     0.726195578293350    -1.904738428485917
    H                1.923670036369067     1.601195578293350     0.831261571514083
    H                1.891670036369067     1.244195578293350    -0.885738428485917
    H               -2.520329963630933     0.959195578293350     0.484261571514083
    H               -2.352329963630933     2.016195578293350     1.867261571514083
    H               -2.156260963630933     0.273995578293350     2.105361571514083

}
e, wfn = energy('scf', return_wfn=True)
gdma(wfn)
dmavals = variable('DMA DISTRIBUTED MULTIPOLES')
charges = np.array(dmavals)
print(charges)
np.save('SSI-138VAL-144ARG-1-dimer.npy', np.array(charges))--------------------------------------------------------------------------

*** tstart() called on ds3
*** at Mon Apr 27 14:02:37 2020

   => Loading Basis Set <=

    Name: CC-PVDZ
    Role: ORBITAL
    Keyword: BASIS
    atoms 1-2, 9-10  entry C          line   138 file /theoryfs2/ds/metcalf/miniconda2/envs/tf2gpu/share/psi4/basis/cc-pvdz.gbs
    atoms 3-8, 14-21 entry H          line    22 file /theoryfs2/ds/metcalf/miniconda2/envs/tf2gpu/share/psi4/basis/cc-pvdz.gbs
    atoms 11-13      entry N          line   168 file /theoryfs2/ds/metcalf/miniconda2/envs/tf2gpu/share/psi4/basis/cc-pvdz.gbs

         ---------------------------------------------------------
                                   SCF
               by Justin Turney, Rob Parrish, Andy Simmonett
                          and Daniel G. A. Smith
                              RHF Reference
                        1 Threads,    500 MiB Core
         ---------------------------------------------------------

  ==> Geometry <==

    Molecular point group: c1
    Full point group: C1

    Geometry (in Angstrom), charge = 1, multiplicity = 1:

       Center              X                  Y                   Z               Mass
    ------------   -----------------  -----------------  -----------------  -----------------
         C            0.505670036369    -2.088804421707    -0.750738428486    12.000000000000
         C            0.984670036369    -3.527804421707    -0.826738428486    12.000000000000
         H            1.184670036369    -1.488804421707    -0.145738428486     1.007825032230
         H            0.471670036369    -1.674804421707    -1.759738428486     1.007825032230
         H           -0.487329963631    -2.077804421707    -0.332738428486     1.007825032230
         H            1.936670036369    -3.536804421707    -1.350738428486     1.007825032230
         H            1.138475036369    -3.936034421707     0.183059571514     1.007825032230
         H            0.255630036369    -4.134144421707    -1.384282428486     1.007825032230
         C           -1.962329963631     1.104195578293     1.410261571514    12.000000000000
         C            0.110670036369     1.144195578293     0.060261571514    12.000000000000
         N           -0.520329963631     1.298195578293     1.212261571514    14.003074004430
         N           -0.555329963631     0.798195578293    -1.023738428486    14.003074004430
         N            1.408670036369     1.343195578293    -0.003738428486    14.003074004430
         H            0.016670036369     1.646195578293     1.993261571514     1.007825032230
         H           -1.555329963631     0.695195578293    -0.994738428486     1.007825032230
         H           -0.072329963631     0.726195578293    -1.904738428486     1.007825032230
         H            1.923670036369     1.601195578293     0.831261571514     1.007825032230
         H            1.891670036369     1.244195578293    -0.885738428486     1.007825032230
         H           -2.520329963631     0.959195578293     0.484261571514     1.007825032230
         H           -2.352329963631     2.016195578293     1.867261571514     1.007825032230
         H           -2.156260963631     0.273995578293     2.105361571514     1.007825032230

  Running in c1 symmetry.

  Rotational constants: A =      0.10600  B =      0.03540  C =      0.03121 [cm^-1]
  Rotational constants: A =   3177.70724  B =   1061.39134  C =    935.66099 [MHz]
  Nuclear repulsion =  327.146415122478743

  Charge       = 1
  Multiplicity = 1
  Electrons    = 58
  Nalpha       = 29
  Nbeta        = 29

  ==> Algorithm <==

  SCF Algorithm Type is PK.
  DIIS enabled.
  MOM disabled.
  Fractional occupation disabled.
  Guess Type is SAD.
  Energy threshold   = 1.00e-06
  Density threshold  = 1.00e-10
  Integral threshold = 0.00e+00

  ==> Primary Basis <==

  Basis Set: CC-PVDZ
    Blend: CC-PVDZ
    Number of shells: 84
    Number of basis function: 168
    Number of Cartesian functions: 175
    Spherical Harmonics?: true
    Max angular momentum: 2

  ==> Pre-Iterations <==

   -------------------------------------------------------
    Irrep   Nso     Nmo     Nalpha   Nbeta   Ndocc  Nsocc
   -------------------------------------------------------
     A        168     168       0       0       0       0
   -------------------------------------------------------
    Total     168     168      29      29      29       0
   -------------------------------------------------------

  ==> Integral Setup <==

  Using integral reordering PK algorithm.
  Sizing the integral batches needed.
  Building batch lookup table.
   Calculation information:
      Number of atoms:                  21
      Number of AO shells:              84
      Number of primitives:            224
      Number of atomic orbitals:       175
      Number of basis functions:       168

      Integral cutoff                 1.00e-12
      Number of threads:                 1

	Batch   1 pq = [       0,    9405] index = [             0,44231715] size =     44231715
	Batch   2 pq = [    9405,   13301] index = [      44231715,88464951] size =     44233236
	Batch   3 pq = [   13301,   14196] index = [      88464951,100770306] size =     12305355
  Task number: 10
  Buffer size: 11059200
  Buffer per thread: 2
  We computed 5934069 shell quartets total.
  Whereas there are 6374235 unique shell quartets.

  ==> DiskJK: Disk-Based J/K Matrices <==

    J tasked:                  Yes
    K tasked:                  Yes
    wK tasked:                  No
    Memory [MiB]:              375
    Schwarz Cutoff:          1E-12

    OpenMP threads:              1

  Minimum eigenvalue in the overlap matrix is 3.2980966571E-03.
  Using Symmetric Orthogonalization.

  SCF Guess: Superposition of Atomic Densities via on-the-fly atomic UHF.

  ==> Iterations <==

                        Total Energy        Delta E     RMS |[F,P]|

   @RHF iter SAD:  -322.20476854930462   -3.22205e+02   0.00000e+00
   @RHF iter   1:  -322.60787666344356   -4.03108e-01   3.44163e-03 DIIS
   @RHF iter   2:  -322.78257185067076   -1.74695e-01   1.34390e-03 DIIS
   @RHF iter   3:  -322.80792884774382   -2.53570e-02   3.19372e-04 DIIS
   @RHF iter   4:  -322.81032371422788   -2.39487e-03   4.95616e-05 DIIS
   @RHF iter   5:  -322.81038448985760   -6.07756e-05   2.03998e-05 DIIS
   @RHF iter   6:  -322.81039283357268   -8.34372e-06   3.96924e-06 DIIS
   @RHF iter   7:  -322.81039340201704   -5.68444e-07   1.24032e-06 DIIS
   @RHF iter   8:  -322.81039343841775   -3.64007e-08   3.63262e-07 DIIS
   @RHF iter   9:  -322.81039344169744   -3.27969e-09   8.75972e-08 DIIS
   @RHF iter  10:  -322.81039344189765   -2.00203e-10   2.58644e-08 DIIS
   @RHF iter  11:  -322.81039344191510   -1.74509e-11   6.89774e-09 DIIS
   @RHF iter  12:  -322.81039344191447    6.25278e-13   2.01757e-09 DIIS
   @RHF iter  13:  -322.81039344191572   -1.25056e-12   6.62301e-10 DIIS
   @RHF iter  14:  -322.81039344191527    4.54747e-13   2.14995e-10 DIIS
   @RHF iter  15:  -322.81039344191618   -9.09495e-13   7.15808e-11 DIIS
  Energy and wave function converged.

  ==> Post-Iterations <==

    Orbital Energies [Eh]
    ---------------------

    Doubly Occupied:

       1A    -15.787842     2A    -15.786921     3A    -15.783586
       4A    -11.587493     5A    -11.443889     6A    -11.334882
       7A    -11.317493     8A     -1.546660     9A     -1.402417
      10A     -1.391413    11A     -1.143033    12A     -1.133341
      13A     -1.037664    14A     -0.980480    15A     -0.947169
      16A     -0.941698    17A     -0.859708    18A     -0.856510
      19A     -0.823847    20A     -0.795139    21A     -0.744504
      22A     -0.727843    23A     -0.714986    24A     -0.710878
      25A     -0.623527    26A     -0.607263    27A     -0.593357
      28A     -0.592930    29A     -0.581716

    Virtual:

      30A     -0.010999    31A      0.022125    32A      0.029590
      33A      0.032591    34A      0.059271    35A      0.079550
      36A      0.087520    37A      0.112426    38A      0.121421
      39A      0.134435    40A      0.146591    41A      0.164928
      42A      0.171005    43A      0.185923    44A      0.189103
      45A      0.209320    46A      0.261769    47A      0.303004
      48A      0.333264    49A      0.350157    50A      0.421655
      51A      0.432436    52A      0.475745    53A      0.484608
      54A      0.495630    55A      0.515603    56A      0.533572
      57A      0.540921    58A      0.546819    59A      0.567837
      60A      0.584246    61A      0.599947    62A      0.655450
      63A      0.682752    64A      0.689865    65A      0.694416
      66A      0.701366    67A      0.742430    68A      0.751824
      69A      0.761321    70A      0.769598    71A      0.790066
      72A      0.794207    73A      0.797804    74A      0.806639
      75A      0.814999    76A      0.843185    77A      0.862175
      78A      0.869392    79A      0.891763    80A      0.906876
      81A      0.954487    82A      0.982941    83A      1.004141
      84A      1.017691    85A      1.035019    86A      1.072206
      87A      1.116481    88A      1.125766    89A      1.153941
      90A      1.183333    91A      1.194711    92A      1.230513
      93A      1.270172    94A      1.304883    95A      1.353460
      96A      1.381530    97A      1.385307    98A      1.474088
      99A      1.478593   100A      1.507658   101A      1.525492
     102A      1.538345   103A      1.556694   104A      1.585725
     105A      1.589648   106A      1.602012   107A      1.653742
     108A      1.688112   109A      1.706631   110A      1.723747
     111A      1.742006   112A      1.751819   113A      1.765486
     114A      1.777936   115A      1.784648   116A      1.813713
     117A      1.818500   118A      1.824034   119A      1.836600
     120A      1.851875   121A      1.867553   122A      1.888933
     123A      1.902979   124A      1.932474   125A      1.960989
     126A      1.984409   127A      1.989531   128A      2.016804
     129A      2.018206   130A      2.058801   131A      2.108305
     132A      2.153379   133A      2.162222   134A      2.194950
     135A      2.253389   136A      2.258633   137A      2.293622
     138A      2.304009   139A      2.335417   140A      2.338682
     141A      2.353137   142A      2.362254   143A      2.378519
     144A      2.428821   145A      2.454509   146A      2.464842
     147A      2.478341   148A      2.547881   149A      2.569533
     150A      2.587517   151A      2.638719   152A      2.673389
     153A      2.684289   154A      2.730056   155A      2.739934
     156A      2.749318   157A      2.754767   158A      2.780060
     159A      2.822256   160A      2.841624   161A      2.856753
     162A      2.864799   163A      2.917450   164A      3.060968
     165A      3.104301   166A      3.130603   167A      3.588744
     168A      3.656260

    Final Occupation by Irrep:
              A
    DOCC [    29 ]

  @RHF Final Energy:  -322.81039344191618

   => Energetics <=

    Nuclear Repulsion Energy =            327.1464151224787429
    One-Electron Energy =               -1074.3172397768564679
    Two-Electron Energy =                 424.3604312124615490
    Total Energy =                       -322.8103934419161760

Computation Completed

Properties will be evaluated at   0.000000,   0.000000,   0.000000 [a0]

Properties computed using the SCF density matrix

  Nuclear Dipole Moment: [e a0]
     X:    -0.3054      Y:    -7.2154      Z:    -1.2136

  Electronic Dipole Moment: [e a0]
     X:     0.2227      Y:     9.2576      Z:     1.4837

  Dipole Moment: [e a0]
     X:    -0.0828      Y:     2.0422      Z:     0.2701     Total:     2.0617

  Dipole Moment: [D]
     X:    -0.2104      Y:     5.1908      Z:     0.6866     Total:     5.2402

*** tstop() called on ds3 at Mon Apr 27 14:03:27 2020
Module time:
	user time   =      36.32 seconds =       0.61 minutes
	system time =      13.56 seconds =       0.23 minutes
	total time  =         50 seconds =       0.83 minutes
Total time:
	user time   =      36.32 seconds =       0.61 minutes
	system time =      13.56 seconds =       0.23 minutes
	total time  =         50 seconds =       0.83 minutes
                                     G D M A

                                 by Anthony Stone

                           version 2.2.06, 22 June 2011

               Distributed Multipoles from Gaussian wavefunctions

Starting at 14:3:27 on 27 Apr 2020

Using SCF density matrix from file ./SSI/SSI-138VAL-144ARG-1-dimer.test.8614.fchk

                         Distributed Multipole Analysis

Standard DMA

Positions and radii in angstrom
Multipole moments in atomic units, ea_0^k for rank k

C          x =  0.505670  y = -2.088804  z = -0.750738 angstrom
           Maximum rank =  0   Radius =  0.650 angstrom
                   Q00  =  -0.281503

C          x =  0.984670  y = -3.527804  z = -0.826738 angstrom
           Maximum rank =  0   Radius =  0.650 angstrom
                   Q00  =  -0.198047

H          x =  1.184670  y = -1.488804  z = -0.145738 angstrom
           Maximum rank =  0   Radius =  0.325 angstrom
                   Q00  =   0.059791

H          x =  0.471670  y = -1.674804  z = -1.759738 angstrom
           Maximum rank =  0   Radius =  0.325 angstrom
                   Q00  =   0.059907

H          x = -0.487330  y = -2.077804  z = -0.332738 angstrom
           Maximum rank =  0   Radius =  0.325 angstrom
                   Q00  =   0.076059

H          x =  1.936670  y = -3.536804  z = -1.350738 angstrom
           Maximum rank =  0   Radius =  0.325 angstrom
                   Q00  =   0.088253

H          x =  1.138475  y = -3.936034  z =  0.183060 angstrom
           Maximum rank =  0   Radius =  0.325 angstrom
                   Q00  =   0.091552

H          x =  0.255630  y = -4.134144  z = -1.384282 angstrom
           Maximum rank =  0   Radius =  0.325 angstrom
                   Q00  =   0.095744

C          x = -1.962330  y =  1.104196  z =  1.410262 angstrom
           Maximum rank =  0   Radius =  0.650 angstrom
                   Q00  =  -0.124673

C          x =  0.110670  y =  1.144196  z =  0.060262 angstrom
           Maximum rank =  0   Radius =  0.650 angstrom
                   Q00  =   1.067924

N          x = -0.520330  y =  1.298196  z =  1.212262 angstrom
           Maximum rank =  0   Radius =  0.650 angstrom
                   Q00  =  -0.495210

N          x = -0.555330  y =  0.798196  z = -1.023738 angstrom
           Maximum rank =  0   Radius =  0.650 angstrom
                   Q00  =  -0.561841

N          x =  1.408670  y =  1.343196  z = -0.003738 angstrom
           Maximum rank =  0   Radius =  0.650 angstrom
                   Q00  =  -0.590609

H          x =  0.016670  y =  1.646196  z =  1.993262 angstrom
           Maximum rank =  0   Radius =  0.325 angstrom
                   Q00  =   0.236064

H          x = -1.555330  y =  0.695196  z = -0.994738 angstrom
           Maximum rank =  0   Radius =  0.325 angstrom
                   Q00  =   0.268918

H          x = -0.072330  y =  0.726196  z = -1.904738 angstrom
           Maximum rank =  0   Radius =  0.325 angstrom
                   Q00  =   0.266221

H          x =  1.923670  y =  1.601196  z =  0.831262 angstrom
           Maximum rank =  0   Radius =  0.325 angstrom
                   Q00  =   0.269904

H          x =  1.891670  y =  1.244196  z = -0.885738 angstrom
           Maximum rank =  0   Radius =  0.325 angstrom
                   Q00  =   0.269034

H          x = -2.520330  y =  0.959196  z =  0.484262 angstrom
           Maximum rank =  0   Radius =  0.325 angstrom
                   Q00  =   0.115014

H          x = -2.352330  y =  2.016196  z =  1.867262 angstrom
           Maximum rank =  0   Radius =  0.325 angstrom
                   Q00  =   0.143032

H          x = -2.156261  y =  0.273996  z =  2.105362 angstrom
           Maximum rank =  0   Radius =  0.325 angstrom
                   Q00  =   0.144464

Total multipoles referred to origin at
           x =   0.000000,  y =    0.000000,  z =    0.000000 angstrom
                   Q00  =   1.000000

Finished at 14:3:27 on 27 Apr 2020

  DMA results are available in the Python driver through the
	  variable('DMA DISTRIBUTED MULTIPOLES')
  and
	  variable('DMA TOTAL MULTIPOLES')
  commands.

    Psi4 stopped on: Monday, 27 April 2020 02:03PM
    Psi4 wall time for execution: 0:00:49.55

*** Psi4 exiting successfully. Buy a developer a beer!
