                               Psi4 1.3.2 release

  ==> Input File <==

--------------------------------------------------------------------------
import numpy as np
set {scf_type pk
basis cc-pvdz
d_convergence 10
gdma_switch   0
gdma_limit    0
gdma_origin   [ 0.0,  0.0,  0.0 ]
}
molecule test {
    units Angstrom
    0 1
    --
    0 1
    C                3.083559693436028     1.381263668252077    -0.958795190004475
    C               -1.018440306563972     1.166263668252077     0.334204809995525
    C               -0.674440306563972     0.855263668252077    -0.972795190004475
    C               -0.031440306563972     1.536263668252077     1.249204809995526
    C                0.652559693436027     0.918263668252077    -1.366795190004475
    C                1.304559693436028     1.595263668252077     0.841204809995525
    C                1.655559693436027     1.275263668252077    -0.471795190004475
    O               -2.326440306563972     1.096263668252077     0.693204809995525
    H               -1.435440306563972     0.573263668252077    -1.686795190004475
    H               -2.888440306563972     0.846263668252077    -0.042795190004475
    H               -0.309440306563972     1.772263668252077     2.264204809995526
    H                0.912559693436027     0.696263668252077    -2.389795190004475
    H                2.068559693436028     1.890263668252077     1.545204809995525
    H                3.328559693436028     0.499263668252077    -1.550795190004475
    H                3.759559693436028     1.420263668252077    -0.107795190004475
    H                3.208259693436028     2.284284668252077    -1.574426190004475
    C               -1.194440306563973    -2.651736331747923    -0.007795190004475
    C               -0.047440306563972    -2.203736331747923     0.864204809995525
    C               -0.911440306563972    -4.119736331747923    -0.286795190004475
    H               -1.245440306563973    -2.072736331747923    -0.929795190004475
    H               -2.131440306563972    -2.574736331747923     0.527204809995525
    H                0.792559693436028    -1.899736331747923     0.238204809995525
    H               -0.367440306563973    -1.387736331747923     1.509204809995525
    H               -0.307440306563973    -4.239736331747923    -1.175795190004475
    H               -1.845440306563973    -4.665736331747923    -0.427795190004475
    H                0.210989693436028    -3.111603331747923     1.428999809995525
    H               -0.388780306563972    -4.483296331747924     0.610226809995525

}
e, wfn = energy('scf', return_wfn=True)
gdma(wfn)
dmavals = variable('DMA DISTRIBUTED MULTIPOLES')
charges = np.array(dmavals)
print(charges)
np.save('SSI-010TYR-049PRO-1-dimer.npy', np.array(charges))--------------------------------------------------------------------------

*** tstart() called on ds3
*** at Mon Apr 27 23:44:43 2020

   => Loading Basis Set <=

    Name: CC-PVDZ
    Role: ORBITAL
    Keyword: BASIS
    atoms 1-7, 17-19  entry C          line   138 file /theoryfs2/ds/metcalf/miniconda2/envs/tf2gpu/share/psi4/basis/cc-pvdz.gbs
    atoms 8           entry O          line   198 file /theoryfs2/ds/metcalf/miniconda2/envs/tf2gpu/share/psi4/basis/cc-pvdz.gbs
    atoms 9-16, 20-27 entry H          line    22 file /theoryfs2/ds/metcalf/miniconda2/envs/tf2gpu/share/psi4/basis/cc-pvdz.gbs

         ---------------------------------------------------------
                                   SCF
               by Justin Turney, Rob Parrish, Andy Simmonett
                          and Daniel G. A. Smith
                              RHF Reference
                        1 Threads,    500 MiB Core
         ---------------------------------------------------------

  ==> Geometry <==

    Molecular point group: c1
    Full point group: C1

    Geometry (in Angstrom), charge = 0, multiplicity = 1:

       Center              X                  Y                   Z               Mass
    ------------   -----------------  -----------------  -----------------  -----------------
         C            3.083559693436     1.381263668252    -0.958795190004    12.000000000000
         C           -1.018440306564     1.166263668252     0.334204809996    12.000000000000
         C           -0.674440306564     0.855263668252    -0.972795190004    12.000000000000
         C           -0.031440306564     1.536263668252     1.249204809996    12.000000000000
         C            0.652559693436     0.918263668252    -1.366795190004    12.000000000000
         C            1.304559693436     1.595263668252     0.841204809996    12.000000000000
         C            1.655559693436     1.275263668252    -0.471795190004    12.000000000000
         O           -2.326440306564     1.096263668252     0.693204809996    15.994914619570
         H           -1.435440306564     0.573263668252    -1.686795190004     1.007825032230
         H           -2.888440306564     0.846263668252    -0.042795190004     1.007825032230
         H           -0.309440306564     1.772263668252     2.264204809996     1.007825032230
         H            0.912559693436     0.696263668252    -2.389795190004     1.007825032230
         H            2.068559693436     1.890263668252     1.545204809996     1.007825032230
         H            3.328559693436     0.499263668252    -1.550795190004     1.007825032230
         H            3.759559693436     1.420263668252    -0.107795190004     1.007825032230
         H            3.208259693436     2.284284668252    -1.574426190004     1.007825032230
         C           -1.194440306564    -2.651736331748    -0.007795190004    12.000000000000
         C           -0.047440306564    -2.203736331748     0.864204809996    12.000000000000
         C           -0.911440306564    -4.119736331748    -0.286795190004    12.000000000000
         H           -1.245440306564    -2.072736331748    -0.929795190004     1.007825032230
         H           -2.131440306564    -2.574736331748     0.527204809996     1.007825032230
         H            0.792559693436    -1.899736331748     0.238204809996     1.007825032230
         H           -0.367440306564    -1.387736331748     1.509204809996     1.007825032230
         H           -0.307440306564    -4.239736331748    -1.175795190004     1.007825032230
         H           -1.845440306564    -4.665736331748    -0.427795190004     1.007825032230
         H            0.210989693436    -3.111603331748     1.428999809996     1.007825032230
         H           -0.388780306564    -4.483296331748     0.610226809996     1.007825032230

  Running in c1 symmetry.

  Rotational constants: A =      0.04182  B =      0.02132  C =      0.01698 [cm^-1]
  Rotational constants: A =   1253.63561  B =    639.29024  C =    509.13516 [MHz]
  Nuclear repulsion =  598.286154177627395

  Charge       = 0
  Multiplicity = 1
  Electrons    = 84
  Nalpha       = 42
  Nbeta        = 42

  ==> Algorithm <==

  SCF Algorithm Type is PK.
  DIIS enabled.
  MOM disabled.
  Fractional occupation disabled.
  Guess Type is SAD.
  Energy threshold   = 1.00e-06
  Density threshold  = 1.00e-10
  Integral threshold = 0.00e+00

  ==> Primary Basis <==

  Basis Set: CC-PVDZ
    Blend: CC-PVDZ
    Number of shells: 114
    Number of basis function: 234
    Number of Cartesian functions: 245
    Spherical Harmonics?: true
    Max angular momentum: 2

  ==> Pre-Iterations <==

   -------------------------------------------------------
    Irrep   Nso     Nmo     Nalpha   Nbeta   Ndocc  Nsocc
   -------------------------------------------------------
     A        234     234       0       0       0       0
   -------------------------------------------------------
    Total     234     234      42      42      42       0
   -------------------------------------------------------

  ==> Integral Setup <==

  Using integral reordering PK algorithm.
  Sizing the integral batches needed.
  Building batch lookup table.
   Calculation information:
      Number of atoms:                  27
      Number of AO shells:             114
      Number of primitives:            322
      Number of atomic orbitals:       245
      Number of basis functions:       234

      Integral cutoff                 1.00e-12
      Number of threads:                 1

	Batch   1 pq = [       0,    9405] index = [             0,44231715] size =     44231715
	Batch   2 pq = [    9405,   13301] index = [      44231715,88464951] size =     44233236
	Batch   3 pq = [   13301,   16290] index = [      88464951,132690195] size =     44225244
	Batch   4 pq = [   16290,   18810] index = [     132690195,176917455] size =     44227260
	Batch   5 pq = [   18810,   21030] index = [     176917455,221140965] size =     44223510
	Batch   6 pq = [   21030,   23037] index = [     221140965,265363203] size =     44222238
	Batch   7 pq = [   23037,   24883] index = [     265363203,309594286] size =     44231083
	Batch   8 pq = [   24883,   26601] index = [     309594286,353819901] size =     44225615
	Batch   9 pq = [   26601,   27495] index = [     353819901,378001260] size =     24181359
  Task number: 35
  Buffer size: 11059200
  Buffer per thread: 2
  We computed 21556972 shell quartets total.
  Whereas there are 21487290 unique shell quartets.
     0.32 percent of shell quartets recomputed by reordering.

  ==> DiskJK: Disk-Based J/K Matrices <==

    J tasked:                  Yes
    K tasked:                  Yes
    wK tasked:                  No
    Memory [MiB]:              375
    Schwarz Cutoff:          1E-12

    OpenMP threads:              1

  Minimum eigenvalue in the overlap matrix is 3.2101389248E-04.
  Using Symmetric Orthogonalization.

  SCF Guess: Superposition of Atomic Densities via on-the-fly atomic UHF.

  ==> Iterations <==

                        Total Energy        Delta E     RMS |[F,P]|

   @RHF iter SAD:  -461.88499722374632   -4.61885e+02   0.00000e+00
   @RHF iter   1:  -462.58304930132590   -6.98052e-01   2.86052e-03 DIIS
   @RHF iter   2:  -462.82926015843486   -2.46211e-01   1.22548e-03 DIIS
   @RHF iter   3:  -462.87067562893338   -4.14155e-02   2.67793e-04 DIIS
   @RHF iter   4:  -462.87391280951147   -3.23718e-03   1.00934e-04 DIIS
   @RHF iter   5:  -462.87423700736548   -3.24198e-04   2.10131e-05 DIIS
   @RHF iter   6:  -462.87425705578892   -2.00484e-05   6.55929e-06 DIIS
   @RHF iter   7:  -462.87425911583819   -2.06005e-06   1.80986e-06 DIIS
   @RHF iter   8:  -462.87425934123326   -2.25395e-07   6.64716e-07 DIIS
   @RHF iter   9:  -462.87425937181058   -3.05773e-08   2.64141e-07 DIIS
   @RHF iter  10:  -462.87425937679450   -4.98392e-09   1.02645e-07 DIIS
   @RHF iter  11:  -462.87425937825537   -1.46088e-09   4.53930e-08 DIIS
   @RHF iter  12:  -462.87425937860871   -3.53339e-10   2.12354e-08 DIIS
   @RHF iter  13:  -462.87425937866237   -5.36602e-11   7.46447e-09 DIIS
   @RHF iter  14:  -462.87425937867107   -8.69704e-12   1.96779e-09 DIIS
   @RHF iter  15:  -462.87425937866868    2.38742e-12   6.46691e-10 DIIS
   @RHF iter  16:  -462.87425937866897   -2.84217e-13   1.63396e-10 DIIS
   @RHF iter  17:  -462.87425937866948   -5.11591e-13   5.92895e-11 DIIS
  Energy and wave function converged.

  ==> Post-Iterations <==

    Orbital Energies [Eh]
    ---------------------

    Doubly Occupied:

       1A    -20.582980     2A    -11.299048     3A    -11.239800
       4A    -11.237198     5A    -11.233220     6A    -11.231813
       7A    -11.231641     8A    -11.228816     9A    -11.207024
      10A    -11.206397    11A    -11.199391    12A     -1.403030
      13A     -1.151628    14A     -1.059937    15A     -1.037407
      16A     -1.018882    17A     -0.926689    18A     -0.908097
      19A     -0.845567    20A     -0.803680    21A     -0.791978
      22A     -0.734270    23A     -0.670351    24A     -0.641697
      25A     -0.631133    26A     -0.607760    27A     -0.606961
      28A     -0.588117    29A     -0.586015    30A     -0.572075
      31A     -0.568222    32A     -0.534625    33A     -0.528596
      34A     -0.507980    35A     -0.497169    36A     -0.485038
      37A     -0.475790    38A     -0.468182    39A     -0.461719
      40A     -0.448919    41A     -0.339347    42A     -0.300974

    Virtual:

      43A      0.128274    44A      0.154704    45A      0.170405
      46A      0.181796    47A      0.202631    48A      0.212596
      49A      0.214683    50A      0.238745    51A      0.243841
      52A      0.246120    53A      0.261281    54A      0.264484
      55A      0.277901    56A      0.289208    57A      0.292589
      58A      0.314886    59A      0.328641    60A      0.340802
      61A      0.368234    62A      0.372492    63A      0.389972
      64A      0.435718    65A      0.444104    66A      0.453061
      67A      0.484469    68A      0.496623    69A      0.509312
      70A      0.565414    71A      0.571983    72A      0.605874
      73A      0.609980    74A      0.631669    75A      0.639478
      76A      0.655216    77A      0.658135    78A      0.664342
      79A      0.693372    80A      0.706698    81A      0.726837
      82A      0.734406    83A      0.750362    84A      0.767897
      85A      0.775696    86A      0.783395    87A      0.784068
      88A      0.803898    89A      0.820141    90A      0.829239
      91A      0.839977    92A      0.851825    93A      0.869393
      94A      0.873628    95A      0.883055    96A      0.885729
      97A      0.889127    98A      0.896179    99A      0.906030
     100A      0.914137   101A      0.919574   102A      0.921616
     103A      0.932516   104A      0.936540   105A      0.942601
     106A      0.946117   107A      0.951717   108A      0.965654
     109A      0.976675   110A      0.992202   111A      1.010394
     112A      1.019296   113A      1.054159   114A      1.073492
     115A      1.093918   116A      1.117496   117A      1.133565
     118A      1.143680   119A      1.167420   120A      1.179493
     121A      1.200530   122A      1.220808   123A      1.247695
     124A      1.254083   125A      1.268240   126A      1.288067
     127A      1.297320   128A      1.311349   129A      1.321142
     130A      1.349704   131A      1.362811   132A      1.391139
     133A      1.429494   134A      1.470557   135A      1.475172
     136A      1.510346   137A      1.514463   138A      1.535092
     139A      1.564389   140A      1.611415   141A      1.621620
     142A      1.631234   143A      1.637828   144A      1.648999
     145A      1.676175   146A      1.695076   147A      1.731041
     148A      1.735666   149A      1.743616   150A      1.756420
     151A      1.787623   152A      1.792891   153A      1.814666
     154A      1.818512   155A      1.863803   156A      1.876738
     157A      1.886291   158A      1.891469   159A      1.899075
     160A      1.907117   161A      1.919074   162A      1.926015
     163A      1.939199   164A      1.947841   165A      1.951581
     166A      1.960292   167A      1.963029   168A      1.966857
     169A      1.978422   170A      2.001748   171A      2.015780
     172A      2.016905   173A      2.037619   174A      2.048995
     175A      2.057381   176A      2.061433   177A      2.068049
     178A      2.079240   179A      2.096195   180A      2.124851
     181A      2.128867   182A      2.146079   183A      2.169320
     184A      2.181158   185A      2.205015   186A      2.218388
     187A      2.222453   188A      2.242645   189A      2.258994
     190A      2.273944   191A      2.300973   192A      2.327419
     193A      2.340422   194A      2.367584   195A      2.398408
     196A      2.407754   197A      2.455994   198A      2.459546
     199A      2.471967   200A      2.485947   201A      2.494958
     202A      2.523157   203A      2.531278   204A      2.570736
     205A      2.574521   206A      2.612472   207A      2.651602
     208A      2.668711   209A      2.711829   210A      2.753112
     211A      2.771554   212A      2.778031   213A      2.793987
     214A      2.803907   215A      2.808270   216A      2.826257
     217A      2.834159   218A      2.854155   219A      2.883880
     220A      2.900122   221A      2.949778   222A      2.953575
     223A      2.991071   224A      3.007401   225A      3.073729
     226A      3.088975   227A      3.116800   228A      3.256673
     229A      3.287202   230A      3.351217   231A      3.588963
     232A      3.672322   233A      3.992700   234A      4.194181

    Final Occupation by Irrep:
              A
    DOCC [    42 ]

  @RHF Final Energy:  -462.87425937866948

   => Energetics <=

    Nuclear Repulsion Energy =            598.2861541776273953
    One-Electron Energy =               -1814.1224961641933078
    Two-Electron Energy =                 752.9620826078963773
    Total Energy =                       -462.8742593786695352

Computation Completed

Properties will be evaluated at   0.000000,   0.000000,   0.000000 [a0]

Properties computed using the SCF density matrix

  Nuclear Dipole Moment: [e a0]
     X:     3.1404      Y:   -13.5442      Z:    -1.6490

  Electronic Dipole Moment: [e a0]
     X:    -3.0890      Y:    13.5508      Z:     1.0854

  Dipole Moment: [e a0]
     X:     0.0513      Y:     0.0067      Z:    -0.5636     Total:     0.5659

  Dipole Moment: [D]
     X:     0.1304      Y:     0.0169      Z:    -1.4325     Total:     1.4385

*** tstop() called on ds3 at Mon Apr 27 23:48:46 2020
Module time:
	user time   =     179.06 seconds =       2.98 minutes
	system time =      73.55 seconds =       1.23 minutes
	total time  =        243 seconds =       4.05 minutes
Total time:
	user time   =     179.06 seconds =       2.98 minutes
	system time =      73.55 seconds =       1.23 minutes
	total time  =        243 seconds =       4.05 minutes
                                     G D M A

                                 by Anthony Stone

                           version 2.2.06, 22 June 2011

               Distributed Multipoles from Gaussian wavefunctions

Starting at 23:48:46 on 27 Apr 2020

Using SCF density matrix from file ./SSI/SSI-010TYR-049PRO-1-dimer.test.3921.fchk

                         Distributed Multipole Analysis

Standard DMA

Positions and radii in angstrom
Multipole moments in atomic units, ea_0^k for rank k

C          x =  3.083560  y =  1.381264  z = -0.958795 angstrom
           Maximum rank =  0   Radius =  0.650 angstrom
                   Q00  =  -0.196077

C          x = -1.018440  y =  1.166264  z =  0.334205 angstrom
           Maximum rank =  0   Radius =  0.650 angstrom
                   Q00  =   0.287000

C          x = -0.674440  y =  0.855264  z = -0.972795 angstrom
           Maximum rank =  0   Radius =  0.650 angstrom
                   Q00  =  -0.179003

C          x = -0.031440  y =  1.536264  z =  1.249205 angstrom
           Maximum rank =  0   Radius =  0.650 angstrom
                   Q00  =  -0.101511

C          x =  0.652560  y =  0.918264  z = -1.366795 angstrom
           Maximum rank =  0   Radius =  0.650 angstrom
                   Q00  =   0.050162

C          x =  1.304560  y =  1.595264  z =  0.841205 angstrom
           Maximum rank =  0   Radius =  0.650 angstrom
                   Q00  =  -0.046804

C          x =  1.655560  y =  1.275264  z = -0.471795 angstrom
           Maximum rank =  0   Radius =  0.650 angstrom
                   Q00  =  -0.145691

O          x = -2.326440  y =  1.096264  z =  0.693205 angstrom
           Maximum rank =  0   Radius =  0.650 angstrom
                   Q00  =  -0.643483

H          x = -1.435440  y =  0.573264  z = -1.686795 angstrom
           Maximum rank =  0   Radius =  0.325 angstrom
                   Q00  =   0.069665

H          x = -2.888440  y =  0.846264  z = -0.042795 angstrom
           Maximum rank =  0   Radius =  0.325 angstrom
                   Q00  =   0.407534

H          x = -0.309440  y =  1.772264  z =  2.264205 angstrom
           Maximum rank =  0   Radius =  0.325 angstrom
                   Q00  =   0.081222

H          x =  0.912560  y =  0.696264  z = -2.389795 angstrom
           Maximum rank =  0   Radius =  0.325 angstrom
                   Q00  =   0.064335

H          x =  2.068560  y =  1.890264  z =  1.545205 angstrom
           Maximum rank =  0   Radius =  0.325 angstrom
                   Q00  =   0.066240

H          x =  3.328560  y =  0.499264  z = -1.550795 angstrom
           Maximum rank =  0   Radius =  0.325 angstrom
                   Q00  =   0.096150

H          x =  3.759560  y =  1.420264  z = -0.107795 angstrom
           Maximum rank =  0   Radius =  0.325 angstrom
                   Q00  =   0.098528

H          x =  3.208260  y =  2.284285  z = -1.574426 angstrom
           Maximum rank =  0   Radius =  0.325 angstrom
                   Q00  =   0.098200

C          x = -1.194440  y = -2.651736  z = -0.007795 angstrom
           Maximum rank =  0   Radius =  0.650 angstrom
                   Q00  =  -0.101349

C          x = -0.047440  y = -2.203736  z =  0.864205 angstrom
           Maximum rank =  0   Radius =  0.650 angstrom
                   Q00  =  -0.216419

C          x = -0.911440  y = -4.119736  z = -0.286795 angstrom
           Maximum rank =  0   Radius =  0.650 angstrom
                   Q00  =  -0.221076

H          x = -1.245440  y = -2.072736  z = -0.929795 angstrom
           Maximum rank =  0   Radius =  0.325 angstrom
                   Q00  =   0.047548

H          x = -2.131440  y = -2.574736  z =  0.527205 angstrom
           Maximum rank =  0   Radius =  0.325 angstrom
                   Q00  =   0.051351

H          x =  0.792560  y = -1.899736  z =  0.238205 angstrom
           Maximum rank =  0   Radius =  0.325 angstrom
                   Q00  =   0.080832

H          x = -0.367440  y = -1.387736  z =  1.509205 angstrom
           Maximum rank =  0   Radius =  0.325 angstrom
                   Q00  =   0.088723

H          x = -0.307440  y = -4.239736  z = -1.175795 angstrom
           Maximum rank =  0   Radius =  0.325 angstrom
                   Q00  =   0.078441

H          x = -1.845440  y = -4.665736  z = -0.427795 angstrom
           Maximum rank =  0   Radius =  0.325 angstrom
                   Q00  =   0.079730

H          x =  0.210990  y = -3.111603  z =  1.429000 angstrom
           Maximum rank =  0   Radius =  0.325 angstrom
                   Q00  =   0.052254

H          x = -0.388780  y = -4.483296  z =  0.610227 angstrom
           Maximum rank =  0   Radius =  0.325 angstrom
                   Q00  =   0.053498

Total multipoles referred to origin at
           x =   0.000000,  y =    0.000000,  z =    0.000000 angstrom
                   Q00  =  -0.000000

Finished at 23:48:46 on 27 Apr 2020

  DMA results are available in the Python driver through the
	  variable('DMA DISTRIBUTED MULTIPOLES')
  and
	  variable('DMA TOTAL MULTIPOLES')
  commands.

    Psi4 stopped on: Monday, 27 April 2020 11:48PM
    Psi4 wall time for execution: 0:04:03.08

*** Psi4 exiting successfully. Buy a developer a beer!
