                               Psi4 1.3.2 release

  ==> Input File <==

--------------------------------------------------------------------------
import numpy as np
set {scf_type pk
basis cc-pvdz
d_convergence 10
gdma_switch   0
gdma_limit    0
gdma_origin   [ 0.0,  0.0,  0.0 ]
}
molecule test {
    units Angstrom
    0 1
    --
    0 1
    C               -1.932319170453583     0.393732350724374    -3.375009681266299
    C                0.312680829546417     0.372732350724374    -0.340009681266299
    C                0.021680829546417     1.594732350724374     0.240990318733701
    C               -0.318319170453583     0.007732350724374    -1.532009681266299
    C               -1.250319170453583     0.852732350724374    -2.131009681266299
    C               -0.915319170453583     2.443732350724374    -0.364009681266299
    C               -1.540319170453583     2.087732350724374    -1.544009681266299
    H                1.044680829546417    -0.283267649275626     0.105990318733701
    H                0.513680829546417     1.890732350724375     1.156990318733701
    H               -0.091319170453583    -0.945267649275626    -1.987009681266299
    H               -1.143319170453583     3.395732350724375     0.091990318733701
    H               -2.985319170453583     0.668732350724374    -3.311009681266298
    H               -1.912319170453583    -0.692267649275626    -3.409009681266299
    H               -2.249319170453583     2.759732350724374    -2.005009681266299
    H               -1.507214170453583     0.785262350724374    -4.310954681266298
    C                1.540680829546416    -2.032267649275625     2.336990318733701
    C                3.027680829546417    -2.038267649275626     2.680990318733701
    C                0.590680829546417    -2.774267649275626     3.281990318733701
    H                1.229680829546417    -0.988267649275626     2.286990318733702
    H                1.415680829546417    -2.436267649275626     1.333990318733701
    H                3.570680829546416    -1.591267649275625     1.849990318733701
    H                1.098680829546417    -2.941267649275626     4.224990318733701
    H                3.388400829546417    -3.065877649275626     2.835590318733701
    H                3.183690829546416    -1.432937649275625     3.586110318733702
    H               -0.307013170453583    -2.178927649275626     3.504970318733701
    H                0.265790829546417    -3.759827649275625     2.917130318733701

}
e, wfn = energy('scf', return_wfn=True)
gdma(wfn)
dmavals = variable('DMA DISTRIBUTED MULTIPOLES')
charges = np.array(dmavals)
print(charges)
np.save('SSI-019PHE-049LEU-1-dimer.npy', np.array(charges))--------------------------------------------------------------------------

*** tstart() called on ds3
*** at Tue Apr 28 14:28:36 2020

   => Loading Basis Set <=

    Name: CC-PVDZ
    Role: ORBITAL
    Keyword: BASIS
    atoms 1-7, 16-18  entry C          line   138 file /theoryfs2/ds/metcalf/miniconda2/envs/tf2gpu/share/psi4/basis/cc-pvdz.gbs
    atoms 8-15, 19-26 entry H          line    22 file /theoryfs2/ds/metcalf/miniconda2/envs/tf2gpu/share/psi4/basis/cc-pvdz.gbs

         ---------------------------------------------------------
                                   SCF
               by Justin Turney, Rob Parrish, Andy Simmonett
                          and Daniel G. A. Smith
                              RHF Reference
                        1 Threads,    500 MiB Core
         ---------------------------------------------------------

  ==> Geometry <==

    Molecular point group: c1
    Full point group: C1

    Geometry (in Angstrom), charge = 0, multiplicity = 1:

       Center              X                  Y                   Z               Mass
    ------------   -----------------  -----------------  -----------------  -----------------
         C           -1.932319170454     0.393732350724    -3.375009681266    12.000000000000
         C            0.312680829546     0.372732350724    -0.340009681266    12.000000000000
         C            0.021680829546     1.594732350724     0.240990318734    12.000000000000
         C           -0.318319170454     0.007732350724    -1.532009681266    12.000000000000
         C           -1.250319170454     0.852732350724    -2.131009681266    12.000000000000
         C           -0.915319170454     2.443732350724    -0.364009681266    12.000000000000
         C           -1.540319170454     2.087732350724    -1.544009681266    12.000000000000
         H            1.044680829546    -0.283267649276     0.105990318734     1.007825032230
         H            0.513680829546     1.890732350724     1.156990318734     1.007825032230
         H           -0.091319170454    -0.945267649276    -1.987009681266     1.007825032230
         H           -1.143319170454     3.395732350724     0.091990318734     1.007825032230
         H           -2.985319170454     0.668732350724    -3.311009681266     1.007825032230
         H           -1.912319170454    -0.692267649276    -3.409009681266     1.007825032230
         H           -2.249319170454     2.759732350724    -2.005009681266     1.007825032230
         H           -1.507214170454     0.785262350724    -4.310954681266     1.007825032230
         C            1.540680829546    -2.032267649276     2.336990318734    12.000000000000
         C            3.027680829546    -2.038267649276     2.680990318734    12.000000000000
         C            0.590680829546    -2.774267649276     3.281990318734    12.000000000000
         H            1.229680829546    -0.988267649276     2.286990318734     1.007825032230
         H            1.415680829546    -2.436267649276     1.333990318734     1.007825032230
         H            3.570680829546    -1.591267649276     1.849990318734     1.007825032230
         H            1.098680829546    -2.941267649276     4.224990318734     1.007825032230
         H            3.388400829546    -3.065877649276     2.835590318734     1.007825032230
         H            3.183690829546    -1.432937649276     3.586110318734     1.007825032230
         H           -0.307013170454    -2.178927649276     3.504970318734     1.007825032230
         H            0.265790829546    -3.759827649276     2.917130318734     1.007825032230

  Running in c1 symmetry.

  Rotational constants: A =      0.07581  B =      0.01360  C =      0.01267 [cm^-1]
  Rotational constants: A =   2272.63754  B =    407.62311  C =    379.85616 [MHz]
  Nuclear repulsion =  469.285842223391398

  Charge       = 0
  Multiplicity = 1
  Electrons    = 76
  Nalpha       = 38
  Nbeta        = 38

  ==> Algorithm <==

  SCF Algorithm Type is PK.
  DIIS enabled.
  MOM disabled.
  Fractional occupation disabled.
  Guess Type is SAD.
  Energy threshold   = 1.00e-06
  Density threshold  = 1.00e-10
  Integral threshold = 0.00e+00

  ==> Primary Basis <==

  Basis Set: CC-PVDZ
    Blend: CC-PVDZ
    Number of shells: 108
    Number of basis function: 220
    Number of Cartesian functions: 230
    Spherical Harmonics?: true
    Max angular momentum: 2

  ==> Pre-Iterations <==

   -------------------------------------------------------
    Irrep   Nso     Nmo     Nalpha   Nbeta   Ndocc  Nsocc
   -------------------------------------------------------
     A        220     220       0       0       0       0
   -------------------------------------------------------
    Total     220     220      38      38      38       0
   -------------------------------------------------------

  ==> Integral Setup <==

  Using integral reordering PK algorithm.
  Sizing the integral batches needed.
  Building batch lookup table.
   Calculation information:
      Number of atoms:                  26
      Number of AO shells:             108
      Number of primitives:            300
      Number of atomic orbitals:       230
      Number of basis functions:       220

      Integral cutoff                 1.00e-12
      Number of threads:                 1

	Batch   1 pq = [       0,    9405] index = [             0,44231715] size =     44231715
	Batch   2 pq = [    9405,   13301] index = [      44231715,88464951] size =     44233236
	Batch   3 pq = [   13301,   16290] index = [      88464951,132690195] size =     44225244
	Batch   4 pq = [   16290,   18810] index = [     132690195,176917455] size =     44227260
	Batch   5 pq = [   18810,   21030] index = [     176917455,221140965] size =     44223510
	Batch   6 pq = [   21030,   23037] index = [     221140965,265363203] size =     44222238
	Batch   7 pq = [   23037,   24310] index = [     265363203,295500205] size =     30137002
  Task number: 27
  Buffer size: 11059200
  Buffer per thread: 2
  We computed 12668083 shell quartets total.
  Whereas there are 17325441 unique shell quartets.

  ==> DiskJK: Disk-Based J/K Matrices <==

    J tasked:                  Yes
    K tasked:                  Yes
    wK tasked:                  No
    Memory [MiB]:              375
    Schwarz Cutoff:          1E-12

    OpenMP threads:              1

  Minimum eigenvalue in the overlap matrix is 3.0816437582E-04.
  Using Symmetric Orthogonalization.

  SCF Guess: Superposition of Atomic Densities via on-the-fly atomic UHF.

  ==> Iterations <==

                        Total Energy        Delta E     RMS |[F,P]|

   @RHF iter SAD:  -386.89814829951138   -3.86898e+02   0.00000e+00
   @RHF iter   1:  -387.76575392905283   -8.67606e-01   2.75284e-03 DIIS
   @RHF iter   2:  -387.98529762636059   -2.19544e-01   1.15429e-03 DIIS
   @RHF iter   3:  -388.02038602324666   -3.50884e-02   2.50796e-04 DIIS
   @RHF iter   4:  -388.02328846370517   -2.90244e-03   5.53558e-05 DIIS
   @RHF iter   5:  -388.02338715661665   -9.86929e-05   1.74417e-05 DIIS
   @RHF iter   6:  -388.02339686225349   -9.70564e-06   5.15396e-06 DIIS
   @RHF iter   7:  -388.02339787014722   -1.00789e-06   1.28787e-06 DIIS
   @RHF iter   8:  -388.02339797164313   -1.01496e-07   4.32734e-07 DIIS
   @RHF iter   9:  -388.02339799702901   -2.53859e-08   1.98239e-07 DIIS
   @RHF iter  10:  -388.02339800395515   -6.92614e-09   9.13044e-08 DIIS
   @RHF iter  11:  -388.02339800527903   -1.32388e-09   2.67897e-08 DIIS
   @RHF iter  12:  -388.02339800536834   -8.93010e-11   8.27979e-09 DIIS
   @RHF iter  13:  -388.02339800537351   -5.17275e-12   3.51075e-09 DIIS
   @RHF iter  14:  -388.02339800537533   -1.81899e-12   1.02766e-09 DIIS
   @RHF iter  15:  -388.02339800537402    1.30740e-12   4.29391e-10 DIIS
   @RHF iter  16:  -388.02339800537266    1.36424e-12   2.23728e-10 DIIS
   @RHF iter  17:  -388.02339800537464   -1.98952e-12   8.58601e-11 DIIS
  Energy and wave function converged.

  ==> Post-Iterations <==

    Orbital Energies [Eh]
    ---------------------

    Doubly Occupied:

       1A    -11.238941     2A    -11.234672     3A    -11.233004
       4A    -11.230235     5A    -11.229602     6A    -11.228326
       7A    -11.226385     8A    -11.220218     9A    -11.219623
      10A    -11.216278    11A     -1.152156    12A     -1.052634
      13A     -1.044919    14A     -1.011788    15A     -0.930210
      16A     -0.927884    17A     -0.824080    18A     -0.798616
      19A     -0.793829    20A     -0.690468    21A     -0.631169
      22A     -0.630027    23A     -0.623177    24A     -0.597339
      25A     -0.582449    26A     -0.578055    27A     -0.562179
      28A     -0.547945    29A     -0.536940    30A     -0.531634
      31A     -0.485860    32A     -0.484094    33A     -0.483002
      34A     -0.479069    35A     -0.462961    36A     -0.461641
      37A     -0.332140    38A     -0.319972

    Virtual:

      39A      0.136936    40A      0.140805    41A      0.170764
      42A      0.191029    43A      0.203768    44A      0.210245
      45A      0.220818    46A      0.226741    47A      0.247177
      48A      0.254523    49A      0.259791    50A      0.266859
      51A      0.270157    52A      0.274871    53A      0.284558
      54A      0.297584    55A      0.328770    56A      0.341843
      57A      0.366939    58A      0.379551    59A      0.397224
      60A      0.433019    61A      0.460174    62A      0.469027
      63A      0.486254    64A      0.503908    65A      0.563788
      66A      0.586242    67A      0.591880    68A      0.601602
      69A      0.609388    70A      0.641054    71A      0.650933
      72A      0.681970    73A      0.688314    74A      0.693450
      75A      0.713487    76A      0.719534    77A      0.740269
      78A      0.744233    79A      0.747929    80A      0.752745
      81A      0.760124    82A      0.764180    83A      0.780980
      84A      0.786990    85A      0.816688    86A      0.837030
      87A      0.842299    88A      0.861140    89A      0.865530
      90A      0.873336    91A      0.876380    92A      0.880921
      93A      0.889946    94A      0.893016    95A      0.899851
      96A      0.900731    97A      0.904005    98A      0.919341
      99A      0.921578   100A      0.937608   101A      0.938741
     102A      0.943858   103A      0.949391   104A      0.968214
     105A      0.989198   106A      0.996210   107A      1.045946
     108A      1.065351   109A      1.096357   110A      1.126610
     111A      1.130470   112A      1.147403   113A      1.156967
     114A      1.174101   115A      1.190687   116A      1.215122
     117A      1.239527   118A      1.245283   119A      1.257026
     120A      1.259187   121A      1.303533   122A      1.306023
     123A      1.322773   124A      1.333209   125A      1.397738
     126A      1.415509   127A      1.453967   128A      1.481496
     129A      1.506989   130A      1.509409   131A      1.538749
     132A      1.558311   133A      1.608550   134A      1.668369
     135A      1.678255   136A      1.686309   137A      1.697262
     138A      1.703408   139A      1.711407   140A      1.734572
     141A      1.752849   142A      1.759350   143A      1.790281
     144A      1.798127   145A      1.815661   146A      1.848686
     147A      1.865679   148A      1.883555   149A      1.891905
     150A      1.895185   151A      1.906331   152A      1.910827
     153A      1.914233   154A      1.926244   155A      1.928760
     156A      1.937600   157A      1.949317   158A      1.953526
     159A      1.965482   160A      1.976739   161A      1.984499
     162A      1.992987   163A      1.998120   164A      2.015652
     165A      2.017308   166A      2.042455   167A      2.045699
     168A      2.062856   169A      2.068165   170A      2.077258
     171A      2.111694   172A      2.140237   173A      2.150467
     174A      2.164816   175A      2.167744   176A      2.172668
     177A      2.189889   178A      2.203928   179A      2.248665
     180A      2.278570   181A      2.288723   182A      2.300051
     183A      2.308734   184A      2.316655   185A      2.323717
     186A      2.326361   187A      2.336153   188A      2.365716
     189A      2.429182   190A      2.471149   191A      2.476886
     192A      2.508499   193A      2.513809   194A      2.549555
     195A      2.567906   196A      2.617685   197A      2.626687
     198A      2.662892   199A      2.746852   200A      2.753582
     201A      2.758168   202A      2.771728   203A      2.774583
     204A      2.793986   205A      2.799240   206A      2.820114
     207A      2.834028   208A      2.860438   209A      2.877396
     210A      2.895296   211A      2.910873   212A      2.956368
     213A      2.982677   214A      3.014225   215A      3.027212
     216A      3.059335   217A      3.161938   218A      3.205879
     219A      3.306245   220A      3.975439

    Final Occupation by Irrep:
              A
    DOCC [    38 ]

  @RHF Final Energy:  -388.02339800537464

   => Energetics <=

    Nuclear Repulsion Energy =            469.2858422233913984
    One-Electron Energy =               -1452.9514350579643178
    Two-Electron Energy =                 595.6421948291981607
    Total Energy =                       -388.0233980053747018

Computation Completed

Properties will be evaluated at   0.000000,   0.000000,   0.000000 [a0]

Properties computed using the SCF density matrix

  Nuclear Dipole Moment: [e a0]
     X:     5.1703      Y:   -10.1390      Z:     8.3170

  Electronic Dipole Moment: [e a0]
     X:    -5.2433      Y:    10.1047      Z:    -8.4196

  Dipole Moment: [e a0]
     X:    -0.0731      Y:    -0.0343      Z:    -0.1026     Total:     0.1305

  Dipole Moment: [D]
     X:    -0.1857      Y:    -0.0871      Z:    -0.2607     Total:     0.3317

*** tstop() called on ds3 at Tue Apr 28 14:31:30 2020
Module time:
	user time   =      92.79 seconds =       1.55 minutes
	system time =      44.01 seconds =       0.73 minutes
	total time  =        174 seconds =       2.90 minutes
Total time:
	user time   =      92.79 seconds =       1.55 minutes
	system time =      44.01 seconds =       0.73 minutes
	total time  =        174 seconds =       2.90 minutes
                                     G D M A

                                 by Anthony Stone

                           version 2.2.06, 22 June 2011

               Distributed Multipoles from Gaussian wavefunctions

Starting at 14:31:30 on 28 Apr 2020

Using SCF density matrix from file ./SSI/SSI-019PHE-049LEU-1-dimer.test.25745.fchk

                         Distributed Multipole Analysis

Standard DMA

Positions and radii in angstrom
Multipole moments in atomic units, ea_0^k for rank k

C          x = -1.932319  y =  0.393732  z = -3.375010 angstrom
           Maximum rank =  0   Radius =  0.650 angstrom
                   Q00  =  -0.206400

C          x =  0.312681  y =  0.372732  z = -0.340010 angstrom
           Maximum rank =  0   Radius =  0.650 angstrom
                   Q00  =  -0.063324

C          x =  0.021681  y =  1.594732  z =  0.240990 angstrom
           Maximum rank =  0   Radius =  0.650 angstrom
                   Q00  =  -0.092511

C          x = -0.318319  y =  0.007732  z = -1.532010 angstrom
           Maximum rank =  0   Radius =  0.650 angstrom
                   Q00  =  -0.036958

C          x = -1.250319  y =  0.852732  z = -2.131010 angstrom
           Maximum rank =  0   Radius =  0.650 angstrom
                   Q00  =  -0.085663

C          x = -0.915319  y =  2.443732  z = -0.364010 angstrom
           Maximum rank =  0   Radius =  0.650 angstrom
                   Q00  =  -0.021800

C          x = -1.540319  y =  2.087732  z = -1.544010 angstrom
           Maximum rank =  0   Radius =  0.650 angstrom
                   Q00  =  -0.093231

H          x =  1.044681  y = -0.283268  z =  0.105990 angstrom
           Maximum rank =  0   Radius =  0.325 angstrom
                   Q00  =   0.066579

H          x =  0.513681  y =  1.890732  z =  1.156990 angstrom
           Maximum rank =  0   Radius =  0.325 angstrom
                   Q00  =   0.059075

H          x = -0.091319  y = -0.945268  z = -1.987010 angstrom
           Maximum rank =  0   Radius =  0.325 angstrom
                   Q00  =   0.055007

H          x = -1.143319  y =  3.395732  z =  0.091990 angstrom
           Maximum rank =  0   Radius =  0.325 angstrom
                   Q00  =   0.063321

H          x = -2.985319  y =  0.668732  z = -3.311010 angstrom
           Maximum rank =  0   Radius =  0.325 angstrom
                   Q00  =   0.096338

H          x = -1.912319  y = -0.692268  z = -3.409010 angstrom
           Maximum rank =  0   Radius =  0.325 angstrom
                   Q00  =   0.096198

H          x = -2.249319  y =  2.759732  z = -2.005010 angstrom
           Maximum rank =  0   Radius =  0.325 angstrom
                   Q00  =   0.057511

H          x = -1.507214  y =  0.785262  z = -4.310955 angstrom
           Maximum rank =  0   Radius =  0.325 angstrom
                   Q00  =   0.104253

C          x =  1.540681  y = -2.032268  z =  2.336990 angstrom
           Maximum rank =  0   Radius =  0.650 angstrom
                   Q00  =  -0.089948

C          x =  3.027681  y = -2.038268  z =  2.680990 angstrom
           Maximum rank =  0   Radius =  0.650 angstrom
                   Q00  =  -0.238980

C          x =  0.590681  y = -2.774268  z =  3.281990 angstrom
           Maximum rank =  0   Radius =  0.650 angstrom
                   Q00  =  -0.247805

H          x =  1.229681  y = -0.988268  z =  2.286990 angstrom
           Maximum rank =  0   Radius =  0.325 angstrom
                   Q00  =   0.046509

H          x =  1.415681  y = -2.436268  z =  1.333990 angstrom
           Maximum rank =  0   Radius =  0.325 angstrom
                   Q00  =   0.044543

H          x =  3.570681  y = -1.591268  z =  1.849990 angstrom
           Maximum rank =  0   Radius =  0.325 angstrom
                   Q00  =   0.084417

H          x =  1.098681  y = -2.941268  z =  4.224990 angstrom
           Maximum rank =  0   Radius =  0.325 angstrom
                   Q00  =   0.073862

H          x =  3.388401  y = -3.065878  z =  2.835590 angstrom
           Maximum rank =  0   Radius =  0.325 angstrom
                   Q00  =   0.077912

H          x =  3.183691  y = -1.432938  z =  3.586110 angstrom
           Maximum rank =  0   Radius =  0.325 angstrom
                   Q00  =   0.078467

H          x = -0.307013  y = -2.178928  z =  3.504970 angstrom
           Maximum rank =  0   Radius =  0.325 angstrom
                   Q00  =   0.090312

H          x =  0.265791  y = -3.759828  z =  2.917130 angstrom
           Maximum rank =  0   Radius =  0.325 angstrom
                   Q00  =   0.082313

Total multipoles referred to origin at
           x =   0.000000,  y =    0.000000,  z =    0.000000 angstrom
                   Q00  =  -0.000000

Finished at 14:31:30 on 28 Apr 2020

  DMA results are available in the Python driver through the
	  variable('DMA DISTRIBUTED MULTIPOLES')
  and
	  variable('DMA TOTAL MULTIPOLES')
  commands.

    Psi4 stopped on: Tuesday, 28 April 2020 02:31PM
    Psi4 wall time for execution: 0:02:54.84

*** Psi4 exiting successfully. Buy a developer a beer!
