                               Psi4 1.3.2 release

  ==> Input File <==

--------------------------------------------------------------------------
import numpy as np
set {scf_type pk
basis cc-pvdz
d_convergence 10
gdma_switch   0
gdma_limit    0
gdma_origin   [ 0.0,  0.0,  0.0 ]
}
molecule test {
    units Angstrom
    -1 1
    --
    -1 1
    C               -0.497319757805599    -1.159991778556279     2.335870074877105
    C               -1.417319757805599    -0.548991778556280     1.324870074877105
    C               -2.026319757805599     0.335008221443720    -0.596129925122894
    C               -2.737319757805599    -0.242991778556280     1.405870074877105
    N               -0.997319757805599    -0.178991778556280     0.068870074877105
    N               -3.095319757805599     0.297008221443720     0.185870074877105
    H               -2.001319757805599     0.710008221443720    -1.615129925122895
    H               -0.282319757805599    -2.183991778556280     2.024870074877105
    H               -1.007319757805599    -1.197991778556279     3.298870074877105
    H               -4.019319757805599     0.622008221443720    -0.077129925122895
    H               -3.378319757805599    -0.399991778556279     2.264870074877106
    H                0.448710242194401    -0.609891778556280     2.447338074877106
    C                2.560680242194401     1.614008221443721    -0.395129925122895
    C                2.500680242194401     0.276008221443721    -1.142129925122895
    O                1.546680242194401    -0.517991778556280    -0.934129925122895
    O                3.408680242194401     0.038008221443720    -1.979129925122895
    H                2.171680242194401     1.442008221443720     0.589870074877105
    H                1.955680242194401     2.357008221443721    -0.918129925122894
    H                3.584300242194401     1.987608221443721    -0.244682925122895

}
e, wfn = energy('scf', return_wfn=True)
gdma(wfn)
dmavals = variable('DMA DISTRIBUTED MULTIPOLES')
charges = np.array(dmavals)
print(charges)
np.save('SSI-086HIE-089GLU-2-dimer.npy', np.array(charges))--------------------------------------------------------------------------

*** tstart() called on ds3
*** at Sun Apr 26 20:37:43 2020

   => Loading Basis Set <=

    Name: CC-PVDZ
    Role: ORBITAL
    Keyword: BASIS
    atoms 1-4, 13-14  entry C          line   138 file /theoryfs2/ds/metcalf/miniconda2/envs/tf2gpu/share/psi4/basis/cc-pvdz.gbs
    atoms 5-6         entry N          line   168 file /theoryfs2/ds/metcalf/miniconda2/envs/tf2gpu/share/psi4/basis/cc-pvdz.gbs
    atoms 7-12, 17-19 entry H          line    22 file /theoryfs2/ds/metcalf/miniconda2/envs/tf2gpu/share/psi4/basis/cc-pvdz.gbs
    atoms 15-16       entry O          line   198 file /theoryfs2/ds/metcalf/miniconda2/envs/tf2gpu/share/psi4/basis/cc-pvdz.gbs

         ---------------------------------------------------------
                                   SCF
               by Justin Turney, Rob Parrish, Andy Simmonett
                          and Daniel G. A. Smith
                              RHF Reference
                        1 Threads,    500 MiB Core
         ---------------------------------------------------------

  ==> Geometry <==

    Molecular point group: c1
    Full point group: C1

    Geometry (in Angstrom), charge = -1, multiplicity = 1:

       Center              X                  Y                   Z               Mass
    ------------   -----------------  -----------------  -----------------  -----------------
         C           -0.497319757806    -1.159991778556     2.335870074877    12.000000000000
         C           -1.417319757806    -0.548991778556     1.324870074877    12.000000000000
         C           -2.026319757806     0.335008221444    -0.596129925123    12.000000000000
         C           -2.737319757806    -0.242991778556     1.405870074877    12.000000000000
         N           -0.997319757806    -0.178991778556     0.068870074877    14.003074004430
         N           -3.095319757806     0.297008221444     0.185870074877    14.003074004430
         H           -2.001319757806     0.710008221444    -1.615129925123     1.007825032230
         H           -0.282319757806    -2.183991778556     2.024870074877     1.007825032230
         H           -1.007319757806    -1.197991778556     3.298870074877     1.007825032230
         H           -4.019319757806     0.622008221444    -0.077129925123     1.007825032230
         H           -3.378319757806    -0.399991778556     2.264870074877     1.007825032230
         H            0.448710242194    -0.609891778556     2.447338074877     1.007825032230
         C            2.560680242194     1.614008221444    -0.395129925123    12.000000000000
         C            2.500680242194     0.276008221444    -1.142129925123    12.000000000000
         O            1.546680242194    -0.517991778556    -0.934129925123    15.994914619570
         O            3.408680242194     0.038008221444    -1.979129925123    15.994914619570
         H            2.171680242194     1.442008221444     0.589870074877     1.007825032230
         H            1.955680242194     2.357008221444    -0.918129925123     1.007825032230
         H            3.584300242194     1.987608221444    -0.244682925123     1.007825032230

  Running in c1 symmetry.

  Rotational constants: A =      0.08540  B =      0.01828  C =      0.01666 [cm^-1]
  Rotational constants: A =   2560.13262  B =    548.14203  C =    499.44674 [MHz]
  Nuclear repulsion =  486.448379678280617

  Charge       = -1
  Multiplicity = 1
  Electrons    = 76
  Nalpha       = 38
  Nbeta        = 38

  ==> Algorithm <==

  SCF Algorithm Type is PK.
  DIIS enabled.
  MOM disabled.
  Fractional occupation disabled.
  Guess Type is SAD.
  Energy threshold   = 1.00e-06
  Density threshold  = 1.00e-10
  Integral threshold = 0.00e+00

  ==> Primary Basis <==

  Basis Set: CC-PVDZ
    Blend: CC-PVDZ
    Number of shells: 87
    Number of basis function: 185
    Number of Cartesian functions: 195
    Spherical Harmonics?: true
    Max angular momentum: 2

  ==> Pre-Iterations <==

   -------------------------------------------------------
    Irrep   Nso     Nmo     Nalpha   Nbeta   Ndocc  Nsocc
   -------------------------------------------------------
     A        185     185       0       0       0       0
   -------------------------------------------------------
    Total     185     185      38      38      38       0
   -------------------------------------------------------

  ==> Integral Setup <==

  Using integral reordering PK algorithm.
  Sizing the integral batches needed.
  Building batch lookup table.
   Calculation information:
      Number of atoms:                  19
      Number of AO shells:              87
      Number of primitives:            265
      Number of atomic orbitals:       195
      Number of basis functions:       185

      Integral cutoff                 1.00e-12
      Number of threads:                 1

	Batch   1 pq = [       0,    9405] index = [             0,44231715] size =     44231715
	Batch   2 pq = [    9405,   13301] index = [      44231715,88464951] size =     44233236
	Batch   3 pq = [   13301,   16290] index = [      88464951,132690195] size =     44225244
	Batch   4 pq = [   16290,   17205] index = [     132690195,148014615] size =     15324420
  Task number: 14
  Buffer size: 11059200
  Buffer per thread: 2
  We computed 5707397 shell quartets total.
  Whereas there are 7328706 unique shell quartets.

  ==> DiskJK: Disk-Based J/K Matrices <==

    J tasked:                  Yes
    K tasked:                  Yes
    wK tasked:                  No
    Memory [MiB]:              375
    Schwarz Cutoff:          1E-12

    OpenMP threads:              1

  Minimum eigenvalue in the overlap matrix is 1.1657892167E-03.
  Using Symmetric Orthogonalization.

  SCF Guess: Superposition of Atomic Densities via on-the-fly atomic UHF.

  ==> Iterations <==

                        Total Energy        Delta E     RMS |[F,P]|

   @RHF iter SAD:  -489.66079850225799   -4.89661e+02   0.00000e+00
   @RHF iter   1:  -490.73198892213054   -1.07119e+00   4.42753e-03 DIIS
   @RHF iter   2:  -490.97842973877459   -2.46441e-01   2.70992e-03 DIIS
   @RHF iter   3:  -491.07571005666296   -9.72803e-02   4.54815e-04 DIIS
   @RHF iter   4:  -491.07996340628466   -4.25335e-03   1.89056e-04 DIIS
   @RHF iter   5:  -491.08072394216430   -7.60536e-04   4.41455e-05 DIIS
   @RHF iter   6:  -491.08077151444820   -4.75723e-05   1.79405e-05 DIIS
   @RHF iter   7:  -491.08078098260728   -9.46816e-06   5.25174e-06 DIIS
   @RHF iter   8:  -491.08078238753632   -1.40493e-06   2.30614e-06 DIIS
   @RHF iter   9:  -491.08078267500326   -2.87467e-07   1.06171e-06 DIIS
   @RHF iter  10:  -491.08078274085534   -6.58521e-08   3.30877e-07 DIIS
   @RHF iter  11:  -491.08078274647369   -5.61835e-09   1.46494e-07 DIIS
   @RHF iter  12:  -491.08078274748306   -1.00937e-09   5.23562e-08 DIIS
   @RHF iter  13:  -491.08078274762568   -1.42620e-10   1.64355e-08 DIIS
   @RHF iter  14:  -491.08078274763625   -1.05729e-11   4.97000e-09 DIIS
   @RHF iter  15:  -491.08078274763943   -3.18323e-12   2.11403e-09 DIIS
   @RHF iter  16:  -491.08078274764063   -1.19371e-12   7.72812e-10 DIIS
   @RHF iter  17:  -491.08078274763716    3.46745e-12   3.51796e-10 DIIS
   @RHF iter  18:  -491.08078274763824   -1.08002e-12   8.66409e-11 DIIS
  Energy and wave function converged.

  ==> Post-Iterations <==

    Orbital Energies [Eh]
    ---------------------

    Doubly Occupied:

       1A    -20.233383     2A    -20.232106     3A    -15.513873
       4A    -15.401093     5A    -11.176570     6A    -11.144532
       7A    -11.131351     8A    -11.116767     9A    -11.094279
      10A    -11.033971    11A     -1.231417    12A     -1.118910
      13A     -1.038954    14A     -1.005477    15A     -0.920862
      16A     -0.833615    17A     -0.779618    18A     -0.707422
      19A     -0.649621    20A     -0.633121    21A     -0.498480
      22A     -0.494566    23A     -0.489969    24A     -0.478769
      25A     -0.443970    26A     -0.433664    27A     -0.412070
      28A     -0.399776    29A     -0.383850    30A     -0.377433
      31A     -0.318762    32A     -0.282441    33A     -0.270250
      34A     -0.259077    35A     -0.202375    36A     -0.158415
      37A     -0.141388    38A     -0.132853

    Virtual:

      39A      0.264199    40A      0.292431    41A      0.298642
      42A      0.326886    43A      0.334602    44A      0.339932
      45A      0.365081    46A      0.379937    47A      0.402938
      48A      0.414138    49A      0.467344    50A      0.482280
      51A      0.499876    52A      0.508105    53A      0.534107
      54A      0.582508    55A      0.588815    56A      0.596650
      57A      0.707636    58A      0.714590    59A      0.726760
      60A      0.737963    61A      0.744841    62A      0.774026
      63A      0.805407    64A      0.813971    65A      0.842359
      66A      0.851549    67A      0.872473    68A      0.879653
      69A      0.895418    70A      0.927007    71A      0.946643
      72A      0.954909    73A      0.966615    74A      0.983290
      75A      0.994864    76A      1.011422    77A      1.021905
      78A      1.045820    79A      1.050846    80A      1.051078
      81A      1.063924    82A      1.070467    83A      1.088262
      84A      1.114701    85A      1.134391    86A      1.149744
      87A      1.162696    88A      1.202874    89A      1.216581
      90A      1.233245    91A      1.245003    92A      1.255944
      93A      1.309645    94A      1.355565    95A      1.357201
      96A      1.371358    97A      1.374573    98A      1.423717
      99A      1.431384   100A      1.438874   101A      1.478345
     102A      1.521257   103A      1.539574   104A      1.575002
     105A      1.585388   106A      1.605604   107A      1.611864
     108A      1.620386   109A      1.673087   110A      1.688206
     111A      1.693507   112A      1.709538   113A      1.746769
     114A      1.767840   115A      1.787407   116A      1.796368
     117A      1.844056   118A      1.859417   119A      1.876430
     120A      1.888854   121A      1.915617   122A      1.946417
     123A      1.968173   124A      2.007867   125A      2.031530
     126A      2.052095   127A      2.068603   128A      2.076660
     129A      2.078567   130A      2.092483   131A      2.110138
     132A      2.114957   133A      2.126308   134A      2.180233
     135A      2.188757   136A      2.223280   137A      2.235626
     138A      2.238311   139A      2.267248   140A      2.289501
     141A      2.317711   142A      2.346617   143A      2.381876
     144A      2.411386   145A      2.427522   146A      2.450204
     147A      2.465539   148A      2.506315   149A      2.544229
     150A      2.558827   151A      2.565882   152A      2.591568
     153A      2.654447   154A      2.702205   155A      2.716329
     156A      2.723707   157A      2.792770   158A      2.806986
     159A      2.844540   160A      2.870509   161A      2.898745
     162A      2.911498   163A      2.934016   164A      2.940994
     165A      2.974830   166A      2.987894   167A      2.999350
     168A      3.027985   169A      3.040157   170A      3.071573
     171A      3.188048   172A      3.271683   173A      3.281147
     174A      3.305275   175A      3.319520   176A      3.367316
     177A      3.386290   178A      3.596213   179A      3.656471
     180A      3.776316   181A      3.848783   182A      3.901466
     183A      4.069487   184A      4.116495   185A      4.205130

    Final Occupation by Irrep:
              A
    DOCC [    38 ]

  @RHF Final Energy:  -491.08078274763824

   => Energetics <=

    Nuclear Repulsion Energy =            486.4483796782806166
    One-Electron Energy =               -1648.7082215919149348
    Two-Electron Energy =                 671.1790591659961365
    Total Energy =                       -491.0807827476381817

Computation Completed

Properties will be evaluated at   0.000000,   0.000000,   0.000000 [a0]

Properties computed using the SCF density matrix

  Nuclear Dipole Moment: [e a0]
     X:    -2.3344      Y:     2.5536      Z:     7.2701

  Electronic Dipole Moment: [e a0]
     X:    -3.1837      Y:    -1.6928      Z:    -4.6478

  Dipole Moment: [e a0]
     X:    -5.5181      Y:     0.8608      Z:     2.6223     Total:     6.1699

  Dipole Moment: [D]
     X:   -14.0257      Y:     2.1879      Z:     6.6652     Total:    15.6822

*** tstop() called on ds3 at Sun Apr 26 20:38:56 2020
Module time:
	user time   =      50.18 seconds =       0.84 minutes
	system time =      25.10 seconds =       0.42 minutes
	total time  =         73 seconds =       1.22 minutes
Total time:
	user time   =      50.18 seconds =       0.84 minutes
	system time =      25.10 seconds =       0.42 minutes
	total time  =         73 seconds =       1.22 minutes
                                     G D M A

                                 by Anthony Stone

                           version 2.2.06, 22 June 2011

               Distributed Multipoles from Gaussian wavefunctions

Starting at 20:38:56 on 26 Apr 2020

Using SCF density matrix from file ./SSI/SSI-086HIE-089GLU-2-dimer.test.3923.fchk

                         Distributed Multipole Analysis

Standard DMA

Positions and radii in angstrom
Multipole moments in atomic units, ea_0^k for rank k

C          x = -0.497320  y = -1.159992  z =  2.335870 angstrom
           Maximum rank =  0   Radius =  0.650 angstrom
                   Q00  =  -0.200797

C          x = -1.417320  y = -0.548992  z =  1.324870 angstrom
           Maximum rank =  0   Radius =  0.650 angstrom
                   Q00  =   0.281328

C          x = -2.026320  y =  0.335008  z = -0.596130 angstrom
           Maximum rank =  0   Radius =  0.650 angstrom
                   Q00  =   0.431235

C          x = -2.737320  y = -0.242992  z =  1.405870 angstrom
           Maximum rank =  0   Radius =  0.650 angstrom
                   Q00  =  -0.049663

N          x = -0.997320  y = -0.178992  z =  0.068870 angstrom
           Maximum rank =  0   Radius =  0.650 angstrom
                   Q00  =  -0.720522

N          x = -3.095320  y =  0.297008  z =  0.185870 angstrom
           Maximum rank =  0   Radius =  0.650 angstrom
                   Q00  =  -0.446700

H          x = -2.001320  y =  0.710008  z = -1.615130 angstrom
           Maximum rank =  0   Radius =  0.325 angstrom
                   Q00  =   0.115643

H          x = -0.282320  y = -2.183992  z =  2.024870 angstrom
           Maximum rank =  0   Radius =  0.325 angstrom
                   Q00  =   0.116366

H          x = -1.007320  y = -1.197992  z =  3.298870 angstrom
           Maximum rank =  0   Radius =  0.325 angstrom
                   Q00  =   0.050534

H          x = -4.019320  y =  0.622008  z = -0.077130 angstrom
           Maximum rank =  0   Radius =  0.325 angstrom
                   Q00  =   0.189716

H          x = -3.378320  y = -0.399992  z =  2.264870 angstrom
           Maximum rank =  0   Radius =  0.325 angstrom
                   Q00  =   0.082496

H          x =  0.448710  y = -0.609892  z =  2.447338 angstrom
           Maximum rank =  0   Radius =  0.325 angstrom
                   Q00  =   0.136612

C          x =  2.560680  y =  1.614008  z = -0.395130 angstrom
           Maximum rank =  0   Radius =  0.650 angstrom
                   Q00  =  -0.284849

C          x =  2.500680  y =  0.276008  z = -1.142130 angstrom
           Maximum rank =  0   Radius =  0.650 angstrom
                   Q00  =   0.973502

O          x =  1.546680  y = -0.517992  z = -0.934130 angstrom
           Maximum rank =  0   Radius =  0.650 angstrom
                   Q00  =  -0.907556

O          x =  3.408680  y =  0.038008  z = -1.979130 angstrom
           Maximum rank =  0   Radius =  0.650 angstrom
                   Q00  =  -0.938846

H          x =  2.171680  y =  1.442008  z =  0.589870 angstrom
           Maximum rank =  0   Radius =  0.325 angstrom
                   Q00  =   0.053861

H          x =  1.955680  y =  2.357008  z = -0.918130 angstrom
           Maximum rank =  0   Radius =  0.325 angstrom
                   Q00  =   0.076038

H          x =  3.584300  y =  1.987608  z = -0.244683 angstrom
           Maximum rank =  0   Radius =  0.325 angstrom
                   Q00  =   0.041602

Total multipoles referred to origin at
           x =   0.000000,  y =    0.000000,  z =    0.000000 angstrom
                   Q00  =  -1.000000

Finished at 20:38:56 on 26 Apr 2020

  DMA results are available in the Python driver through the
	  variable('DMA DISTRIBUTED MULTIPOLES')
  and
	  variable('DMA TOTAL MULTIPOLES')
  commands.

    Psi4 stopped on: Sunday, 26 April 2020 08:38PM
    Psi4 wall time for execution: 0:01:12.33

*** Psi4 exiting successfully. Buy a developer a beer!
