                               Psi4 1.3.2 release

  ==> Input File <==

--------------------------------------------------------------------------
import numpy as np
set {scf_type pk
basis cc-pvdz
d_convergence 10
gdma_switch   0
gdma_limit    0
gdma_origin   [ 0.0,  0.0,  0.0 ]
}
molecule test {
    units Angstrom
    0 1
    --
    0 1
    C                0.432352180091410     2.086146462156312    -2.047696459070806
    C               -1.019647819908590     1.038146462156312     1.132303540929193
    C               -0.365647819908590     1.438146462156312    -0.938696459070807
    C               -1.502647819908590     0.679146462156312    -0.989696459070807
    N               -0.090647819908590     1.637146462156312     0.402303540929193
    N               -1.886647819908590     0.447146462156312     0.309303540929193
    H               -1.008647819908590     1.067146462156312     2.217303540929194
    H               -2.695647819908590    -0.083853537843688     0.590303540929193
    H               -2.067647819908590     0.299146462156312    -1.830696459070807
    H                0.542352180091410     1.359146462156312    -2.835696459070807
    H                1.422352180091410     2.315146462156312    -1.636696459070807
    H               -0.069346819908590     2.948956462156312    -2.510146459070806
    C                0.952352180091410    -2.137853537843688     0.361303540929193
    C                2.410352180091409    -1.808853537843688    -0.039696459070807
    C                0.763352180091410    -2.859853537843688     1.719303540929193
    H                0.415352180091410    -1.191853537843688     0.386303540929193
    H                0.543352180091410    -2.761853537843688    -0.434696459070807
    H                2.920352180091409    -2.724853537843688    -0.342696459070807
    H                2.932352180091409    -1.371853537843688     0.811303540929193
    H                1.386352180091410    -3.759853537843688     1.712303540929193
    H                1.125352180091410    -2.191853537843688     2.509303540929193
    H                2.421002180091409    -1.096473537843688    -0.877786459070807
    H               -0.284234819908590    -3.133103537843688     1.913973540929193

}
e, wfn = energy('scf', return_wfn=True)
gdma(wfn)
dmavals = variable('DMA DISTRIBUTED MULTIPOLES')
charges = np.array(dmavals)
print(charges)
np.save('SSI-020HIE-068LYS-1-dimer.npy', np.array(charges))--------------------------------------------------------------------------

*** tstart() called on ds3
*** at Mon Apr 27 06:36:41 2020

   => Loading Basis Set <=

    Name: CC-PVDZ
    Role: ORBITAL
    Keyword: BASIS
    atoms 1-4, 13-15  entry C          line   138 file /theoryfs2/ds/metcalf/miniconda2/envs/tf2gpu/share/psi4/basis/cc-pvdz.gbs
    atoms 5-6         entry N          line   168 file /theoryfs2/ds/metcalf/miniconda2/envs/tf2gpu/share/psi4/basis/cc-pvdz.gbs
    atoms 7-12, 16-23 entry H          line    22 file /theoryfs2/ds/metcalf/miniconda2/envs/tf2gpu/share/psi4/basis/cc-pvdz.gbs

         ---------------------------------------------------------
                                   SCF
               by Justin Turney, Rob Parrish, Andy Simmonett
                          and Daniel G. A. Smith
                              RHF Reference
                        1 Threads,    500 MiB Core
         ---------------------------------------------------------

  ==> Geometry <==

    Molecular point group: c1
    Full point group: C1

    Geometry (in Angstrom), charge = 0, multiplicity = 1:

       Center              X                  Y                   Z               Mass
    ------------   -----------------  -----------------  -----------------  -----------------
         C            0.432352180091     2.086146462156    -2.047696459071    12.000000000000
         C           -1.019647819909     1.038146462156     1.132303540929    12.000000000000
         C           -0.365647819909     1.438146462156    -0.938696459071    12.000000000000
         C           -1.502647819909     0.679146462156    -0.989696459071    12.000000000000
         N           -0.090647819909     1.637146462156     0.402303540929    14.003074004430
         N           -1.886647819909     0.447146462156     0.309303540929    14.003074004430
         H           -1.008647819909     1.067146462156     2.217303540929     1.007825032230
         H           -2.695647819909    -0.083853537844     0.590303540929     1.007825032230
         H           -2.067647819909     0.299146462156    -1.830696459071     1.007825032230
         H            0.542352180091     1.359146462156    -2.835696459071     1.007825032230
         H            1.422352180091     2.315146462156    -1.636696459071     1.007825032230
         H           -0.069346819909     2.948956462156    -2.510146459071     1.007825032230
         C            0.952352180091    -2.137853537844     0.361303540929    12.000000000000
         C            2.410352180091    -1.808853537844    -0.039696459071    12.000000000000
         C            0.763352180091    -2.859853537844     1.719303540929    12.000000000000
         H            0.415352180091    -1.191853537844     0.386303540929     1.007825032230
         H            0.543352180091    -2.761853537844    -0.434696459071     1.007825032230
         H            2.920352180091    -2.724853537844    -0.342696459071     1.007825032230
         H            2.932352180091    -1.371853537844     0.811303540929     1.007825032230
         H            1.386352180091    -3.759853537844     1.712303540929     1.007825032230
         H            1.125352180091    -2.191853537844     2.509303540929     1.007825032230
         H            2.421002180091    -1.096473537844    -0.877786459071     1.007825032230
         H           -0.284234819909    -3.133103537844     1.913973540929     1.007825032230

  Running in c1 symmetry.

  Rotational constants: A =      0.06750  B =      0.02826  C =      0.02320 [cm^-1]
  Rotational constants: A =   2023.50511  B =    847.17222  C =    695.66121 [MHz]
  Nuclear repulsion =  438.365409623594644

  Charge       = 0
  Multiplicity = 1
  Electrons    = 70
  Nalpha       = 35
  Nbeta        = 35

  ==> Algorithm <==

  SCF Algorithm Type is PK.
  DIIS enabled.
  MOM disabled.
  Fractional occupation disabled.
  Guess Type is SAD.
  Energy threshold   = 1.00e-06
  Density threshold  = 1.00e-10
  Integral threshold = 0.00e+00

  ==> Primary Basis <==

  Basis Set: CC-PVDZ
    Blend: CC-PVDZ
    Number of shells: 96
    Number of basis function: 196
    Number of Cartesian functions: 205
    Spherical Harmonics?: true
    Max angular momentum: 2

  ==> Pre-Iterations <==

   -------------------------------------------------------
    Irrep   Nso     Nmo     Nalpha   Nbeta   Ndocc  Nsocc
   -------------------------------------------------------
     A        196     196       0       0       0       0
   -------------------------------------------------------
    Total     196     196      35      35      35       0
   -------------------------------------------------------

  ==> Integral Setup <==

  Using integral reordering PK algorithm.
  Sizing the integral batches needed.
  Building batch lookup table.
   Calculation information:
      Number of atoms:                  23
      Number of AO shells:              96
      Number of primitives:            268
      Number of atomic orbitals:       205
      Number of basis functions:       196

      Integral cutoff                 1.00e-12
      Number of threads:                 1

	Batch   1 pq = [       0,    9405] index = [             0,44231715] size =     44231715
	Batch   2 pq = [    9405,   13301] index = [      44231715,88464951] size =     44233236
	Batch   3 pq = [   13301,   16290] index = [      88464951,132690195] size =     44225244
	Batch   4 pq = [   16290,   18810] index = [     132690195,176917455] size =     44227260
	Batch   5 pq = [   18810,   19306] index = [     176917455,186370471] size =      9453016
  Task number: 17
  Buffer size: 11059200
  Buffer per thread: 2
  We computed 9866927 shell quartets total.
  Whereas there are 10841496 unique shell quartets.

  ==> DiskJK: Disk-Based J/K Matrices <==

    J tasked:                  Yes
    K tasked:                  Yes
    wK tasked:                  No
    Memory [MiB]:              375
    Schwarz Cutoff:          1E-12

    OpenMP threads:              1

  Minimum eigenvalue in the overlap matrix is 1.1992684204E-03.
  Using Symmetric Orthogonalization.

  SCF Guess: Superposition of Atomic Densities via on-the-fly atomic UHF.

  ==> Iterations <==

                        Total Energy        Delta E     RMS |[F,P]|

   @RHF iter SAD:  -381.11009205612606   -3.81110e+02   0.00000e+00
   @RHF iter   1:  -381.89594856107595   -7.85857e-01   3.09685e-03 DIIS
   @RHF iter   2:  -382.09054973674984   -1.94601e-01   1.54155e-03 DIIS
   @RHF iter   3:  -382.13420594804938   -4.36562e-02   3.98504e-04 DIIS
   @RHF iter   4:  -382.13804031878340   -3.83437e-03   1.69638e-04 DIIS
   @RHF iter   5:  -382.13866557712481   -6.25258e-04   2.48391e-05 DIIS
   @RHF iter   6:  -382.13868833335584   -2.27562e-05   1.02919e-05 DIIS
   @RHF iter   7:  -382.13869199168960   -3.65833e-06   3.58434e-06 DIIS
   @RHF iter   8:  -382.13869273710259   -7.45413e-07   1.45718e-06 DIIS
   @RHF iter   9:  -382.13869290499275   -1.67890e-07   5.46864e-07 DIIS
   @RHF iter  10:  -382.13869292386062   -1.88679e-08   1.62636e-07 DIIS
   @RHF iter  11:  -382.13869292593222   -2.07160e-09   7.09865e-08 DIIS
   @RHF iter  12:  -382.13869292617977   -2.47553e-10   2.91617e-08 DIIS
   @RHF iter  13:  -382.13869292622491   -4.51337e-11   8.99949e-09 DIIS
   @RHF iter  14:  -382.13869292623269   -7.78755e-12   2.96802e-09 DIIS
   @RHF iter  15:  -382.13869292623286   -1.70530e-13   1.14566e-09 DIIS
   @RHF iter  16:  -382.13869292623212    7.38964e-13   4.08992e-10 DIIS
   @RHF iter  17:  -382.13869292623127    8.52651e-13   1.50246e-10 DIIS
   @RHF iter  18:  -382.13869292623167   -3.97904e-13   4.44021e-11 DIIS
  Energy and wave function converged.

  ==> Post-Iterations <==

    Orbital Energies [Eh]
    ---------------------

    Doubly Occupied:

       1A    -15.621707     2A    -15.529991     3A    -11.292613
       4A    -11.253538     5A    -11.245521     6A    -11.224859
       7A    -11.216148     8A    -11.211582     9A    -11.209059
      10A     -1.341809    11A     -1.154589    12A     -1.037860
      13A     -1.029693    14A     -0.940772    15A     -0.917549
      16A     -0.817633    17A     -0.787564    18A     -0.768236
      19A     -0.737601    20A     -0.620074    21A     -0.611420
      22A     -0.601466    23A     -0.598989    24A     -0.583857
      25A     -0.552925    26A     -0.538907    27A     -0.534385
      28A     -0.527557    29A     -0.525017    30A     -0.468312
      31A     -0.460614    32A     -0.451247    33A     -0.411827
      34A     -0.380048    35A     -0.309167

    Virtual:

      36A      0.166151    37A      0.180959    38A      0.185336
      39A      0.199975    40A      0.220876    41A      0.226357
      42A      0.234118    43A      0.244297    44A      0.249949
      45A      0.262187    46A      0.272721    47A      0.277752
      48A      0.288764    49A      0.305215    50A      0.308193
      51A      0.324001    52A      0.372270    53A      0.378399
      54A      0.390567    55A      0.418951    56A      0.428637
      57A      0.482461    58A      0.526607    59A      0.572577
      60A      0.587485    61A      0.606996    62A      0.611186
      63A      0.621281    64A      0.634872    65A      0.645782
      66A      0.659139    67A      0.675629    68A      0.717628
      69A      0.732781    70A      0.740356    71A      0.765092
      72A      0.785207    73A      0.804685    74A      0.811981
      75A      0.836398    76A      0.840707    77A      0.851021
      78A      0.867196    79A      0.878964    80A      0.891479
      81A      0.899984    82A      0.902493    83A      0.905803
      84A      0.909942    85A      0.912971    86A      0.922672
      87A      0.929891    88A      0.942138    89A      0.951935
      90A      0.963568    91A      0.966669    92A      0.991510
      93A      1.016543    94A      1.034682    95A      1.069307
      96A      1.090813    97A      1.109138    98A      1.119324
      99A      1.145580   100A      1.152827   101A      1.163724
     102A      1.177545   103A      1.233805   104A      1.278237
     105A      1.297884   106A      1.318399   107A      1.326206
     108A      1.366061   109A      1.410616   110A      1.424381
     111A      1.447359   112A      1.475781   113A      1.483736
     114A      1.491958   115A      1.516412   116A      1.539170
     117A      1.573853   118A      1.616957   119A      1.639257
     120A      1.651978   121A      1.672421   122A      1.684969
     123A      1.687122   124A      1.713111   125A      1.760792
     126A      1.776442   127A      1.800434   128A      1.828540
     129A      1.849495   130A      1.863886   131A      1.872008
     132A      1.891763   133A      1.899715   134A      1.912361
     135A      1.920055   136A      1.935790   137A      1.941339
     138A      1.949046   139A      1.954906   140A      1.962929
     141A      1.966993   142A      1.971908   143A      1.976256
     144A      1.989469   145A      2.015441   146A      2.022174
     147A      2.037032   148A      2.055212   149A      2.092339
     150A      2.099279   151A      2.128303   152A      2.150748
     153A      2.189586   154A      2.196452   155A      2.230383
     156A      2.258849   157A      2.266165   158A      2.289817
     159A      2.302742   160A      2.322986   161A      2.335095
     162A      2.339192   163A      2.375037   164A      2.429486
     165A      2.451845   166A      2.486486   167A      2.501728
     168A      2.547893   169A      2.579803   170A      2.585192
     171A      2.605337   172A      2.619701   173A      2.647422
     174A      2.683241   175A      2.727091   176A      2.748046
     177A      2.763159   178A      2.767897   179A      2.781213
     180A      2.793073   181A      2.795547   182A      2.804499
     183A      2.821190   184A      2.874946   185A      2.893717
     186A      2.912557   187A      2.919922   188A      2.952286
     189A      2.975044   190A      2.981173   191A      3.086854
     192A      3.098299   193A      3.160304   194A      3.225162
     195A      3.463000   196A      3.798762

    Final Occupation by Irrep:
              A
    DOCC [    35 ]

  @RHF Final Energy:  -382.13869292623167

   => Energetics <=

    Nuclear Repulsion Energy =            438.3654096235946440
    One-Electron Energy =               -1385.9799357623489868
    Two-Electron Energy =                 565.4758332125227298
    Total Energy =                       -382.1386929262316698

Computation Completed

Properties will be evaluated at   0.000000,   0.000000,   0.000000 [a0]

Properties computed using the SCF density matrix

  Nuclear Dipole Moment: [e a0]
     X:     7.1149      Y:    -9.6864      Z:    -0.3092

  Electronic Dipole Moment: [e a0]
     X:    -8.3098      Y:     9.0819      Z:     0.2366

  Dipole Moment: [e a0]
     X:    -1.1950      Y:    -0.6045      Z:    -0.0726     Total:     1.3411

  Dipole Moment: [D]
     X:    -3.0374      Y:    -1.5364      Z:    -0.1845     Total:     3.4089

*** tstop() called on ds3 at Mon Apr 27 06:38:24 2020
Module time:
	user time   =      68.28 seconds =       1.14 minutes
	system time =      31.53 seconds =       0.53 minutes
	total time  =        103 seconds =       1.72 minutes
Total time:
	user time   =      68.28 seconds =       1.14 minutes
	system time =      31.53 seconds =       0.53 minutes
	total time  =        103 seconds =       1.72 minutes
                                     G D M A

                                 by Anthony Stone

                           version 2.2.06, 22 June 2011

               Distributed Multipoles from Gaussian wavefunctions

Starting at 6:38:24 on 27 Apr 2020

Using SCF density matrix from file ./SSI/SSI-020HIE-068LYS-1-dimer.test.10657.fchk

                         Distributed Multipole Analysis

Standard DMA

Positions and radii in angstrom
Multipole moments in atomic units, ea_0^k for rank k

C          x =  0.432352  y =  2.086146  z = -2.047696 angstrom
           Maximum rank =  0   Radius =  0.650 angstrom
                   Q00  =  -0.193350

C          x = -1.019648  y =  1.038146  z =  1.132304 angstrom
           Maximum rank =  0   Radius =  0.650 angstrom
                   Q00  =   0.452917

C          x = -0.365648  y =  1.438146  z = -0.938696 angstrom
           Maximum rank =  0   Radius =  0.650 angstrom
                   Q00  =   0.222028

C          x = -1.502648  y =  0.679146  z = -0.989696 angstrom
           Maximum rank =  0   Radius =  0.650 angstrom
                   Q00  =  -0.014629

N          x = -0.090648  y =  1.637146  z =  0.402304 angstrom
           Maximum rank =  0   Radius =  0.650 angstrom
                   Q00  =  -0.772470

N          x = -1.886648  y =  0.447146  z =  0.309304 angstrom
           Maximum rank =  0   Radius =  0.650 angstrom
                   Q00  =  -0.451214

H          x = -1.008648  y =  1.067146  z =  2.217304 angstrom
           Maximum rank =  0   Radius =  0.325 angstrom
                   Q00  =   0.126050

H          x = -2.695648  y = -0.083854  z =  0.590304 angstrom
           Maximum rank =  0   Radius =  0.325 angstrom
                   Q00  =   0.218949

H          x = -2.067648  y =  0.299146  z = -1.830696 angstrom
           Maximum rank =  0   Radius =  0.325 angstrom
                   Q00  =   0.099474

H          x =  0.542352  y =  1.359146  z = -2.835696 angstrom
           Maximum rank =  0   Radius =  0.325 angstrom
                   Q00  =   0.095107

H          x =  1.422352  y =  2.315146  z = -1.636696 angstrom
           Maximum rank =  0   Radius =  0.325 angstrom
                   Q00  =   0.120451

H          x = -0.069347  y =  2.948956  z = -2.510146 angstrom
           Maximum rank =  0   Radius =  0.325 angstrom
                   Q00  =   0.103167

C          x =  0.952352  y = -2.137854  z =  0.361304 angstrom
           Maximum rank =  0   Radius =  0.650 angstrom
                   Q00  =  -0.089759

C          x =  2.410352  y = -1.808854  z = -0.039696 angstrom
           Maximum rank =  0   Radius =  0.650 angstrom
                   Q00  =  -0.250074

C          x =  0.763352  y = -2.859854  z =  1.719304 angstrom
           Maximum rank =  0   Radius =  0.650 angstrom
                   Q00  =  -0.240520

H          x =  0.415352  y = -1.191854  z =  0.386304 angstrom
           Maximum rank =  0   Radius =  0.325 angstrom
                   Q00  =   0.062900

H          x =  0.543352  y = -2.761854  z = -0.434696 angstrom
           Maximum rank =  0   Radius =  0.325 angstrom
                   Q00  =   0.036701

H          x =  2.920352  y = -2.724854  z = -0.342696 angstrom
           Maximum rank =  0   Radius =  0.325 angstrom
                   Q00  =   0.072593

H          x =  2.932352  y = -1.371854  z =  0.811304 angstrom
           Maximum rank =  0   Radius =  0.325 angstrom
                   Q00  =   0.079132

H          x =  1.386352  y = -3.759854  z =  1.712304 angstrom
           Maximum rank =  0   Radius =  0.325 angstrom
                   Q00  =   0.075705

H          x =  1.125352  y = -2.191854  z =  2.509304 angstrom
           Maximum rank =  0   Radius =  0.325 angstrom
                   Q00  =   0.077095

H          x =  2.421002  y = -1.096474  z = -0.877786 angstrom
           Maximum rank =  0   Radius =  0.325 angstrom
                   Q00  =   0.089570

H          x = -0.284235  y = -3.133104  z =  1.913974 angstrom
           Maximum rank =  0   Radius =  0.325 angstrom
                   Q00  =   0.080175

Total multipoles referred to origin at
           x =   0.000000,  y =    0.000000,  z =    0.000000 angstrom
                   Q00  =  -0.000000

Finished at 6:38:24 on 27 Apr 2020

  DMA results are available in the Python driver through the
	  variable('DMA DISTRIBUTED MULTIPOLES')
  and
	  variable('DMA TOTAL MULTIPOLES')
  commands.

    Psi4 stopped on: Monday, 27 April 2020 06:38AM
    Psi4 wall time for execution: 0:01:42.95

*** Psi4 exiting successfully. Buy a developer a beer!
