                               Psi4 1.3.2 release

  ==> Input File <==

--------------------------------------------------------------------------
import numpy as np
set {scf_type pk
basis cc-pvdz
d_convergence 10
gdma_switch   0
gdma_limit    0
gdma_origin   [ 0.0,  0.0,  0.0 ]
}
molecule test {
    units Angstrom
    0 1
    --
    0 1
    C                1.142879199785207    -1.906239512984293    -0.485009222968531
    C                0.807879199785207    -3.394239512984293    -0.424009222968531
    H                0.249879199785207    -1.347239512984293    -0.749009222968531
    H                1.553879199785207    -1.534239512984293     0.452990777031469
    H                1.909879199785207    -1.727239512984293    -1.237009222968531
    H                1.736879199785207    -3.950239512984293    -0.341009222968531
    H                0.282539199785207    -3.701999512984293    -1.340139222968531
    H                0.193879199785207    -3.611369512984293     0.462478777031469
    C               -0.342120800214793     1.344760487015707     0.342990777031469
    C               -1.250120800214793     1.811760487015707     1.482990777031469
    C               -0.382120800214793     2.239760487015707    -0.889009222968531
    H                0.686879199785207     1.262760487015707     0.699990777031469
    H               -0.671120800214793     0.359760487015707     0.025990777031469
    H               -2.235120800214793     2.060760487015707     1.091990777031469
    H               -0.169120800214793     3.269760487015707    -0.598009222968531
    H                0.385879199785207     1.911760487015707    -1.588009222968531
    H               -0.821180800214793     2.693710487015707     1.981158777031469
    H               -1.456390800214793     0.989560487015707     2.184021777031469
    H               -1.365710800214793     2.183550487015707    -1.378279222968531

}
e, wfn = energy('scf', return_wfn=True)
gdma(wfn)
dmavals = variable('DMA DISTRIBUTED MULTIPOLES')
charges = np.array(dmavals)
print(charges)
np.save('SSI-007ILE-042LYS-1-dimer.npy', np.array(charges))--------------------------------------------------------------------------

*** tstart() called on ds3
*** at Mon Apr 27 21:24:09 2020

   => Loading Basis Set <=

    Name: CC-PVDZ
    Role: ORBITAL
    Keyword: BASIS
    atoms 1-2, 9-11  entry C          line   138 file /theoryfs2/ds/metcalf/miniconda2/envs/tf2gpu/share/psi4/basis/cc-pvdz.gbs
    atoms 3-8, 12-19 entry H          line    22 file /theoryfs2/ds/metcalf/miniconda2/envs/tf2gpu/share/psi4/basis/cc-pvdz.gbs

         ---------------------------------------------------------
                                   SCF
               by Justin Turney, Rob Parrish, Andy Simmonett
                          and Daniel G. A. Smith
                              RHF Reference
                        1 Threads,    500 MiB Core
         ---------------------------------------------------------

  ==> Geometry <==

    Molecular point group: c1
    Full point group: C1

    Geometry (in Angstrom), charge = 0, multiplicity = 1:

       Center              X                  Y                   Z               Mass
    ------------   -----------------  -----------------  -----------------  -----------------
         C            1.142879199785    -1.906239512984    -0.485009222969    12.000000000000
         C            0.807879199785    -3.394239512984    -0.424009222969    12.000000000000
         H            0.249879199785    -1.347239512984    -0.749009222969     1.007825032230
         H            1.553879199785    -1.534239512984     0.452990777031     1.007825032230
         H            1.909879199785    -1.727239512984    -1.237009222969     1.007825032230
         H            1.736879199785    -3.950239512984    -0.341009222969     1.007825032230
         H            0.282539199785    -3.701999512984    -1.340139222969     1.007825032230
         H            0.193879199785    -3.611369512984     0.462478777031     1.007825032230
         C           -0.342120800215     1.344760487016     0.342990777031    12.000000000000
         C           -1.250120800215     1.811760487016     1.482990777031    12.000000000000
         C           -0.382120800215     2.239760487016    -0.889009222969    12.000000000000
         H            0.686879199785     1.262760487016     0.699990777031     1.007825032230
         H           -0.671120800215     0.359760487016     0.025990777031     1.007825032230
         H           -2.235120800215     2.060760487016     1.091990777031     1.007825032230
         H           -0.169120800215     3.269760487016    -0.598009222969     1.007825032230
         H            0.385879199785     1.911760487016    -1.588009222969     1.007825032230
         H           -0.821180800215     2.693710487016     1.981158777031     1.007825032230
         H           -1.456390800215     0.989560487016     2.184021777031     1.007825032230
         H           -1.365710800215     2.183550487016    -1.378279222969     1.007825032230

  Running in c1 symmetry.

  Rotational constants: A =      0.23048  B =      0.03720  C =      0.03358 [cm^-1]
  Rotational constants: A =   6909.54865  B =   1115.15293  C =   1006.58603 [MHz]
  Nuclear repulsion =  176.306361284579992

  Charge       = 0
  Multiplicity = 1
  Electrons    = 44
  Nalpha       = 22
  Nbeta        = 22

  ==> Algorithm <==

  SCF Algorithm Type is PK.
  DIIS enabled.
  MOM disabled.
  Fractional occupation disabled.
  Guess Type is SAD.
  Energy threshold   = 1.00e-06
  Density threshold  = 1.00e-10
  Integral threshold = 0.00e+00

  ==> Primary Basis <==

  Basis Set: CC-PVDZ
    Blend: CC-PVDZ
    Number of shells: 72
    Number of basis function: 140
    Number of Cartesian functions: 145
    Spherical Harmonics?: true
    Max angular momentum: 2

  ==> Pre-Iterations <==

   -------------------------------------------------------
    Irrep   Nso     Nmo     Nalpha   Nbeta   Ndocc  Nsocc
   -------------------------------------------------------
     A        140     140       0       0       0       0
   -------------------------------------------------------
    Total     140     140      22      22      22       0
   -------------------------------------------------------

  ==> Integral Setup <==

  Using integral reordering PK algorithm.
  Sizing the integral batches needed.
  Building batch lookup table.
   Calculation information:
      Number of atoms:                  19
      Number of AO shells:              72
      Number of primitives:            180
      Number of atomic orbitals:       145
      Number of basis functions:       140

      Integral cutoff                 1.00e-12
      Number of threads:                 1

	Batch   1 pq = [       0,    9405] index = [             0,44231715] size =     44231715
	Batch   2 pq = [    9405,    9870] index = [      44231715,48713385] size =      4481670
  Task number: 5
  Buffer size: 11059200
  Buffer per thread: 2
  We computed 2772045 shell quartets total.
  Whereas there are 3454506 unique shell quartets.

  ==> DiskJK: Disk-Based J/K Matrices <==

    J tasked:                  Yes
    K tasked:                  Yes
    wK tasked:                  No
    Memory [MiB]:              375
    Schwarz Cutoff:          1E-12

    OpenMP threads:              1

  Minimum eigenvalue in the overlap matrix is 5.2594538010E-03.
  Using Symmetric Orthogonalization.

  SCF Guess: Superposition of Atomic Densities via on-the-fly atomic UHF.

  ==> Iterations <==

                        Total Energy        Delta E     RMS |[F,P]|

   @RHF iter SAD:  -196.37866603063827   -1.96379e+02   0.00000e+00
   @RHF iter   1:  -197.30890976206976   -9.30244e-01   3.80960e-03 DIIS
   @RHF iter   2:  -197.46954010140692   -1.60630e-01   1.63907e-03 DIIS
   @RHF iter   3:  -197.49790466740572   -2.83646e-02   3.26117e-04 DIIS
   @RHF iter   4:  -197.50013191613593   -2.22725e-03   4.86560e-05 DIIS
   @RHF iter   5:  -197.50017098550816   -3.90694e-05   1.48130e-05 DIIS
   @RHF iter   6:  -197.50017430396488   -3.31846e-06   2.46041e-06 DIIS
   @RHF iter   7:  -197.50017441041081   -1.06446e-07   4.47819e-07 DIIS
   @RHF iter   8:  -197.50017441454551   -4.13471e-09   1.15597e-07 DIIS
   @RHF iter   9:  -197.50017441480227   -2.56762e-10   3.59567e-08 DIIS
   @RHF iter  10:  -197.50017441483175   -2.94733e-11   7.80455e-09 DIIS
   @RHF iter  11:  -197.50017441483408   -2.33058e-12   1.50541e-09 DIIS
   @RHF iter  12:  -197.50017441483354    5.40012e-13   2.88122e-10 DIIS
   @RHF iter  13:  -197.50017441483385   -3.12639e-13   6.39216e-11 DIIS
  Energy and wave function converged.

  ==> Post-Iterations <==

    Orbital Energies [Eh]
    ---------------------

    Doubly Occupied:

       1A    -11.218772     2A    -11.217265     3A    -11.216292
       4A    -11.215151     5A    -11.214870     6A     -1.052821
       7A     -1.018723     8A     -0.924453     9A     -0.837953
      10A     -0.794871    11A     -0.628261    12A     -0.601599
      13A     -0.595570    14A     -0.591158    15A     -0.545929
      16A     -0.535419    17A     -0.502739    18A     -0.490580
      19A     -0.483765    20A     -0.470696    21A     -0.467753
      22A     -0.459314

    Virtual:

      23A      0.173145    24A      0.194242    25A      0.216606
      26A      0.222813    27A      0.236607    28A      0.250833
      29A      0.257041    30A      0.267314    31A      0.272173
      32A      0.284839    33A      0.287847    34A      0.297830
      35A      0.308673    36A      0.366212    37A      0.378312
      38A      0.407930    39A      0.431573    40A      0.573837
      41A      0.576795    42A      0.589667    43A      0.600322
      44A      0.610973    45A      0.617398    46A      0.630660
      47A      0.659722    48A      0.695084    49A      0.773703
      50A      0.790219    51A      0.810487    52A      0.835091
      53A      0.874922    54A      0.884820    55A      0.887442
      56A      0.890946    57A      0.894439    58A      0.895222
      59A      0.904828    60A      0.907161    61A      0.914495
      62A      0.921693    63A      0.926734    64A      0.933504
      65A      0.955860    66A      0.966932    67A      0.993047
      68A      1.004193    69A      1.114806    70A      1.119721
      71A      1.126993    72A      1.160899    73A      1.205608
      74A      1.257700    75A      1.387647    76A      1.453983
      77A      1.471851    78A      1.476134    79A      1.491547
      80A      1.540777    81A      1.583135    82A      1.636136
      83A      1.671480    84A      1.682171    85A      1.688815
      86A      1.701965    87A      1.713768    88A      1.852683
      89A      1.864239    90A      1.869339    91A      1.874852
      92A      1.886254    93A      1.906750    94A      1.913359
      95A      1.922799    96A      1.935268    97A      1.942488
      98A      1.947854    99A      1.953637   100A      1.959792
     101A      1.969403   102A      1.984633   103A      1.993247
     104A      2.003342   105A      2.011820   106A      2.042121
     107A      2.046493   108A      2.097397   109A      2.133907
     110A      2.148570   111A      2.164905   112A      2.268182
     113A      2.297043   114A      2.302035   115A      2.315026
     116A      2.333126   117A      2.364025   118A      2.452411
     119A      2.456839   120A      2.496491   121A      2.531801
     122A      2.561900   123A      2.572826   124A      2.592396
     125A      2.614315   126A      2.641865   127A      2.752550
     128A      2.765921   129A      2.766078   130A      2.780958
     131A      2.792957   132A      2.824629   133A      2.845543
     134A      2.870299   135A      2.906501   136A      2.950491
     137A      2.956979   138A      2.976558   139A      2.978436
     140A      3.081889

    Final Occupation by Irrep:
              A
    DOCC [    22 ]

  @RHF Final Energy:  -197.50017441483385

   => Energetics <=

    Nuclear Repulsion Energy =            176.3063612845799923
    One-Electron Energy =                -613.4451638120351618
    Two-Electron Energy =                 239.6386281126212907
    Total Energy =                       -197.5001744148338503

Computation Completed

Properties will be evaluated at   0.000000,   0.000000,   0.000000 [a0]

Properties computed using the SCF density matrix

  Nuclear Dipole Moment: [e a0]
     X:     0.2635      Y:    -1.0694      Z:    -0.3120

  Electronic Dipole Moment: [e a0]
     X:    -0.2404      Y:     1.0347      Z:     0.3004

  Dipole Moment: [e a0]
     X:     0.0231      Y:    -0.0346      Z:    -0.0116     Total:     0.0432

  Dipole Moment: [D]
     X:     0.0587      Y:    -0.0880      Z:    -0.0295     Total:     0.1098

*** tstop() called on ds3 at Mon Apr 27 21:24:35 2020
Module time:
	user time   =      13.58 seconds =       0.23 minutes
	system time =       5.87 seconds =       0.10 minutes
	total time  =         26 seconds =       0.43 minutes
Total time:
	user time   =      13.58 seconds =       0.23 minutes
	system time =       5.87 seconds =       0.10 minutes
	total time  =         26 seconds =       0.43 minutes
                                     G D M A

                                 by Anthony Stone

                           version 2.2.06, 22 June 2011

               Distributed Multipoles from Gaussian wavefunctions

Starting at 21:24:35 on 27 Apr 2020

Using SCF density matrix from file ./SSI/SSI-007ILE-042LYS-1-dimer.test.4768.fchk

                         Distributed Multipole Analysis

Standard DMA

Positions and radii in angstrom
Multipole moments in atomic units, ea_0^k for rank k

C          x =  1.142879  y = -1.906240  z = -0.485009 angstrom
           Maximum rank =  0   Radius =  0.650 angstrom
                   Q00  =  -0.237972

C          x =  0.807879  y = -3.394240  z = -0.424009 angstrom
           Maximum rank =  0   Radius =  0.650 angstrom
                   Q00  =  -0.231548

H          x =  0.249879  y = -1.347240  z = -0.749009 angstrom
           Maximum rank =  0   Radius =  0.325 angstrom
                   Q00  =   0.078365

H          x =  1.553879  y = -1.534240  z =  0.452991 angstrom
           Maximum rank =  0   Radius =  0.325 angstrom
                   Q00  =   0.079946

H          x =  1.909879  y = -1.727240  z = -1.237009 angstrom
           Maximum rank =  0   Radius =  0.325 angstrom
                   Q00  =   0.076374

H          x =  1.736879  y = -3.950240  z = -0.341009 angstrom
           Maximum rank =  0   Radius =  0.325 angstrom
                   Q00  =   0.078339

H          x =  0.282539  y = -3.702000  z = -1.340139 angstrom
           Maximum rank =  0   Radius =  0.325 angstrom
                   Q00  =   0.079667

H          x =  0.193879  y = -3.611370  z =  0.462479 angstrom
           Maximum rank =  0   Radius =  0.325 angstrom
                   Q00  =   0.078229

C          x = -0.342121  y =  1.344760  z =  0.342991 angstrom
           Maximum rank =  0   Radius =  0.650 angstrom
                   Q00  =  -0.079905

C          x = -1.250121  y =  1.811760  z =  1.482991 angstrom
           Maximum rank =  0   Radius =  0.650 angstrom
                   Q00  =  -0.238284

C          x = -0.382121  y =  2.239760  z = -0.889009 angstrom
           Maximum rank =  0   Radius =  0.650 angstrom
                   Q00  =  -0.245998

H          x =  0.686879  y =  1.262760  z =  0.699991 angstrom
           Maximum rank =  0   Radius =  0.325 angstrom
                   Q00  =   0.047277

H          x = -0.671121  y =  0.359760  z =  0.025991 angstrom
           Maximum rank =  0   Radius =  0.325 angstrom
                   Q00  =   0.044672

H          x = -2.235121  y =  2.060760  z =  1.091991 angstrom
           Maximum rank =  0   Radius =  0.325 angstrom
                   Q00  =   0.073973

H          x = -0.169121  y =  3.269760  z = -0.598009 angstrom
           Maximum rank =  0   Radius =  0.325 angstrom
                   Q00  =   0.074342

H          x =  0.385879  y =  1.911760  z = -1.588009 angstrom
           Maximum rank =  0   Radius =  0.325 angstrom
                   Q00  =   0.083438

H          x = -0.821181  y =  2.693710  z =  1.981159 angstrom
           Maximum rank =  0   Radius =  0.325 angstrom
                   Q00  =   0.080506

H          x = -1.456391  y =  0.989560  z =  2.184022 angstrom
           Maximum rank =  0   Radius =  0.325 angstrom
                   Q00  =   0.081966

H          x = -1.365711  y =  2.183550  z = -1.378279 angstrom
           Maximum rank =  0   Radius =  0.325 angstrom
                   Q00  =   0.076612

Total multipoles referred to origin at
           x =   0.000000,  y =    0.000000,  z =    0.000000 angstrom
                   Q00  =  -0.000000

Finished at 21:24:36 on 27 Apr 2020

  DMA results are available in the Python driver through the
	  variable('DMA DISTRIBUTED MULTIPOLES')
  and
	  variable('DMA TOTAL MULTIPOLES')
  commands.

    Psi4 stopped on: Monday, 27 April 2020 09:24PM
    Psi4 wall time for execution: 0:00:27.07

*** Psi4 exiting successfully. Buy a developer a beer!
