                               Psi4 1.3.2 release

  ==> Input File <==

--------------------------------------------------------------------------
import numpy as np
set {scf_type pk
basis cc-pvdz
d_convergence 10
gdma_switch   0
gdma_limit    0
gdma_origin   [ 0.0,  0.0,  0.0 ]
}
molecule test {
    units Angstrom
    1 1
    --
    1 1
    C                1.054847688540407     1.301850263256243     2.048566479983804
    C                0.769847688540407     0.683850263256242    -0.335433520016196
    N                0.487847688540407     1.459850263256242     0.703566479983804
    N                0.205847688540407     0.921850263256242    -1.503433520016196
    N                1.604847688540407    -0.330149736743758    -0.220433520016196
    H               -0.124152311459593     2.248850263256242     0.547566479983804
    H               -0.420152311459593     1.703850263256242    -1.618433520016196
    H                0.460847688540407     0.375850263256242    -2.310433520016196
    H                1.998847688540407    -0.618149736743758     0.675566479983804
    H                1.840847688540406    -0.887149736743758    -1.022433520016196
    H                1.017847688540407     2.254850263256242     2.580566479983804
    H                2.106847688540407     1.019850263256243     1.969566479983804
    H                0.525367688540407     0.535370263256242     2.633512479983803
    C               -2.277152311459593    -1.563149736743758     0.278566479983804
    C               -1.825152311459594    -2.382149736743758    -0.925433520016196
    H               -2.749152311459593    -2.212149736743758     1.016566479983804
    H               -1.416152311459594    -1.076149736743758     0.724566479983804
    H               -2.979152311459593    -0.791149736743758    -0.033433520016196
    H               -1.322152311459593    -1.713149736743758    -1.621433520016196
    H               -2.669199311459593    -2.870809736743758    -1.434154520016196
    H               -1.088152311459593    -3.142269736743758    -0.627021520016196

}
e, wfn = energy('scf', return_wfn=True)
gdma(wfn)
dmavals = variable('DMA DISTRIBUTED MULTIPOLES')
charges = np.array(dmavals)
print(charges)
np.save('SSI-002ARG-046LEU-1-dimer.npy', np.array(charges))--------------------------------------------------------------------------

*** tstart() called on ds3
*** at Tue Apr 28 11:32:49 2020

   => Loading Basis Set <=

    Name: CC-PVDZ
    Role: ORBITAL
    Keyword: BASIS
    atoms 1-2, 14-15  entry C          line   138 file /theoryfs2/ds/metcalf/miniconda2/envs/tf2gpu/share/psi4/basis/cc-pvdz.gbs
    atoms 3-5         entry N          line   168 file /theoryfs2/ds/metcalf/miniconda2/envs/tf2gpu/share/psi4/basis/cc-pvdz.gbs
    atoms 6-13, 16-21 entry H          line    22 file /theoryfs2/ds/metcalf/miniconda2/envs/tf2gpu/share/psi4/basis/cc-pvdz.gbs

         ---------------------------------------------------------
                                   SCF
               by Justin Turney, Rob Parrish, Andy Simmonett
                          and Daniel G. A. Smith
                              RHF Reference
                        1 Threads,    500 MiB Core
         ---------------------------------------------------------

  ==> Geometry <==

    Molecular point group: c1
    Full point group: C1

    Geometry (in Angstrom), charge = 1, multiplicity = 1:

       Center              X                  Y                   Z               Mass
    ------------   -----------------  -----------------  -----------------  -----------------
         C            1.054847688540     1.301850263256     2.048566479984    12.000000000000
         C            0.769847688540     0.683850263256    -0.335433520016    12.000000000000
         N            0.487847688540     1.459850263256     0.703566479984    14.003074004430
         N            0.205847688540     0.921850263256    -1.503433520016    14.003074004430
         N            1.604847688540    -0.330149736744    -0.220433520016    14.003074004430
         H           -0.124152311460     2.248850263256     0.547566479984     1.007825032230
         H           -0.420152311460     1.703850263256    -1.618433520016     1.007825032230
         H            0.460847688540     0.375850263256    -2.310433520016     1.007825032230
         H            1.998847688540    -0.618149736744     0.675566479984     1.007825032230
         H            1.840847688540    -0.887149736744    -1.022433520016     1.007825032230
         H            1.017847688540     2.254850263256     2.580566479984     1.007825032230
         H            2.106847688540     1.019850263256     1.969566479984     1.007825032230
         H            0.525367688540     0.535370263256     2.633512479984     1.007825032230
         C           -2.277152311460    -1.563149736744     0.278566479984    12.000000000000
         C           -1.825152311460    -2.382149736744    -0.925433520016    12.000000000000
         H           -2.749152311460    -2.212149736744     1.016566479984     1.007825032230
         H           -1.416152311460    -1.076149736744     0.724566479984     1.007825032230
         H           -2.979152311460    -0.791149736744    -0.033433520016     1.007825032230
         H           -1.322152311460    -1.713149736744    -1.621433520016     1.007825032230
         H           -2.669199311460    -2.870809736744    -1.434154520016     1.007825032230
         H           -1.088152311460    -3.142269736744    -0.627021520016     1.007825032230

  Running in c1 symmetry.

  Rotational constants: A =      0.09620  B =      0.03882  C =      0.03412 [cm^-1]
  Rotational constants: A =   2884.09450  B =   1163.92727  C =   1023.00940 [MHz]
  Nuclear repulsion =  326.717917656534439

  Charge       = 1
  Multiplicity = 1
  Electrons    = 58
  Nalpha       = 29
  Nbeta        = 29

  ==> Algorithm <==

  SCF Algorithm Type is PK.
  DIIS enabled.
  MOM disabled.
  Fractional occupation disabled.
  Guess Type is SAD.
  Energy threshold   = 1.00e-06
  Density threshold  = 1.00e-10
  Integral threshold = 0.00e+00

  ==> Primary Basis <==

  Basis Set: CC-PVDZ
    Blend: CC-PVDZ
    Number of shells: 84
    Number of basis function: 168
    Number of Cartesian functions: 175
    Spherical Harmonics?: true
    Max angular momentum: 2

  ==> Pre-Iterations <==

   -------------------------------------------------------
    Irrep   Nso     Nmo     Nalpha   Nbeta   Ndocc  Nsocc
   -------------------------------------------------------
     A        168     168       0       0       0       0
   -------------------------------------------------------
    Total     168     168      29      29      29       0
   -------------------------------------------------------

  ==> Integral Setup <==

  Using integral reordering PK algorithm.
  Sizing the integral batches needed.
  Building batch lookup table.
   Calculation information:
      Number of atoms:                  21
      Number of AO shells:              84
      Number of primitives:            224
      Number of atomic orbitals:       175
      Number of basis functions:       168

      Integral cutoff                 1.00e-12
      Number of threads:                 1

	Batch   1 pq = [       0,    9405] index = [             0,44231715] size =     44231715
	Batch   2 pq = [    9405,   13301] index = [      44231715,88464951] size =     44233236
	Batch   3 pq = [   13301,   14196] index = [      88464951,100770306] size =     12305355
  Task number: 10
  Buffer size: 11059200
  Buffer per thread: 2
  We computed 6101534 shell quartets total.
  Whereas there are 6374235 unique shell quartets.

  ==> DiskJK: Disk-Based J/K Matrices <==

    J tasked:                  Yes
    K tasked:                  Yes
    wK tasked:                  No
    Memory [MiB]:              375
    Schwarz Cutoff:          1E-12

    OpenMP threads:              1

  Minimum eigenvalue in the overlap matrix is 3.6804771710E-03.
  Using Symmetric Orthogonalization.

  SCF Guess: Superposition of Atomic Densities via on-the-fly atomic UHF.

  ==> Iterations <==

                        Total Energy        Delta E     RMS |[F,P]|

   @RHF iter SAD:  -322.10274177532733   -3.22103e+02   0.00000e+00
   @RHF iter   1:  -322.61717475890970   -5.14433e-01   3.42273e-03 DIIS
   @RHF iter   2:  -322.78937853893524   -1.72204e-01   1.35080e-03 DIIS
   @RHF iter   3:  -322.81489100465433   -2.55125e-02   3.18540e-04 DIIS
   @RHF iter   4:  -322.81730228695983   -2.41128e-03   4.88880e-05 DIIS
   @RHF iter   5:  -322.81736255266890   -6.02657e-05   1.99715e-05 DIIS
   @RHF iter   6:  -322.81737062183254   -8.06916e-06   4.13322e-06 DIIS
   @RHF iter   7:  -322.81737121694925   -5.95117e-07   1.36698e-06 DIIS
   @RHF iter   8:  -322.81737126066946   -4.37202e-08   4.08057e-07 DIIS
   @RHF iter   9:  -322.81737126460166   -3.93220e-09   9.84085e-08 DIIS
   @RHF iter  10:  -322.81737126485058   -2.48917e-10   2.92445e-08 DIIS
   @RHF iter  11:  -322.81737126487388   -2.33058e-11   7.39605e-09 DIIS
   @RHF iter  12:  -322.81737126487405   -1.70530e-13   2.53138e-09 DIIS
   @RHF iter  13:  -322.81737126487479   -7.38964e-13   9.31747e-10 DIIS
   @RHF iter  14:  -322.81737126487405    7.38964e-13   3.07755e-10 DIIS
   @RHF iter  15:  -322.81737126487496   -9.09495e-13   6.34428e-11 DIIS
  Energy and wave function converged.

  ==> Post-Iterations <==

    Orbital Energies [Eh]
    ---------------------

    Doubly Occupied:

       1A    -15.791263     2A    -15.789095     3A    -15.788150
       4A    -11.592539     5A    -11.442788     6A    -11.328897
       7A    -11.328114     8A     -1.546797     9A     -1.403751
      10A     -1.392404    11A     -1.142142    12A     -1.130725
      13A     -1.042422    14A     -0.978448    15A     -0.948292
      16A     -0.942848    17A     -0.863307    18A     -0.855298
      19A     -0.826823    20A     -0.794994    21A     -0.744634
      22A     -0.723401    23A     -0.710548    24A     -0.707102
      25A     -0.619236    26A     -0.613052    27A     -0.599604
      28A     -0.594211    29A     -0.585827

    Virtual:

      30A     -0.015530    31A      0.019866    32A      0.025171
      33A      0.028464    34A      0.059130    35A      0.074292
      36A      0.086760    37A      0.110648    38A      0.118691
      39A      0.124558    40A      0.143743    41A      0.159337
      42A      0.173171    43A      0.181171    44A      0.182458
      45A      0.213133    46A      0.280754    47A      0.296289
      48A      0.324148    49A      0.333244    50A      0.437404
      51A      0.452505    52A      0.478280    53A      0.490084
      54A      0.492118    55A      0.521870    56A      0.523527
      57A      0.534899    58A      0.546892    59A      0.562626
      60A      0.567038    61A      0.598273    62A      0.662108
      63A      0.677167    64A      0.695195    65A      0.698315
      66A      0.716716    67A      0.736689    68A      0.741865
      69A      0.749277    70A      0.765791    71A      0.779659
      72A      0.783211    73A      0.789456    74A      0.796794
      75A      0.813776    76A      0.845719    77A      0.851733
      78A      0.868357    79A      0.906373    80A      0.924136
      81A      0.930838    82A      0.950521    83A      0.988143
      84A      1.013257    85A      1.022453    86A      1.061306
      87A      1.114123    88A      1.119567    89A      1.149559
      90A      1.174364    91A      1.179616    92A      1.207232
      93A      1.233256    94A      1.282648    95A      1.357288
      96A      1.370179    97A      1.390716    98A      1.446075
      99A      1.484005   100A      1.497450   101A      1.520455
     102A      1.534784   103A      1.555596   104A      1.588529
     105A      1.609531   106A      1.620704   107A      1.658658
     108A      1.687444   109A      1.719079   110A      1.726079
     111A      1.745337   112A      1.750391   113A      1.763587
     114A      1.779178   115A      1.779402   116A      1.795258
     117A      1.819563   118A      1.833957   119A      1.839019
     120A      1.841986   121A      1.842774   122A      1.846974
     123A      1.858510   124A      1.880024   125A      1.892734
     126A      1.983981   127A      1.989657   128A      2.005701
     129A      2.036075   130A      2.045512   131A      2.116099
     132A      2.148396   133A      2.170304   134A      2.195964
     135A      2.207867   136A      2.228281   137A      2.264116
     138A      2.281674   139A      2.317452   140A      2.325395
     141A      2.347038   142A      2.365472   143A      2.368058
     144A      2.434004   145A      2.445120   146A      2.459037
     147A      2.471199   148A      2.536013   149A      2.580554
     150A      2.596176   151A      2.629353   152A      2.655775
     153A      2.691054   154A      2.712421   155A      2.747767
     156A      2.758139   157A      2.761898   158A      2.787237
     159A      2.816122   160A      2.838449   161A      2.857447
     162A      2.864741   163A      2.887811   164A      3.055204
     165A      3.091317   166A      3.098420   167A      3.564795
     168A      3.655546

    Final Occupation by Irrep:
              A
    DOCC [    29 ]

  @RHF Final Energy:  -322.81737126487496

   => Energetics <=

    Nuclear Repulsion Energy =            326.7179176565344392
    One-Electron Energy =               -1073.4171536976514290
    Two-Electron Energy =                 423.8818647762420824
    Total Energy =                       -322.8173712648749643

Computation Completed

Properties will be evaluated at   0.000000,   0.000000,   0.000000 [a0]

Properties computed using the SCF density matrix

  Nuclear Dipole Moment: [e a0]
     X:    -4.5231      Y:    -4.8549      Z:     1.3910

  Electronic Dipole Moment: [e a0]
     X:     5.9216      Y:     6.1200      Z:    -1.6844

  Dipole Moment: [e a0]
     X:     1.3985      Y:     1.2651      Z:    -0.2934     Total:     1.9085

  Dipole Moment: [D]
     X:     3.5546      Y:     3.2156      Z:    -0.7458     Total:     4.8509

*** tstop() called on ds3 at Tue Apr 28 11:33:40 2020
Module time:
	user time   =      37.01 seconds =       0.62 minutes
	system time =      15.28 seconds =       0.25 minutes
	total time  =         51 seconds =       0.85 minutes
Total time:
	user time   =      37.01 seconds =       0.62 minutes
	system time =      15.28 seconds =       0.25 minutes
	total time  =         51 seconds =       0.85 minutes
                                     G D M A

                                 by Anthony Stone

                           version 2.2.06, 22 June 2011

               Distributed Multipoles from Gaussian wavefunctions

Starting at 11:33:40 on 28 Apr 2020

Using SCF density matrix from file ./SSI/SSI-002ARG-046LEU-1-dimer.test.24684.fchk

                         Distributed Multipole Analysis

Standard DMA

Positions and radii in angstrom
Multipole moments in atomic units, ea_0^k for rank k

C          x =  1.054848  y =  1.301850  z =  2.048566 angstrom
           Maximum rank =  0   Radius =  0.650 angstrom
                   Q00  =  -0.125821

C          x =  0.769848  y =  0.683850  z = -0.335434 angstrom
           Maximum rank =  0   Radius =  0.650 angstrom
                   Q00  =   1.079967

N          x =  0.487848  y =  1.459850  z =  0.703566 angstrom
           Maximum rank =  0   Radius =  0.650 angstrom
                   Q00  =  -0.490481

N          x =  0.205848  y =  0.921850  z = -1.503434 angstrom
           Maximum rank =  0   Radius =  0.650 angstrom
                   Q00  =  -0.591362

N          x =  1.604848  y = -0.330150  z = -0.220434 angstrom
           Maximum rank =  0   Radius =  0.650 angstrom
                   Q00  =  -0.584857

H          x = -0.124152  y =  2.248850  z =  0.547566 angstrom
           Maximum rank =  0   Radius =  0.325 angstrom
                   Q00  =   0.235883

H          x = -0.420152  y =  1.703850  z = -1.618434 angstrom
           Maximum rank =  0   Radius =  0.325 angstrom
                   Q00  =   0.267045

H          x =  0.460848  y =  0.375850  z = -2.310434 angstrom
           Maximum rank =  0   Radius =  0.325 angstrom
                   Q00  =   0.267792

H          x =  1.998848  y = -0.618150  z =  0.675566 angstrom
           Maximum rank =  0   Radius =  0.325 angstrom
                   Q00  =   0.278727

H          x =  1.840848  y = -0.887150  z = -1.022434 angstrom
           Maximum rank =  0   Radius =  0.325 angstrom
                   Q00  =   0.263074

H          x =  1.017848  y =  2.254850  z =  2.580566 angstrom
           Maximum rank =  0   Radius =  0.325 angstrom
                   Q00  =   0.162447

H          x =  2.106848  y =  1.019850  z =  1.969566 angstrom
           Maximum rank =  0   Radius =  0.325 angstrom
                   Q00  =   0.110169

H          x =  0.525368  y =  0.535370  z =  2.633512 angstrom
           Maximum rank =  0   Radius =  0.325 angstrom
                   Q00  =   0.128310

C          x = -2.277152  y = -1.563150  z =  0.278566 angstrom
           Maximum rank =  0   Radius =  0.650 angstrom
                   Q00  =  -0.229789

C          x = -1.825152  y = -2.382150  z = -0.925434 angstrom
           Maximum rank =  0   Radius =  0.650 angstrom
                   Q00  =  -0.229602

H          x = -2.749152  y = -2.212150  z =  1.016566 angstrom
           Maximum rank =  0   Radius =  0.325 angstrom
                   Q00  =   0.108294

H          x = -1.416152  y = -1.076150  z =  0.724566 angstrom
           Maximum rank =  0   Radius =  0.325 angstrom
                   Q00  =   0.037564

H          x = -2.979152  y = -0.791150  z = -0.033434 angstrom
           Maximum rank =  0   Radius =  0.325 angstrom
                   Q00  =   0.084410

H          x = -1.322152  y = -1.713150  z = -1.621434 angstrom
           Maximum rank =  0   Radius =  0.325 angstrom
                   Q00  =   0.035705

H          x = -2.669199  y = -2.870810  z = -1.434155 angstrom
           Maximum rank =  0   Radius =  0.325 angstrom
                   Q00  =   0.111614

H          x = -1.088152  y = -3.142270  z = -0.627022 angstrom
           Maximum rank =  0   Radius =  0.325 angstrom
                   Q00  =   0.080910

Total multipoles referred to origin at
           x =   0.000000,  y =    0.000000,  z =    0.000000 angstrom
                   Q00  =   1.000000

Finished at 11:33:40 on 28 Apr 2020

  DMA results are available in the Python driver through the
	  variable('DMA DISTRIBUTED MULTIPOLES')
  and
	  variable('DMA TOTAL MULTIPOLES')
  commands.

    Psi4 stopped on: Tuesday, 28 April 2020 11:33AM
    Psi4 wall time for execution: 0:00:51.08

*** Psi4 exiting successfully. Buy a developer a beer!
