                               Psi4 1.3.2 release

  ==> Input File <==

--------------------------------------------------------------------------
import numpy as np
set {scf_type pk
basis cc-pvdz
d_convergence 10
gdma_switch   0
gdma_limit    0
gdma_origin   [ 0.0,  0.0,  0.0 ]
}
molecule test {
    units Angstrom
    0 1
    --
    0 1
    C                1.526621074421503     1.654719577232893     0.229692006444264
    C                1.804621074421503     1.693719577232893    -1.266307993555736
    H                2.364621074421503     1.207719577232893     0.761692006444264
    H                1.390621074421503     2.663719577232893     0.603692006444264
    H                0.622621074421503     1.078719577232893     0.414692006444264
    H                2.736621074421503     2.234719577232893    -1.426307993555735
    H                1.919397074421503     0.670059577232893    -1.652242993555736
    H                0.996748074421503     2.221972577232893    -1.793839993555736
    C               -1.167378925578497    -1.096280422767107     0.496692006444264
    C               -2.161378925578497    -2.258280422767108     0.539692006444264
    H               -0.941378925578497    -0.821280422767107    -0.529307993555736
    H               -1.602378925578497    -0.228280422767107     0.990692006444264
    H               -0.247378925578497    -1.371280422767107     1.013692006444264
    H               -3.012378925578497    -1.990280422767107    -0.085307993555736
    H               -1.700633925578497    -3.178330422767107     0.150826006444264
    H               -2.556059925578497    -2.414568422767107     1.554483006444265

}
e, wfn = energy('scf', return_wfn=True)
gdma(wfn)
dmavals = variable('DMA DISTRIBUTED MULTIPOLES')
charges = np.array(dmavals)
print(charges)
np.save('SSI-006VAL-053LEU-1-dimer.npy', np.array(charges))--------------------------------------------------------------------------

*** tstart() called on ds3
*** at Sun Apr 26 23:24:45 2020

   => Loading Basis Set <=

    Name: CC-PVDZ
    Role: ORBITAL
    Keyword: BASIS
    atoms 1-2, 9-10  entry C          line   138 file /theoryfs2/ds/metcalf/miniconda2/envs/tf2gpu/share/psi4/basis/cc-pvdz.gbs
    atoms 3-8, 11-16 entry H          line    22 file /theoryfs2/ds/metcalf/miniconda2/envs/tf2gpu/share/psi4/basis/cc-pvdz.gbs

         ---------------------------------------------------------
                                   SCF
               by Justin Turney, Rob Parrish, Andy Simmonett
                          and Daniel G. A. Smith
                              RHF Reference
                        1 Threads,    500 MiB Core
         ---------------------------------------------------------

  ==> Geometry <==

    Molecular point group: c1
    Full point group: C1

    Geometry (in Angstrom), charge = 0, multiplicity = 1:

       Center              X                  Y                   Z               Mass
    ------------   -----------------  -----------------  -----------------  -----------------
         C            1.526621074422     1.654719577233     0.229692006444    12.000000000000
         C            1.804621074422     1.693719577233    -1.266307993556    12.000000000000
         H            2.364621074422     1.207719577233     0.761692006444     1.007825032230
         H            1.390621074422     2.663719577233     0.603692006444     1.007825032230
         H            0.622621074422     1.078719577233     0.414692006444     1.007825032230
         H            2.736621074422     2.234719577233    -1.426307993556     1.007825032230
         H            1.919397074422     0.670059577233    -1.652242993556     1.007825032230
         H            0.996748074422     2.221972577233    -1.793839993556     1.007825032230
         C           -1.167378925578    -1.096280422767     0.496692006444    12.000000000000
         C           -2.161378925578    -2.258280422767     0.539692006444    12.000000000000
         H           -0.941378925578    -0.821280422767    -0.529307993556     1.007825032230
         H           -1.602378925578    -0.228280422767     0.990692006444     1.007825032230
         H           -0.247378925578    -1.371280422767     1.013692006444     1.007825032230
         H           -3.012378925578    -1.990280422767    -0.085307993556     1.007825032230
         H           -1.700633925578    -3.178330422767     0.150826006444     1.007825032230
         H           -2.556059925578    -2.414568422767     1.554483006444     1.007825032230

  Running in c1 symmetry.

  Rotational constants: A =      0.56925  B =      0.04381  C =      0.04198 [cm^-1]
  Rotational constants: A =  17065.62856  B =   1313.25586  C =   1258.61650 [MHz]
  Nuclear repulsion =  120.709240091545496

  Charge       = 0
  Multiplicity = 1
  Electrons    = 36
  Nalpha       = 18
  Nbeta        = 18

  ==> Algorithm <==

  SCF Algorithm Type is PK.
  DIIS enabled.
  MOM disabled.
  Fractional occupation disabled.
  Guess Type is SAD.
  Energy threshold   = 1.00e-06
  Density threshold  = 1.00e-10
  Integral threshold = 0.00e+00

  ==> Primary Basis <==

  Basis Set: CC-PVDZ
    Blend: CC-PVDZ
    Number of shells: 60
    Number of basis function: 116
    Number of Cartesian functions: 120
    Spherical Harmonics?: true
    Max angular momentum: 2

  ==> Pre-Iterations <==

   -------------------------------------------------------
    Irrep   Nso     Nmo     Nalpha   Nbeta   Ndocc  Nsocc
   -------------------------------------------------------
     A        116     116       0       0       0       0
   -------------------------------------------------------
    Total     116     116      18      18      18       0
   -------------------------------------------------------

  ==> Integral Setup <==

  Using integral reordering PK algorithm.
  Sizing the integral batches needed.
  Building batch lookup table.
   Calculation information:
      Number of atoms:                  16
      Number of AO shells:              60
      Number of primitives:            148
      Number of atomic orbitals:       120
      Number of basis functions:       116

      Integral cutoff                 1.00e-12
      Number of threads:                 1

	Batch   1 pq = [       0,    6786] index = [             0,23028291] size =     23028291
  Task number: 3
  Buffer size: 11059200
  Buffer per thread: 2
  We computed 1368232 shell quartets total.
  Whereas there are 1675365 unique shell quartets.

  ==> DiskJK: Disk-Based J/K Matrices <==

    J tasked:                  Yes
    K tasked:                  Yes
    wK tasked:                  No
    Memory [MiB]:              375
    Schwarz Cutoff:          1E-12

    OpenMP threads:              1

  Minimum eigenvalue in the overlap matrix is 5.6734188015E-03.
  Using Symmetric Orthogonalization.

  SCF Guess: Superposition of Atomic Densities via on-the-fly atomic UHF.

  ==> Iterations <==

                        Total Energy        Delta E     RMS |[F,P]|

   @RHF iter SAD:  -157.36154722058259   -1.57362e+02   0.00000e+00
   @RHF iter   1:  -158.30728313882568   -9.45736e-01   4.22479e-03 DIIS
   @RHF iter   2:  -158.44108905252031   -1.33806e-01   1.80122e-03 DIIS
   @RHF iter   3:  -158.46462340240268   -2.35343e-02   3.50514e-04 DIIS
   @RHF iter   4:  -158.46646808602932   -1.84468e-03   3.91816e-05 DIIS
   @RHF iter   5:  -158.46649249327251   -2.44072e-05   6.72033e-06 DIIS
   @RHF iter   6:  -158.46649315807045   -6.64798e-07   1.21821e-06 DIIS
   @RHF iter   7:  -158.46649317276206   -1.46916e-08   3.35135e-07 DIIS
   @RHF iter   8:  -158.46649317386039   -1.09833e-09   5.00530e-08 DIIS
   @RHF iter   9:  -158.46649317390640   -4.60147e-11   1.05087e-08 DIIS
   @RHF iter  10:  -158.46649317390836   -1.96110e-12   2.66869e-09 DIIS
   @RHF iter  11:  -158.46649317390882   -4.54747e-13   5.86402e-10 DIIS
   @RHF iter  12:  -158.46649317390870    1.13687e-13   1.76862e-10 DIIS
   @RHF iter  13:  -158.46649317390853    1.70530e-13   3.31221e-11 DIIS
  Energy and wave function converged.

  ==> Post-Iterations <==

    Orbital Energies [Eh]
    ---------------------

    Doubly Occupied:

       1A    -11.219851     2A    -11.217727     3A    -11.217625
       4A    -11.213088     5A     -1.020041     6A     -1.018046
       7A     -0.839533     8A     -0.833741     9A     -0.600042
      10A     -0.599380    11A     -0.597648    12A     -0.596897
      13A     -0.504792    14A     -0.498769    15A     -0.488441
      16A     -0.485676    17A     -0.484414    18A     -0.480111

    Virtual:

      19A      0.173200    20A      0.193954    21A      0.227020
      22A      0.238515    23A      0.243667    24A      0.259729
      25A      0.261440    26A      0.278037    27A      0.283406
      28A      0.287011    29A      0.297431    30A      0.324822
      31A      0.393067    32A      0.430319    33A      0.587129
      34A      0.593074    35A      0.602153    36A      0.605602
      37A      0.608752    38A      0.656046    39A      0.675074
      40A      0.691883    41A      0.702583    42A      0.729433
      43A      0.846446    44A      0.884923    45A      0.888638
      46A      0.890540    47A      0.893015    48A      0.896074
      49A      0.901049    50A      0.905033    51A      0.912464
      52A      0.923062    53A      0.927621    54A      0.949041
      55A      0.977612    56A      1.042265    57A      1.117887
      58A      1.126158    59A      1.127660    60A      1.134400
      61A      1.225596    62A      1.319258    63A      1.467852
      64A      1.477419    65A      1.478903    66A      1.489506
      67A      1.561322    68A      1.593970    69A      1.680289
      70A      1.680957    71A      1.693908    72A      1.698465
      73A      1.852580    74A      1.856325    75A      1.861840
      76A      1.879603    77A      1.899963    78A      1.907801
      79A      1.933964    80A      1.940733    81A      1.943011
      82A      1.948854    83A      1.953918    84A      1.958740
      85A      1.960738    86A      1.966224    87A      1.986763
      88A      2.067648    89A      2.098130    90A      2.104709
      91A      2.122849    92A      2.125517    93A      2.291518
      94A      2.300854    95A      2.313598    96A      2.358753
      97A      2.441996    98A      2.456594    99A      2.462711
     100A      2.477506   101A      2.555839   102A      2.567520
     103A      2.580954   104A      2.582211   105A      2.754986
     106A      2.765576   107A      2.779400   108A      2.814724
     109A      2.843704   110A      2.853057   111A      2.858000
     112A      2.866012   113A      2.940988   114A      2.949868
     115A      2.959897   116A      2.981159

    Final Occupation by Irrep:
              A
    DOCC [    18 ]

  @RHF Final Energy:  -158.46649317390853

   => Energetics <=

    Nuclear Repulsion Energy =            120.7092400915454959
    One-Electron Energy =                -450.5198230059777984
    Two-Electron Energy =                 171.3440897405237706
    Total Energy =                       -158.4664931739085318

Computation Completed

Properties will be evaluated at   0.000000,   0.000000,   0.000000 [a0]

Properties computed using the SCF density matrix

  Nuclear Dipole Moment: [e a0]
     X:    -0.0277      Y:     0.0683      Z:     0.0026

  Electronic Dipole Moment: [e a0]
     X:     0.0106      Y:    -0.0646      Z:     0.0081

  Dipole Moment: [e a0]
     X:    -0.0172      Y:     0.0038      Z:     0.0107     Total:     0.0206

  Dipole Moment: [D]
     X:    -0.0437      Y:     0.0096      Z:     0.0273     Total:     0.0524

*** tstop() called on ds3 at Sun Apr 26 23:24:55 2020
Module time:
	user time   =       7.21 seconds =       0.12 minutes
	system time =       2.87 seconds =       0.05 minutes
	total time  =         10 seconds =       0.17 minutes
Total time:
	user time   =       7.21 seconds =       0.12 minutes
	system time =       2.87 seconds =       0.05 minutes
	total time  =         10 seconds =       0.17 minutes
                                     G D M A

                                 by Anthony Stone

                           version 2.2.06, 22 June 2011

               Distributed Multipoles from Gaussian wavefunctions

Starting at 23:24:55 on 26 Apr 2020

Using SCF density matrix from file ./SSI/SSI-006VAL-053LEU-1-dimer.test.30948.fchk

                         Distributed Multipole Analysis

Standard DMA

Positions and radii in angstrom
Multipole moments in atomic units, ea_0^k for rank k

C          x =  1.526621  y =  1.654720  z =  0.229692 angstrom
           Maximum rank =  0   Radius =  0.650 angstrom
                   Q00  =  -0.233867

C          x =  1.804621  y =  1.693720  z = -1.266308 angstrom
           Maximum rank =  0   Radius =  0.650 angstrom
                   Q00  =  -0.239657

H          x =  2.364621  y =  1.207720  z =  0.761692 angstrom
           Maximum rank =  0   Radius =  0.325 angstrom
                   Q00  =   0.077726

H          x =  1.390621  y =  2.663720  z =  0.603692 angstrom
           Maximum rank =  0   Radius =  0.325 angstrom
                   Q00  =   0.077047

H          x =  0.622621  y =  1.078720  z =  0.414692 angstrom
           Maximum rank =  0   Radius =  0.325 angstrom
                   Q00  =   0.083995

H          x =  2.736621  y =  2.234720  z = -1.426308 angstrom
           Maximum rank =  0   Radius =  0.325 angstrom
                   Q00  =   0.077087

H          x =  1.919397  y =  0.670060  z = -1.652243 angstrom
           Maximum rank =  0   Radius =  0.325 angstrom
                   Q00  =   0.077307

H          x =  0.996748  y =  2.221973  z = -1.793840 angstrom
           Maximum rank =  0   Radius =  0.325 angstrom
                   Q00  =   0.077990

C          x = -1.167379  y = -1.096280  z =  0.496692 angstrom
           Maximum rank =  0   Radius =  0.650 angstrom
                   Q00  =  -0.245826

C          x = -2.161379  y = -2.258280  z =  0.539692 angstrom
           Maximum rank =  0   Radius =  0.650 angstrom
                   Q00  =  -0.229934

H          x = -0.941379  y = -0.821280  z = -0.529308 angstrom
           Maximum rank =  0   Radius =  0.325 angstrom
                   Q00  =   0.080211

H          x = -1.602379  y = -0.228280  z =  0.990692 angstrom
           Maximum rank =  0   Radius =  0.325 angstrom
                   Q00  =   0.077295

H          x = -0.247379  y = -1.371280  z =  1.013692 angstrom
           Maximum rank =  0   Radius =  0.325 angstrom
                   Q00  =   0.078902

H          x = -3.012379  y = -1.990280  z = -0.085308 angstrom
           Maximum rank =  0   Radius =  0.325 angstrom
                   Q00  =   0.078290

H          x = -1.700634  y = -3.178330  z =  0.150826 angstrom
           Maximum rank =  0   Radius =  0.325 angstrom
                   Q00  =   0.082038

H          x = -2.556060  y = -2.414568  z =  1.554483 angstrom
           Maximum rank =  0   Radius =  0.325 angstrom
                   Q00  =   0.081399

Total multipoles referred to origin at
           x =   0.000000,  y =    0.000000,  z =    0.000000 angstrom
                   Q00  =  -0.000000

Finished at 23:24:55 on 26 Apr 2020

  DMA results are available in the Python driver through the
	  variable('DMA DISTRIBUTED MULTIPOLES')
  and
	  variable('DMA TOTAL MULTIPOLES')
  commands.

    Psi4 stopped on: Sunday, 26 April 2020 11:24PM
    Psi4 wall time for execution: 0:00:09.86

*** Psi4 exiting successfully. Buy a developer a beer!
