                               Psi4 1.3.2 release

  ==> Input File <==

--------------------------------------------------------------------------
import numpy as np
set {scf_type pk
basis cc-pvdz
d_convergence 10
gdma_switch   0
gdma_limit    0
gdma_origin   [ 0.0,  0.0,  0.0 ]
}
molecule test {
    units Angstrom
    0 1
    --
    0 1
    C                2.287914358880286     2.362062071361382     0.112625897604318
    C                2.138914358880286     3.023062071361382    -1.252374102395682
    H                3.242914358880286     2.628062071361382     0.564625897604318
    H                1.484914358880286     2.693062071361382     0.772625897604318
    H                2.218914358880286     1.277062071361382     0.032625897604318
    H                1.278914358880286     2.596062071361382    -1.764374102395682
    H                3.042691358880286     2.829756071361382    -1.848884102395682
    H                1.961416358880286     4.103266071361382    -1.144424102395682
    C               -1.044085641119714     1.238062071361382     0.064625897604318
    C               -2.496085641119714     1.427062071361382    -0.391374102395682
    C               -0.611085641119714    -0.208937928638618     0.168625897604318
    C               -1.049085641119714    -1.001937928638618     1.225625897604318
    C                0.269914358880286    -0.752937928638618    -0.761374102395682
    C               -0.639085641119714    -2.315937928638618     1.342625897604318
    C                0.667914358880286    -2.078937928638618    -0.660374102395682
    C                0.208914358880286    -2.864937928638618     0.390625897604318
    H               -0.409085641119714     1.738062071361382    -0.660374102395682
    H               -0.889085641119714     1.725062071361382     1.026625897604318
    H               -2.654085641119714     0.905062071361382    -1.336374102395682
    H               -1.689085641119714    -0.586937928638618     1.990625897604318
    H                0.643914358880286    -0.146937928638618    -1.573374102395682
    H               -1.000085641119714    -2.918937928638618     2.161625897604318
    H                1.329914358880286    -2.501937928638618    -1.399374102395682
    H                0.500914358880286    -3.900937928638618     0.459625897604318
    H               -2.712235641119714     2.500226071361382    -0.499074102395682
    H               -3.185337641119714     1.031233071361382     0.369055897604318

}
e, wfn = energy('scf', return_wfn=True)
gdma(wfn)
dmavals = variable('DMA DISTRIBUTED MULTIPOLES')
charges = np.array(dmavals)
print(charges)
np.save('SSI-094VAL-166PHE-1-dimer.npy', np.array(charges))--------------------------------------------------------------------------

*** tstart() called on ds3
*** at Sun Apr 26 23:12:29 2020

   => Loading Basis Set <=

    Name: CC-PVDZ
    Role: ORBITAL
    Keyword: BASIS
    atoms 1-2, 9-16  entry C          line   138 file /theoryfs2/ds/metcalf/miniconda2/envs/tf2gpu/share/psi4/basis/cc-pvdz.gbs
    atoms 3-8, 17-26 entry H          line    22 file /theoryfs2/ds/metcalf/miniconda2/envs/tf2gpu/share/psi4/basis/cc-pvdz.gbs

         ---------------------------------------------------------
                                   SCF
               by Justin Turney, Rob Parrish, Andy Simmonett
                          and Daniel G. A. Smith
                              RHF Reference
                        1 Threads,    500 MiB Core
         ---------------------------------------------------------

  ==> Geometry <==

    Molecular point group: c1
    Full point group: C1

    Geometry (in Angstrom), charge = 0, multiplicity = 1:

       Center              X                  Y                   Z               Mass
    ------------   -----------------  -----------------  -----------------  -----------------
         C            2.287914358880     2.362062071361     0.112625897604    12.000000000000
         C            2.138914358880     3.023062071361    -1.252374102396    12.000000000000
         H            3.242914358880     2.628062071361     0.564625897604     1.007825032230
         H            1.484914358880     2.693062071361     0.772625897604     1.007825032230
         H            2.218914358880     1.277062071361     0.032625897604     1.007825032230
         H            1.278914358880     2.596062071361    -1.764374102396     1.007825032230
         H            3.042691358880     2.829756071361    -1.848884102396     1.007825032230
         H            1.961416358880     4.103266071361    -1.144424102396     1.007825032230
         C           -1.044085641120     1.238062071361     0.064625897604    12.000000000000
         C           -2.496085641120     1.427062071361    -0.391374102396    12.000000000000
         C           -0.611085641120    -0.208937928639     0.168625897604    12.000000000000
         C           -1.049085641120    -1.001937928639     1.225625897604    12.000000000000
         C            0.269914358880    -0.752937928639    -0.761374102396    12.000000000000
         C           -0.639085641120    -2.315937928639     1.342625897604    12.000000000000
         C            0.667914358880    -2.078937928639    -0.660374102396    12.000000000000
         C            0.208914358880    -2.864937928639     0.390625897604    12.000000000000
         H           -0.409085641120     1.738062071361    -0.660374102396     1.007825032230
         H           -0.889085641120     1.725062071361     1.026625897604     1.007825032230
         H           -2.654085641120     0.905062071361    -1.336374102396     1.007825032230
         H           -1.689085641120    -0.586937928639     1.990625897604     1.007825032230
         H            0.643914358880    -0.146937928639    -1.573374102396     1.007825032230
         H           -1.000085641120    -2.918937928639     2.161625897604     1.007825032230
         H            1.329914358880    -2.501937928639    -1.399374102396     1.007825032230
         H            0.500914358880    -3.900937928639     0.459625897604     1.007825032230
         H           -2.712235641120     2.500226071361    -0.499074102396     1.007825032230
         H           -3.185337641120     1.031233071361     0.369055897604     1.007825032230

  Running in c1 symmetry.

  Rotational constants: A =      0.05123  B =      0.02457  C =      0.01920 [cm^-1]
  Rotational constants: A =   1535.85196  B =    736.66900  C =    575.66702 [MHz]
  Nuclear repulsion =  499.360158471251737

  Charge       = 0
  Multiplicity = 1
  Electrons    = 76
  Nalpha       = 38
  Nbeta        = 38

  ==> Algorithm <==

  SCF Algorithm Type is PK.
  DIIS enabled.
  MOM disabled.
  Fractional occupation disabled.
  Guess Type is SAD.
  Energy threshold   = 1.00e-06
  Density threshold  = 1.00e-10
  Integral threshold = 0.00e+00

  ==> Primary Basis <==

  Basis Set: CC-PVDZ
    Blend: CC-PVDZ
    Number of shells: 108
    Number of basis function: 220
    Number of Cartesian functions: 230
    Spherical Harmonics?: true
    Max angular momentum: 2

  ==> Pre-Iterations <==

   -------------------------------------------------------
    Irrep   Nso     Nmo     Nalpha   Nbeta   Ndocc  Nsocc
   -------------------------------------------------------
     A        220     220       0       0       0       0
   -------------------------------------------------------
    Total     220     220      38      38      38       0
   -------------------------------------------------------

  ==> Integral Setup <==

  Using integral reordering PK algorithm.
  Sizing the integral batches needed.
  Building batch lookup table.
   Calculation information:
      Number of atoms:                  26
      Number of AO shells:             108
      Number of primitives:            300
      Number of atomic orbitals:       230
      Number of basis functions:       220

      Integral cutoff                 1.00e-12
      Number of threads:                 1

	Batch   1 pq = [       0,    9405] index = [             0,44231715] size =     44231715
	Batch   2 pq = [    9405,   13301] index = [      44231715,88464951] size =     44233236
	Batch   3 pq = [   13301,   16290] index = [      88464951,132690195] size =     44225244
	Batch   4 pq = [   16290,   18810] index = [     132690195,176917455] size =     44227260
	Batch   5 pq = [   18810,   21030] index = [     176917455,221140965] size =     44223510
	Batch   6 pq = [   21030,   23037] index = [     221140965,265363203] size =     44222238
	Batch   7 pq = [   23037,   24310] index = [     265363203,295500205] size =     30137002
  Task number: 27
  Buffer size: 11059200
  Buffer per thread: 2
  We computed 16452877 shell quartets total.
  Whereas there are 17325441 unique shell quartets.

  ==> DiskJK: Disk-Based J/K Matrices <==

    J tasked:                  Yes
    K tasked:                  Yes
    wK tasked:                  No
    Memory [MiB]:              375
    Schwarz Cutoff:          1E-12

    OpenMP threads:              1

  Minimum eigenvalue in the overlap matrix is 2.9759721053E-04.
  Using Symmetric Orthogonalization.

  SCF Guess: Superposition of Atomic Densities via on-the-fly atomic UHF.

  ==> Iterations <==

                        Total Energy        Delta E     RMS |[F,P]|

   @RHF iter SAD:  -386.94887552442606   -3.86949e+02   0.00000e+00
   @RHF iter   1:  -387.77521770642142   -8.26342e-01   2.72678e-03 DIIS
   @RHF iter   2:  -387.99098836988213   -2.15771e-01   1.12598e-03 DIIS
   @RHF iter   3:  -388.02461561981482   -3.36272e-02   2.46683e-04 DIIS
   @RHF iter   4:  -388.02743322621961   -2.81761e-03   5.47357e-05 DIIS
   @RHF iter   5:  -388.02752475646730   -9.15302e-05   2.07445e-05 DIIS
   @RHF iter   6:  -388.02753814079830   -1.33843e-05   3.92060e-06 DIIS
   @RHF iter   7:  -388.02753876620284   -6.25405e-07   1.12169e-06 DIIS
   @RHF iter   8:  -388.02753881639057   -5.01877e-08   2.84600e-07 DIIS
   @RHF iter   9:  -388.02753882236328   -5.97271e-09   1.11033e-07 DIIS
   @RHF iter  10:  -388.02753882365698   -1.29370e-09   5.81566e-08 DIIS
   @RHF iter  11:  -388.02753882408808   -4.31100e-10   2.34174e-08 DIIS
   @RHF iter  12:  -388.02753882415993   -7.18501e-11   1.09746e-08 DIIS
   @RHF iter  13:  -388.02753882417085   -1.09139e-11   4.29255e-09 DIIS
   @RHF iter  14:  -388.02753882417369   -2.84217e-12   1.09424e-09 DIIS
   @RHF iter  15:  -388.02753882417210    1.59162e-12   3.62992e-10 DIIS
   @RHF iter  16:  -388.02753882417483   -2.72848e-12   1.40916e-10 DIIS
   @RHF iter  17:  -388.02753882417090    3.92220e-12   6.52148e-11 DIIS
  Energy and wave function converged.

  ==> Post-Iterations <==

    Orbital Energies [Eh]
    ---------------------

    Doubly Occupied:

       1A    -11.237540     2A    -11.234226     3A    -11.233339
       4A    -11.230217     5A    -11.229997     6A    -11.228670
       7A    -11.228163     8A    -11.223745     9A    -11.219527
      10A    -11.212833    11A     -1.155892    12A     -1.061879
      13A     -1.018797    14A     -1.014123    15A     -0.981956
      16A     -0.861948    17A     -0.835893    18A     -0.824592
      19A     -0.787510    20A     -0.692377    21A     -0.641081
      22A     -0.633997    23A     -0.600352    24A     -0.597617
      25A     -0.593110    26A     -0.585193    27A     -0.577702
      28A     -0.540072    29A     -0.518752    30A     -0.500998
      31A     -0.498978    32A     -0.487448    33A     -0.485269
      34A     -0.478682    35A     -0.473945    36A     -0.467796
      37A     -0.333767    38A     -0.321793

    Virtual:

      39A      0.136291    40A      0.139232    41A      0.174772
      42A      0.194367    43A      0.201034    44A      0.212900
      45A      0.231047    46A      0.238267    47A      0.243807
      48A      0.251775    49A      0.260623    50A      0.264266
      51A      0.280035    52A      0.288358    53A      0.303535
      54A      0.308255    55A      0.323848    56A      0.351797
      57A      0.363266    58A      0.390329    59A      0.406698
      60A      0.424237    61A      0.454307    62A      0.470341
      63A      0.492236    64A      0.495431    65A      0.567313
      66A      0.574941    67A      0.596952    68A      0.601692
      69A      0.604331    70A      0.629765    71A      0.639316
      72A      0.664503    73A      0.684161    74A      0.695743
      75A      0.701862    76A      0.719664    77A      0.733418
      78A      0.740089    79A      0.744488    80A      0.751485
      81A      0.760243    82A      0.769407    83A      0.793681
      84A      0.805731    85A      0.842242    86A      0.845152
      87A      0.858710    88A      0.861070    89A      0.870422
      90A      0.878064    91A      0.888591    92A      0.893545
      93A      0.900408    94A      0.902194    95A      0.906970
      96A      0.912079    97A      0.929170    98A      0.936600
      99A      0.942791   100A      0.951647   101A      0.967047
     102A      0.979838   103A      0.984954   104A      1.010488
     105A      1.014299   106A      1.034051   107A      1.076365
     108A      1.097361   109A      1.118737   110A      1.127944
     111A      1.146191   112A      1.151133   113A      1.156352
     114A      1.173242   115A      1.187763   116A      1.222292
     117A      1.229472   118A      1.249557   119A      1.258011
     120A      1.273520   121A      1.301240   122A      1.305314
     123A      1.325249   124A      1.331448   125A      1.391030
     126A      1.431982   127A      1.446051   128A      1.476761
     129A      1.506750   130A      1.517669   131A      1.530450
     132A      1.572353   133A      1.607881   134A      1.634854
     135A      1.666614   136A      1.681018   137A      1.696052
     138A      1.701673   139A      1.736899   140A      1.756581
     141A      1.765660   142A      1.782177   143A      1.837066
     144A      1.851068   145A      1.867333   146A      1.872637
     147A      1.879455   148A      1.890614   149A      1.896471
     150A      1.904442   151A      1.905503   152A      1.917600
     153A      1.931827   154A      1.936682   155A      1.942131
     156A      1.943593   157A      1.951563   158A      1.952627
     159A      1.961214   160A      1.963275   161A      1.972767
     162A      1.978435   163A      1.992533   164A      2.015454
     165A      2.021672   166A      2.036566   167A      2.044975
     168A      2.060498   169A      2.078788   170A      2.101963
     171A      2.118339   172A      2.140280   173A      2.145690
     174A      2.157948   175A      2.165971   176A      2.169729
     177A      2.182262   178A      2.205124   179A      2.247503
     180A      2.266512   181A      2.276729   182A      2.301941
     183A      2.310938   184A      2.322644   185A      2.336292
     186A      2.357216   187A      2.376577   188A      2.447987
     189A      2.451639   190A      2.460407   191A      2.477386
     192A      2.490602   193A      2.541337   194A      2.545312
     195A      2.581586   196A      2.588675   197A      2.597673
     198A      2.645941   199A      2.745404   200A      2.771057
     201A      2.773323   202A      2.783313   203A      2.790061
     204A      2.800181   205A      2.809737   206A      2.850376
     207A      2.856917   208A      2.858739   209A      2.875198
     210A      2.921567   211A      2.961094   212A      2.979931
     213A      2.986025   214A      3.015035   215A      3.029267
     216A      3.069161   217A      3.192384   218A      3.217908
     219A      3.317128   220A      3.986026

    Final Occupation by Irrep:
              A
    DOCC [    38 ]

  @RHF Final Energy:  -388.02753882417090

   => Energetics <=

    Nuclear Repulsion Energy =            499.3601584712517365
    One-Electron Energy =               -1513.0758458233894999
    Two-Electron Energy =                 625.6881485279668595
    Total Energy =                       -388.0275388241709607

Computation Completed

Properties will be evaluated at   0.000000,   0.000000,   0.000000 [a0]

Properties computed using the SCF density matrix

  Nuclear Dipole Moment: [e a0]
     X:     2.9676      Y:    13.0976      Z:    -2.6707

  Electronic Dipole Moment: [e a0]
     X:    -3.0117      Y:   -13.0222      Z:     2.6926

  Dipole Moment: [e a0]
     X:    -0.0442      Y:     0.0754      Z:     0.0219     Total:     0.0901

  Dipole Moment: [D]
     X:    -0.1123      Y:     0.1917      Z:     0.0557     Total:     0.2291

*** tstop() called on ds3 at Sun Apr 26 23:16:57 2020
Module time:
	user time   =     114.56 seconds =       1.91 minutes
	system time =      42.32 seconds =       0.71 minutes
	total time  =        268 seconds =       4.47 minutes
Total time:
	user time   =     114.56 seconds =       1.91 minutes
	system time =      42.32 seconds =       0.71 minutes
	total time  =        268 seconds =       4.47 minutes
                                     G D M A

                                 by Anthony Stone

                           version 2.2.06, 22 June 2011

               Distributed Multipoles from Gaussian wavefunctions

Starting at 23:16:57 on 26 Apr 2020

Using SCF density matrix from file ./SSI/SSI-094VAL-166PHE-1-dimer.test.25733.fchk

                         Distributed Multipole Analysis

Standard DMA

Positions and radii in angstrom
Multipole moments in atomic units, ea_0^k for rank k

C          x =  2.287914  y =  2.362062  z =  0.112626 angstrom
           Maximum rank =  0   Radius =  0.650 angstrom
                   Q00  =  -0.242085

C          x =  2.138914  y =  3.023062  z = -1.252374 angstrom
           Maximum rank =  0   Radius =  0.650 angstrom
                   Q00  =  -0.227662

H          x =  3.242914  y =  2.628062  z =  0.564626 angstrom
           Maximum rank =  0   Radius =  0.325 angstrom
                   Q00  =   0.080115

H          x =  1.484914  y =  2.693062  z =  0.772626 angstrom
           Maximum rank =  0   Radius =  0.325 angstrom
                   Q00  =   0.076169

H          x =  2.218914  y =  1.277062  z =  0.032626 angstrom
           Maximum rank =  0   Radius =  0.325 angstrom
                   Q00  =   0.087759

H          x =  1.278914  y =  2.596062  z = -1.764374 angstrom
           Maximum rank =  0   Radius =  0.325 angstrom
                   Q00  =   0.070849

H          x =  3.042691  y =  2.829756  z = -1.848884 angstrom
           Maximum rank =  0   Radius =  0.325 angstrom
                   Q00  =   0.078644

H          x =  1.961416  y =  4.103266  z = -1.144424 angstrom
           Maximum rank =  0   Radius =  0.325 angstrom
                   Q00  =   0.079726

C          x = -1.044086  y =  1.238062  z =  0.064626 angstrom
           Maximum rank =  0   Radius =  0.650 angstrom
                   Q00  =  -0.041784

C          x = -2.496086  y =  1.427062  z = -0.391374 angstrom
           Maximum rank =  0   Radius =  0.650 angstrom
                   Q00  =  -0.231329

C          x = -0.611086  y = -0.208938  z =  0.168626 angstrom
           Maximum rank =  0   Radius =  0.650 angstrom
                   Q00  =  -0.113169

C          x = -1.049086  y = -1.001938  z =  1.225626 angstrom
           Maximum rank =  0   Radius =  0.650 angstrom
                   Q00  =   0.001113

C          x =  0.269914  y = -0.752938  z = -0.761374 angstrom
           Maximum rank =  0   Radius =  0.650 angstrom
                   Q00  =  -0.086650

C          x = -0.639086  y = -2.315938  z =  1.342626 angstrom
           Maximum rank =  0   Radius =  0.650 angstrom
                   Q00  =  -0.065618

C          x =  0.667914  y = -2.078938  z = -0.660374 angstrom
           Maximum rank =  0   Radius =  0.650 angstrom
                   Q00  =  -0.060547

C          x =  0.208914  y = -2.864938  z =  0.390626 angstrom
           Maximum rank =  0   Radius =  0.650 angstrom
                   Q00  =  -0.087833

H          x = -0.409086  y =  1.738062  z = -0.660374 angstrom
           Maximum rank =  0   Radius =  0.325 angstrom
                   Q00  =   0.062785

H          x = -0.889086  y =  1.725062  z =  1.026626 angstrom
           Maximum rank =  0   Radius =  0.325 angstrom
                   Q00  =   0.071440

H          x = -2.654086  y =  0.905062  z = -1.336374 angstrom
           Maximum rank =  0   Radius =  0.325 angstrom
                   Q00  =   0.087040

H          x = -1.689086  y = -0.586938  z =  1.990626 angstrom
           Maximum rank =  0   Radius =  0.325 angstrom
                   Q00  =   0.054017

H          x =  0.643914  y = -0.146938  z = -1.573374 angstrom
           Maximum rank =  0   Radius =  0.325 angstrom
                   Q00  =   0.055963

H          x = -1.000086  y = -2.918938  z =  2.161626 angstrom
           Maximum rank =  0   Radius =  0.325 angstrom
                   Q00  =   0.063178

H          x =  1.329914  y = -2.501938  z = -1.399374 angstrom
           Maximum rank =  0   Radius =  0.325 angstrom
                   Q00  =   0.063851

H          x =  0.500914  y = -3.900938  z =  0.459626 angstrom
           Maximum rank =  0   Radius =  0.325 angstrom
                   Q00  =   0.060779

H          x = -2.712236  y =  2.500226  z = -0.499074 angstrom
           Maximum rank =  0   Radius =  0.325 angstrom
                   Q00  =   0.082480

H          x = -3.185338  y =  1.031233  z =  0.369056 angstrom
           Maximum rank =  0   Radius =  0.325 angstrom
                   Q00  =   0.080769

Total multipoles referred to origin at
           x =   0.000000,  y =    0.000000,  z =    0.000000 angstrom
                   Q00  =  -0.000000

Finished at 23:16:57 on 26 Apr 2020

  DMA results are available in the Python driver through the
	  variable('DMA DISTRIBUTED MULTIPOLES')
  and
	  variable('DMA TOTAL MULTIPOLES')
  commands.

    Psi4 stopped on: Sunday, 26 April 2020 11:16PM
    Psi4 wall time for execution: 0:04:28.20

*** Psi4 exiting successfully. Buy a developer a beer!
