                               Psi4 1.3.2 release

  ==> Input File <==

--------------------------------------------------------------------------
import numpy as np
set {scf_type pk
basis cc-pvdz
d_convergence 10
gdma_switch   0
gdma_limit    0
gdma_origin   [ 0.0,  0.0,  0.0 ]
}
molecule test {
    units Angstrom
    0 1
    --
    0 1
    C               -2.276839366291018    -1.659695843616116    -2.232148842599897
    C               -1.143839366291018    -1.006695843616116    -1.469148842599897
    O               -0.621839366291018     0.041304156383884    -1.920148842599897
    O               -0.789839366291018    -1.548695843616116    -0.401148842599897
    H               -3.186839366291017    -1.375695843616116    -1.705148842599897
    H               -2.164839366291018    -2.747695843616116    -2.211148842599897
    H               -2.326099366291018    -1.320680843616116    -3.277448842599897
    C                0.660160633708982    -0.683695843616116     2.450851157400103
    C                1.027160633708982     1.202304156383884     0.884851157400103
    N                0.493160633708982     0.037304156383884     1.187851157400103
    N                1.793160633708982     1.819304156383884     1.761851157400103
    N                0.802160633708982     1.752304156383884    -0.290148842599897
    H               -0.054839366291018    -0.409695843616116     0.468851157400103
    H                1.636160633708982    -0.491695843616116     2.898851157400104
    H                0.610160633708982    -1.754695843616116     2.242851157400103
    H                1.985160633708982     1.388304156383884     2.650851157400103
    H                2.229160633708982     2.698304156383884     1.534851157400103
    H                0.282160633708982     1.193304156383884    -0.973148842599897
    H                1.255160633708982     2.609304156383883    -0.558148842599897
    H               -0.134639366291018    -0.435861843616116     3.169781157400103

}
e, wfn = energy('scf', return_wfn=True)
gdma(wfn)
dmavals = variable('DMA DISTRIBUTED MULTIPOLES')
charges = np.array(dmavals)
print(charges)
np.save('SSI-114GLU-146ARG-1-dimer.npy', np.array(charges))--------------------------------------------------------------------------

*** tstart() called on ds3
*** at Mon Apr 27 23:49:27 2020

   => Loading Basis Set <=

    Name: CC-PVDZ
    Role: ORBITAL
    Keyword: BASIS
    atoms 1-2, 8-9   entry C          line   138 file /theoryfs2/ds/metcalf/miniconda2/envs/tf2gpu/share/psi4/basis/cc-pvdz.gbs
    atoms 3-4        entry O          line   198 file /theoryfs2/ds/metcalf/miniconda2/envs/tf2gpu/share/psi4/basis/cc-pvdz.gbs
    atoms 5-7, 13-20 entry H          line    22 file /theoryfs2/ds/metcalf/miniconda2/envs/tf2gpu/share/psi4/basis/cc-pvdz.gbs
    atoms 10-12      entry N          line   168 file /theoryfs2/ds/metcalf/miniconda2/envs/tf2gpu/share/psi4/basis/cc-pvdz.gbs

         ---------------------------------------------------------
                                   SCF
               by Justin Turney, Rob Parrish, Andy Simmonett
                          and Daniel G. A. Smith
                              RHF Reference
                        1 Threads,    500 MiB Core
         ---------------------------------------------------------

  ==> Geometry <==

    Molecular point group: c1
    Full point group: C1

    Geometry (in Angstrom), charge = 0, multiplicity = 1:

       Center              X                  Y                   Z               Mass
    ------------   -----------------  -----------------  -----------------  -----------------
         C           -2.276839366291    -1.659695843616    -2.232148842600    12.000000000000
         C           -1.143839366291    -1.006695843616    -1.469148842600    12.000000000000
         O           -0.621839366291     0.041304156384    -1.920148842600    15.994914619570
         O           -0.789839366291    -1.548695843616    -0.401148842600    15.994914619570
         H           -3.186839366291    -1.375695843616    -1.705148842600     1.007825032230
         H           -2.164839366291    -2.747695843616    -2.211148842600     1.007825032230
         H           -2.326099366291    -1.320680843616    -3.277448842600     1.007825032230
         C            0.660160633709    -0.683695843616     2.450851157400    12.000000000000
         C            1.027160633709     1.202304156384     0.884851157400    12.000000000000
         N            0.493160633709     0.037304156384     1.187851157400    14.003074004430
         N            1.793160633709     1.819304156384     1.761851157400    14.003074004430
         N            0.802160633709     1.752304156384    -0.290148842600    14.003074004430
         H           -0.054839366291    -0.409695843616     0.468851157400     1.007825032230
         H            1.636160633709    -0.491695843616     2.898851157400     1.007825032230
         H            0.610160633709    -1.754695843616     2.242851157400     1.007825032230
         H            1.985160633709     1.388304156384     2.650851157400     1.007825032230
         H            2.229160633709     2.698304156384     1.534851157400     1.007825032230
         H            0.282160633709     1.193304156384    -0.973148842600     1.007825032230
         H            1.255160633709     2.609304156384    -0.558148842600     1.007825032230
         H           -0.134639366291    -0.435861843616     3.169781157400     1.007825032230

  Running in c1 symmetry.

  Rotational constants: A =      0.09823  B =      0.02752  C =      0.02182 [cm^-1]
  Rotational constants: A =   2944.79537  B =    824.90057  C =    654.09376 [MHz]
  Nuclear repulsion =  474.627372378297537

  Charge       = 0
  Multiplicity = 1
  Electrons    = 72
  Nalpha       = 36
  Nbeta        = 36

  ==> Algorithm <==

  SCF Algorithm Type is PK.
  DIIS enabled.
  MOM disabled.
  Fractional occupation disabled.
  Guess Type is SAD.
  Energy threshold   = 1.00e-06
  Density threshold  = 1.00e-10
  Integral threshold = 0.00e+00

  ==> Primary Basis <==

  Basis Set: CC-PVDZ
    Blend: CC-PVDZ
    Number of shells: 87
    Number of basis function: 181
    Number of Cartesian functions: 190
    Spherical Harmonics?: true
    Max angular momentum: 2

  ==> Pre-Iterations <==

   -------------------------------------------------------
    Irrep   Nso     Nmo     Nalpha   Nbeta   Ndocc  Nsocc
   -------------------------------------------------------
     A        181     181       0       0       0       0
   -------------------------------------------------------
    Total     181     181      36      36      36       0
   -------------------------------------------------------

  ==> Integral Setup <==

  Using integral reordering PK algorithm.
  Sizing the integral batches needed.
  Building batch lookup table.
   Calculation information:
      Number of atoms:                  20
      Number of AO shells:              87
      Number of primitives:            253
      Number of atomic orbitals:       190
      Number of basis functions:       181

      Integral cutoff                 1.00e-12
      Number of threads:                 1

	Batch   1 pq = [       0,    9405] index = [             0,44231715] size =     44231715
	Batch   2 pq = [    9405,   13301] index = [      44231715,88464951] size =     44233236
	Batch   3 pq = [   13301,   16471] index = [      88464951,135655156] size =     47190205
  Task number: 13
  Buffer size: 11059200
  Buffer per thread: 2
  We computed 6200211 shell quartets total.
  Whereas there are 7328706 unique shell quartets.

  ==> DiskJK: Disk-Based J/K Matrices <==

    J tasked:                  Yes
    K tasked:                  Yes
    wK tasked:                  No
    Memory [MiB]:              375
    Schwarz Cutoff:          1E-12

    OpenMP threads:              1

  Minimum eigenvalue in the overlap matrix is 3.6455721348E-03.
  Using Symmetric Orthogonalization.

  SCF Guess: Superposition of Atomic Densities via on-the-fly atomic UHF.

  ==> Iterations <==

                        Total Energy        Delta E     RMS |[F,P]|

   @RHF iter SAD:  -469.90926065618447   -4.69909e+02   0.00000e+00
   @RHF iter   1:  -470.73981246142478   -8.30552e-01   4.13581e-03 DIIS
   @RHF iter   2:  -470.95697976461167   -2.17167e-01   2.08832e-03 DIIS
   @RHF iter   3:  -471.00944102127323   -5.24613e-02   3.88847e-04 DIIS
   @RHF iter   4:  -471.01253394289711   -3.09292e-03   1.27897e-04 DIIS
   @RHF iter   5:  -471.01287618461134   -3.42242e-04   2.31508e-05 DIIS
   @RHF iter   6:  -471.01289246223212   -1.62776e-05   7.20674e-06 DIIS
   @RHF iter   7:  -471.01289374422521   -1.28199e-06   1.99365e-06 DIIS
   @RHF iter   8:  -471.01289388501129   -1.40786e-07   7.50181e-07 DIIS
   @RHF iter   9:  -471.01289389878559   -1.37743e-08   2.85304e-07 DIIS
   @RHF iter  10:  -471.01289390075914   -1.97355e-09   7.85284e-08 DIIS
   @RHF iter  11:  -471.01289390105705   -2.97916e-10   2.65167e-08 DIIS
   @RHF iter  12:  -471.01289390109685   -3.97904e-11   1.18861e-08 DIIS
   @RHF iter  13:  -471.01289390110537   -8.52651e-12   3.81262e-09 DIIS
   @RHF iter  14:  -471.01289390110549   -1.13687e-13   1.06351e-09 DIIS
   @RHF iter  15:  -471.01289390110463    8.52651e-13   4.04945e-10 DIIS
   @RHF iter  16:  -471.01289390110719   -2.55795e-12   1.28320e-10 DIIS
   @RHF iter  17:  -471.01289390110628    9.09495e-13   5.87961e-11 DIIS
  Energy and wave function converged.

  ==> Post-Iterations <==

    Orbital Energies [Eh]
    ---------------------

    Doubly Occupied:

       1A    -20.442228     2A    -20.440669     3A    -15.633878
       4A    -15.593533     5A    -15.585037     6A    -11.410014
       7A    -11.291164     8A    -11.288340     9A    -11.180486
      10A     -1.374560    11A     -1.335212    12A     -1.230936
      13A     -1.224938    14A     -1.211044    15A     -0.980267
      16A     -0.936433    17A     -0.869699    18A     -0.809302
      19A     -0.770438    20A     -0.702613    21A     -0.691409
      22A     -0.657851    23A     -0.647012    24A     -0.625320
      25A     -0.588476    26A     -0.578207    27A     -0.567245
      28A     -0.560145    29A     -0.552361    30A     -0.493013
      31A     -0.468652    32A     -0.453517    33A     -0.403078
      34A     -0.356769    35A     -0.356521    36A     -0.349221

    Virtual:

      37A      0.134222    38A      0.166027    39A      0.196466
      40A      0.214749    41A      0.225968    42A      0.241084
      43A      0.259484    44A      0.267105    45A      0.269770
      46A      0.303878    47A      0.321702    48A      0.334479
      49A      0.369250    50A      0.437257    51A      0.438817
      52A      0.445848    53A      0.497443    54A      0.507098
      55A      0.586470    56A      0.593313    57A      0.596866
      58A      0.615159    59A      0.679041    60A      0.687144
      61A      0.692092    62A      0.699811    63A      0.713625
      64A      0.719989    65A      0.748961    66A      0.761427
      67A      0.791856    68A      0.828282    69A      0.833603
      70A      0.839159    71A      0.852553    72A      0.859712
      73A      0.897613    74A      0.902586    75A      0.914001
      76A      0.923832    77A      0.941028    78A      0.948389
      79A      0.961059    80A      0.978385    81A      0.993064
      82A      1.002862    83A      1.058171    84A      1.068365
      85A      1.085252    86A      1.112482    87A      1.132546
      88A      1.172161    89A      1.207806    90A      1.218865
      91A      1.255986    92A      1.279275    93A      1.299092
      94A      1.317069    95A      1.347033    96A      1.352821
      97A      1.374162    98A      1.404139    99A      1.412545
     100A      1.429869   101A      1.453504   102A      1.498161
     103A      1.519051   104A      1.563711   105A      1.586184
     106A      1.590406   107A      1.628112   108A      1.655922
     109A      1.693636   110A      1.702215   111A      1.710696
     112A      1.715718   113A      1.729237   114A      1.780462
     115A      1.822080   116A      1.830828   117A      1.865191
     118A      1.886579   119A      1.903003   120A      1.922324
     121A      1.923707   122A      1.936594   123A      1.942762
     124A      1.960419   125A      1.970247   126A      1.982678
     127A      2.006027   128A      2.021015   129A      2.032095
     130A      2.071194   131A      2.096517   132A      2.117221
     133A      2.166592   134A      2.179134   135A      2.228194
     136A      2.249169   137A      2.274235   138A      2.291276
     139A      2.306395   140A      2.328437   141A      2.346327
     142A      2.395970   143A      2.420123   144A      2.474377
     145A      2.490893   146A      2.500745   147A      2.526475
     148A      2.558318   149A      2.573595   150A      2.594614
     151A      2.620075   152A      2.635832   153A      2.684683
     154A      2.735473   155A      2.744856   156A      2.766310
     157A      2.796928   158A      2.809943   159A      2.836432
     160A      2.858132   161A      2.904116   162A      2.925162
     163A      2.959396   164A      2.987964   165A      3.005600
     166A      3.074650   167A      3.087253   168A      3.137117
     169A      3.167378   170A      3.208200   171A      3.253509
     172A      3.326976   173A      3.445177   174A      3.571065
     175A      3.654565   176A      3.678999   177A      3.810096
     178A      3.864103   179A      3.904178   180A      3.946231
     181A      4.053337

    Final Occupation by Irrep:
              A
    DOCC [    36 ]

  @RHF Final Energy:  -471.01289390110628

   => Energetics <=

    Nuclear Repulsion Energy =            474.6273723782975367
    One-Electron Energy =               -1585.9613570218889436
    Two-Electron Energy =                 640.3210907424852394
    Total Energy =                       -471.0128939011062812

Computation Completed

Properties will be evaluated at   0.000000,   0.000000,   0.000000 [a0]

Properties computed using the SCF density matrix

  Nuclear Dipole Moment: [e a0]
     X:     0.1068      Y:    -0.6241      Z:     3.9569

  Electronic Dipole Moment: [e a0]
     X:     1.9145      Y:     2.7856      Z:    -1.3876

  Dipole Moment: [e a0]
     X:     2.0213      Y:     2.1615      Z:     2.5693     Total:     3.9191

  Dipole Moment: [D]
     X:     5.1377      Y:     5.4939      Z:     6.5305     Total:     9.9613

*** tstop() called on ds3 at Mon Apr 27 23:50:35 2020
Module time:
	user time   =      50.12 seconds =       0.84 minutes
	system time =      20.68 seconds =       0.34 minutes
	total time  =         68 seconds =       1.13 minutes
Total time:
	user time   =      50.12 seconds =       0.84 minutes
	system time =      20.68 seconds =       0.34 minutes
	total time  =         68 seconds =       1.13 minutes
                                     G D M A

                                 by Anthony Stone

                           version 2.2.06, 22 June 2011

               Distributed Multipoles from Gaussian wavefunctions

Starting at 23:50:35 on 27 Apr 2020

Using SCF density matrix from file ./SSI/SSI-114GLU-146ARG-1-dimer.test.4212.fchk

                         Distributed Multipole Analysis

Standard DMA

Positions and radii in angstrom
Multipole moments in atomic units, ea_0^k for rank k

C          x = -2.276839  y = -1.659696  z = -2.232149 angstrom
           Maximum rank =  0   Radius =  0.650 angstrom
                   Q00  =  -0.249709

C          x = -1.143839  y = -1.006696  z = -1.469149 angstrom
           Maximum rank =  0   Radius =  0.650 angstrom
                   Q00  =   0.860956

O          x = -0.621839  y =  0.041304  z = -1.920149 angstrom
           Maximum rank =  0   Radius =  0.650 angstrom
                   Q00  =  -0.926206

O          x = -0.789839  y = -1.548696  z = -0.401149 angstrom
           Maximum rank =  0   Radius =  0.650 angstrom
                   Q00  =  -0.912786

H          x = -3.186839  y = -1.375696  z = -1.705149 angstrom
           Maximum rank =  0   Radius =  0.325 angstrom
                   Q00  =   0.103263

H          x = -2.164839  y = -2.747696  z = -2.211149 angstrom
           Maximum rank =  0   Radius =  0.325 angstrom
                   Q00  =   0.096141

H          x = -2.326099  y = -1.320681  z = -3.277449 angstrom
           Maximum rank =  0   Radius =  0.325 angstrom
                   Q00  =   0.085671

C          x =  0.660161  y = -0.683696  z =  2.450851 angstrom
           Maximum rank =  0   Radius =  0.650 angstrom
                   Q00  =  -0.095756

C          x =  1.027161  y =  1.202304  z =  0.884851 angstrom
           Maximum rank =  0   Radius =  0.650 angstrom
                   Q00  =   1.056243

N          x =  0.493161  y =  0.037304  z =  1.187851 angstrom
           Maximum rank =  0   Radius =  0.650 angstrom
                   Q00  =  -0.527133

N          x =  1.793161  y =  1.819304  z =  1.761851 angstrom
           Maximum rank =  0   Radius =  0.650 angstrom
                   Q00  =  -0.581714

N          x =  0.802161  y =  1.752304  z = -0.290149 angstrom
           Maximum rank =  0   Radius =  0.650 angstrom
                   Q00  =  -0.633976

H          x = -0.054839  y = -0.409696  z =  0.468851 angstrom
           Maximum rank =  0   Radius =  0.325 angstrom
                   Q00  =   0.353967

H          x =  1.636161  y = -0.491696  z =  2.898851 angstrom
           Maximum rank =  0   Radius =  0.325 angstrom
                   Q00  =   0.068268

H          x =  0.610161  y = -1.754696  z =  2.242851 angstrom
           Maximum rank =  0   Radius =  0.325 angstrom
                   Q00  =   0.151594

H          x =  1.985161  y =  1.388304  z =  2.650851 angstrom
           Maximum rank =  0   Radius =  0.325 angstrom
                   Q00  =   0.238403

H          x =  2.229161  y =  2.698304  z =  1.534851 angstrom
           Maximum rank =  0   Radius =  0.325 angstrom
                   Q00  =   0.230218

H          x =  0.282161  y =  1.193304  z = -0.973149 angstrom
           Maximum rank =  0   Radius =  0.325 angstrom
                   Q00  =   0.367033

H          x =  1.255161  y =  2.609304  z = -0.558149 angstrom
           Maximum rank =  0   Radius =  0.325 angstrom
                   Q00  =   0.217118

H          x = -0.134639  y = -0.435862  z =  3.169781 angstrom
           Maximum rank =  0   Radius =  0.325 angstrom
                   Q00  =   0.098405

Total multipoles referred to origin at
           x =   0.000000,  y =    0.000000,  z =    0.000000 angstrom
                   Q00  =  -0.000000

Finished at 23:50:35 on 27 Apr 2020

  DMA results are available in the Python driver through the
	  variable('DMA DISTRIBUTED MULTIPOLES')
  and
	  variable('DMA TOTAL MULTIPOLES')
  commands.

    Psi4 stopped on: Monday, 27 April 2020 11:50PM
    Psi4 wall time for execution: 0:01:08.23

*** Psi4 exiting successfully. Buy a developer a beer!
