                               Psi4 1.3.2 release

  ==> Input File <==

--------------------------------------------------------------------------
import numpy as np
set {scf_type pk
basis cc-pvdz
d_convergence 10
gdma_switch   0
gdma_limit    0
gdma_origin   [ 0.0,  0.0,  0.0 ]
}
molecule test {
    units Angstrom
    0 1
    --
    0 1
    C                2.790661189918707    -0.258412702744620    -1.289372720247356
    C                2.064661189918707    -1.230412702744620    -2.217372720247356
    H                2.282661189918707     0.705587297255380    -1.268372720247356
    H                2.806661189918707    -0.670412702744620    -0.280372720247356
    H                3.816661189918707    -0.120412702744620    -1.628372720247356
    H                1.023661189918707    -1.299412702744620    -1.899372720247356
    H                2.494661189918707    -2.212412702744620    -2.047372720247356
    H                2.101731189918707    -0.983780702744620    -3.288722720247356
    C                0.929661189918707     0.509587297255380     1.718627279752644
    C                0.455661189918707     0.890587297255380     3.119627279752644
    C               -0.184338810081293     0.262587297255380     0.722627279752644
    C               -0.664338810081293     1.301587297255380    -0.084372720247356
    C               -0.725338810081293    -1.021412702744620     0.570627279752644
    C               -1.678338810081293     1.088587297255381    -1.006372720247356
    C               -1.721338810081293    -1.260412702744619    -0.364372720247356
    C               -2.201338810081293    -0.197412702744620    -1.177372720247356
    H                1.563661189918707     1.304587297255380     1.326627279752644
    H                1.537661189918707    -0.393412702744620     1.788627279752644
    H               -0.223338810081293     0.115587297255380     3.467627279752644
    H               -0.251338810081293     2.292587297255380     0.017627279752644
    H               -0.354338810081293    -1.832412702744620     1.172627279752644
    H               -2.032338810081293     1.900587297255381    -1.592372720247356
    H               -2.082338810081293    -2.266412702744620    -0.515372720247356
    H               -2.845338810081293    -0.364412702744620    -2.016372720247356
    H               -0.073868810081293     1.854734597255380     3.115107279752644
    H                1.361141189918707     0.958843297255380     3.740467279752644

}
e, wfn = energy('scf', return_wfn=True)
gdma(wfn)
dmavals = variable('DMA DISTRIBUTED MULTIPOLES')
charges = np.array(dmavals)
print(charges)
np.save('SSI-008ILE-058PHE-1-dimer.npy', np.array(charges))--------------------------------------------------------------------------

*** tstart() called on ds3
*** at Tue Apr 28 15:26:27 2020

   => Loading Basis Set <=

    Name: CC-PVDZ
    Role: ORBITAL
    Keyword: BASIS
    atoms 1-2, 9-16  entry C          line   138 file /theoryfs2/ds/metcalf/miniconda2/envs/tf2gpu/share/psi4/basis/cc-pvdz.gbs
    atoms 3-8, 17-26 entry H          line    22 file /theoryfs2/ds/metcalf/miniconda2/envs/tf2gpu/share/psi4/basis/cc-pvdz.gbs

         ---------------------------------------------------------
                                   SCF
               by Justin Turney, Rob Parrish, Andy Simmonett
                          and Daniel G. A. Smith
                              RHF Reference
                        1 Threads,    500 MiB Core
         ---------------------------------------------------------

  ==> Geometry <==

    Molecular point group: c1
    Full point group: C1

    Geometry (in Angstrom), charge = 0, multiplicity = 1:

       Center              X                  Y                   Z               Mass
    ------------   -----------------  -----------------  -----------------  -----------------
         C            2.790661189919    -0.258412702745    -1.289372720247    12.000000000000
         C            2.064661189919    -1.230412702745    -2.217372720247    12.000000000000
         H            2.282661189919     0.705587297255    -1.268372720247     1.007825032230
         H            2.806661189919    -0.670412702745    -0.280372720247     1.007825032230
         H            3.816661189919    -0.120412702745    -1.628372720247     1.007825032230
         H            1.023661189919    -1.299412702745    -1.899372720247     1.007825032230
         H            2.494661189919    -2.212412702745    -2.047372720247     1.007825032230
         H            2.101731189919    -0.983780702745    -3.288722720247     1.007825032230
         C            0.929661189919     0.509587297255     1.718627279753    12.000000000000
         C            0.455661189919     0.890587297255     3.119627279753    12.000000000000
         C           -0.184338810081     0.262587297255     0.722627279753    12.000000000000
         C           -0.664338810081     1.301587297255    -0.084372720247    12.000000000000
         C           -0.725338810081    -1.021412702745     0.570627279753    12.000000000000
         C           -1.678338810081     1.088587297255    -1.006372720247    12.000000000000
         C           -1.721338810081    -1.260412702745    -0.364372720247    12.000000000000
         C           -2.201338810081    -0.197412702745    -1.177372720247    12.000000000000
         H            1.563661189919     1.304587297255     1.326627279753     1.007825032230
         H            1.537661189919    -0.393412702745     1.788627279753     1.007825032230
         H           -0.223338810081     0.115587297255     3.467627279753     1.007825032230
         H           -0.251338810081     2.292587297255     0.017627279753     1.007825032230
         H           -0.354338810081    -1.832412702745     1.172627279753     1.007825032230
         H           -2.032338810081     1.900587297255    -1.592372720247     1.007825032230
         H           -2.082338810081    -2.266412702745    -0.515372720247     1.007825032230
         H           -2.845338810081    -0.364412702745    -2.016372720247     1.007825032230
         H           -0.073868810081     1.854734597255     3.115107279753     1.007825032230
         H            1.361141189919     0.958843297255     3.740467279753     1.007825032230

  Running in c1 symmetry.

  Rotational constants: A =      0.03795  B =      0.03435  C =      0.02287 [cm^-1]
  Rotational constants: A =   1137.74434  B =   1029.87956  C =    685.49777 [MHz]
  Nuclear repulsion =  506.701890247228562

  Charge       = 0
  Multiplicity = 1
  Electrons    = 76
  Nalpha       = 38
  Nbeta        = 38

  ==> Algorithm <==

  SCF Algorithm Type is PK.
  DIIS enabled.
  MOM disabled.
  Fractional occupation disabled.
  Guess Type is SAD.
  Energy threshold   = 1.00e-06
  Density threshold  = 1.00e-10
  Integral threshold = 0.00e+00

  ==> Primary Basis <==

  Basis Set: CC-PVDZ
    Blend: CC-PVDZ
    Number of shells: 108
    Number of basis function: 220
    Number of Cartesian functions: 230
    Spherical Harmonics?: true
    Max angular momentum: 2

  ==> Pre-Iterations <==

   -------------------------------------------------------
    Irrep   Nso     Nmo     Nalpha   Nbeta   Ndocc  Nsocc
   -------------------------------------------------------
     A        220     220       0       0       0       0
   -------------------------------------------------------
    Total     220     220      38      38      38       0
   -------------------------------------------------------

  ==> Integral Setup <==

  Using integral reordering PK algorithm.
  Sizing the integral batches needed.
  Building batch lookup table.
   Calculation information:
      Number of atoms:                  26
      Number of AO shells:             108
      Number of primitives:            300
      Number of atomic orbitals:       230
      Number of basis functions:       220

      Integral cutoff                 1.00e-12
      Number of threads:                 1

	Batch   1 pq = [       0,    9405] index = [             0,44231715] size =     44231715
	Batch   2 pq = [    9405,   13301] index = [      44231715,88464951] size =     44233236
	Batch   3 pq = [   13301,   16290] index = [      88464951,132690195] size =     44225244
	Batch   4 pq = [   16290,   18810] index = [     132690195,176917455] size =     44227260
	Batch   5 pq = [   18810,   21030] index = [     176917455,221140965] size =     44223510
	Batch   6 pq = [   21030,   23037] index = [     221140965,265363203] size =     44222238
	Batch   7 pq = [   23037,   24310] index = [     265363203,295500205] size =     30137002
  Task number: 27
  Buffer size: 11059200
  Buffer per thread: 2
  We computed 17563200 shell quartets total.
  Whereas there are 17325441 unique shell quartets.
     1.37 percent of shell quartets recomputed by reordering.

  ==> DiskJK: Disk-Based J/K Matrices <==

    J tasked:                  Yes
    K tasked:                  Yes
    wK tasked:                  No
    Memory [MiB]:              375
    Schwarz Cutoff:          1E-12

    OpenMP threads:              1

  Minimum eigenvalue in the overlap matrix is 3.3110343994E-04.
  Using Symmetric Orthogonalization.

  SCF Guess: Superposition of Atomic Densities via on-the-fly atomic UHF.

  ==> Iterations <==

                        Total Energy        Delta E     RMS |[F,P]|

   @RHF iter SAD:  -386.83711267175255   -3.86837e+02   0.00000e+00
   @RHF iter   1:  -387.77479416404742   -9.37681e-01   2.71300e-03 DIIS
   @RHF iter   2:  -387.98762022699754   -2.12826e-01   1.12754e-03 DIIS
   @RHF iter   3:  -388.02127860725886   -3.36584e-02   2.50157e-04 DIIS
   @RHF iter   4:  -388.02410368676874   -2.82508e-03   6.71861e-05 DIIS
   @RHF iter   5:  -388.02423682220501   -1.33135e-04   2.16560e-05 DIIS
   @RHF iter   6:  -388.02425225889596   -1.54367e-05   3.78996e-06 DIIS
   @RHF iter   7:  -388.02425290801170   -6.49116e-07   1.20556e-06 DIIS
   @RHF iter   8:  -388.02425297577906   -6.77674e-08   3.89563e-07 DIIS
   @RHF iter   9:  -388.02425299104152   -1.52625e-08   1.77898e-07 DIIS
   @RHF iter  10:  -388.02425299535577   -4.31424e-09   9.95251e-08 DIIS
   @RHF iter  11:  -388.02425299656477   -1.20900e-09   3.41229e-08 DIIS
   @RHF iter  12:  -388.02425299670199   -1.37220e-10   1.45836e-08 DIIS
   @RHF iter  13:  -388.02425299671427   -1.22782e-11   5.05817e-09 DIIS
   @RHF iter  14:  -388.02425299671586   -1.59162e-12   1.28146e-09 DIIS
   @RHF iter  15:  -388.02425299671518    6.82121e-13   4.87464e-10 DIIS
   @RHF iter  16:  -388.02425299671677   -1.59162e-12   2.15160e-10 DIIS
   @RHF iter  17:  -388.02425299671700   -2.27374e-13   8.80989e-11 DIIS
  Energy and wave function converged.

  ==> Post-Iterations <==

    Orbital Energies [Eh]
    ---------------------

    Doubly Occupied:

       1A    -11.240212     2A    -11.239996     3A    -11.235790
       4A    -11.234294     5A    -11.232211     6A    -11.230853
       7A    -11.229311     8A    -11.223960     9A    -11.209761
      10A    -11.207212    11A     -1.151039    12A     -1.060904
      13A     -1.014643    14A     -1.010642    15A     -0.980893
      16A     -0.861489    17A     -0.829962    18A     -0.823324
      19A     -0.788395    20A     -0.691307    21A     -0.639693
      22A     -0.638248    23A     -0.594572    24A     -0.591441
      25A     -0.588774    26A     -0.586974    27A     -0.579558
      28A     -0.538179    29A     -0.523824    30A     -0.498689
      31A     -0.495155    32A     -0.485806    33A     -0.478640
      34A     -0.474340    35A     -0.470668    36A     -0.466458
      37A     -0.334837    38A     -0.318055

    Virtual:

      39A      0.132583    40A      0.135719    41A      0.175567
      42A      0.199754    43A      0.201395    44A      0.207759
      45A      0.229806    46A      0.238287    47A      0.242361
      48A      0.259461    49A      0.261998    50A      0.268066
      51A      0.280955    52A      0.287215    53A      0.297007
      54A      0.301645    55A      0.308476    56A      0.336974
      57A      0.350277    58A      0.385446    59A      0.404768
      60A      0.412369    61A      0.449034    62A      0.462949
      63A      0.493216    64A      0.499736    65A      0.566636
      66A      0.570132    67A      0.598272    68A      0.600007
      69A      0.609486    70A      0.625351    71A      0.627831
      72A      0.634984    73A      0.678987    74A      0.687925
      75A      0.706230    76A      0.725356    77A      0.735408
      78A      0.737642    79A      0.742698    80A      0.750554
      81A      0.770160    82A      0.780302    83A      0.787368
      84A      0.819142    85A      0.831080    86A      0.849497
      87A      0.857793    88A      0.866688    89A      0.871870
      90A      0.887012    91A      0.889459    92A      0.897505
      93A      0.900012    94A      0.905179    95A      0.908420
      96A      0.915809    97A      0.924002    98A      0.938357
      99A      0.947467   100A      0.953076   101A      0.963708
     102A      0.973279   103A      0.987701   104A      0.994861
     105A      1.018550   106A      1.025770   107A      1.056835
     108A      1.077769   109A      1.113431   110A      1.134327
     111A      1.141213   112A      1.148037   113A      1.156095
     114A      1.160009   115A      1.174435   116A      1.201597
     117A      1.233619   118A      1.252501   119A      1.263309
     120A      1.277403   121A      1.289340   122A      1.310190
     123A      1.316575   124A      1.334921   125A      1.409753
     126A      1.433910   127A      1.443738   128A      1.466122
     129A      1.504080   130A      1.509524   131A      1.544115
     132A      1.599131   133A      1.606304   134A      1.620869
     135A      1.674098   136A      1.681561   137A      1.694189
     138A      1.709716   139A      1.731384   140A      1.749788
     141A      1.763839   142A      1.769206   143A      1.848819
     144A      1.855991   145A      1.862793   146A      1.866906
     147A      1.873727   148A      1.880925   149A      1.885860
     150A      1.894709   151A      1.910366   152A      1.914447
     153A      1.921460   154A      1.927077   155A      1.942948
     156A      1.946592   157A      1.954356   158A      1.960150
     159A      1.965164   160A      1.974480   161A      1.978069
     162A      1.984651   163A      1.998323   164A      2.004153
     165A      2.015241   166A      2.019494   167A      2.027537
     168A      2.057393   169A      2.069911   170A      2.102001
     171A      2.114447   172A      2.133402   173A      2.143023
     174A      2.150419   175A      2.156577   176A      2.162237
     177A      2.188693   178A      2.197675   179A      2.247420
     180A      2.250273   181A      2.277187   182A      2.301717
     183A      2.314586   184A      2.329978   185A      2.331200
     186A      2.342032   187A      2.382211   188A      2.439456
     189A      2.474189   190A      2.477077   191A      2.490956
     192A      2.499407   193A      2.507004   194A      2.543032
     195A      2.571276   196A      2.576767   197A      2.607943
     198A      2.642976   199A      2.753304   200A      2.755931
     201A      2.774766   202A      2.788224   203A      2.794461
     204A      2.808503   205A      2.808794   206A      2.846503
     207A      2.854449   208A      2.868388   209A      2.892806
     210A      2.914133   211A      2.947687   212A      2.966733
     213A      2.989519   214A      3.006704   215A      3.011671
     216A      3.050813   217A      3.183432   218A      3.198280
     219A      3.302695   220A      3.946342

    Final Occupation by Irrep:
              A
    DOCC [    38 ]

  @RHF Final Energy:  -388.02425299671700

   => Energetics <=

    Nuclear Repulsion Energy =            506.7018902472285617
    One-Electron Energy =               -1527.8520666491622251
    Two-Electron Energy =                 633.1259234052166676
    Total Energy =                       -388.0242529967169958

Computation Completed

Properties will be evaluated at   0.000000,   0.000000,   0.000000 [a0]

Properties computed using the SCF density matrix

  Nuclear Dipole Moment: [e a0]
     X:    10.4299      Y:    -0.9474      Z:     0.0863

  Electronic Dipole Moment: [e a0]
     X:   -10.3789      Y:     0.9769      Z:    -0.0064

  Dipole Moment: [e a0]
     X:     0.0510      Y:     0.0295      Z:     0.0798     Total:     0.0992

  Dipole Moment: [D]
     X:     0.1296      Y:     0.0751      Z:     0.2029     Total:     0.2522

*** tstop() called on ds3 at Tue Apr 28 15:29:46 2020
Module time:
	user time   =     125.79 seconds =       2.10 minutes
	system time =      46.95 seconds =       0.78 minutes
	total time  =        199 seconds =       3.32 minutes
Total time:
	user time   =     125.79 seconds =       2.10 minutes
	system time =      46.95 seconds =       0.78 minutes
	total time  =        199 seconds =       3.32 minutes
                                     G D M A

                                 by Anthony Stone

                           version 2.2.06, 22 June 2011

               Distributed Multipoles from Gaussian wavefunctions

Starting at 15:29:46 on 28 Apr 2020

Using SCF density matrix from file ./SSI/SSI-008ILE-058PHE-1-dimer.test.17374.fchk

                         Distributed Multipole Analysis

Standard DMA

Positions and radii in angstrom
Multipole moments in atomic units, ea_0^k for rank k

C          x =  2.790661  y = -0.258413  z = -1.289373 angstrom
           Maximum rank =  0   Radius =  0.650 angstrom
                   Q00  =  -0.230917

C          x =  2.064661  y = -1.230413  z = -2.217373 angstrom
           Maximum rank =  0   Radius =  0.650 angstrom
                   Q00  =  -0.243697

H          x =  2.282661  y =  0.705587  z = -1.268373 angstrom
           Maximum rank =  0   Radius =  0.325 angstrom
                   Q00  =   0.080211

H          x =  2.806661  y = -0.670413  z = -0.280373 angstrom
           Maximum rank =  0   Radius =  0.325 angstrom
                   Q00  =   0.075971

H          x =  3.816661  y = -0.120413  z = -1.628373 angstrom
           Maximum rank =  0   Radius =  0.325 angstrom
                   Q00  =   0.073094

H          x =  1.023661  y = -1.299413  z = -1.899373 angstrom
           Maximum rank =  0   Radius =  0.325 angstrom
                   Q00  =   0.092854

H          x =  2.494661  y = -2.212413  z = -2.047373 angstrom
           Maximum rank =  0   Radius =  0.325 angstrom
                   Q00  =   0.068525

H          x =  2.101731  y = -0.983781  z = -3.288723 angstrom
           Maximum rank =  0   Radius =  0.325 angstrom
                   Q00  =   0.079659

C          x =  0.929661  y =  0.509587  z =  1.718627 angstrom
           Maximum rank =  0   Radius =  0.650 angstrom
                   Q00  =  -0.027158

C          x =  0.455661  y =  0.890587  z =  3.119627 angstrom
           Maximum rank =  0   Radius =  0.650 angstrom
                   Q00  =  -0.228508

C          x = -0.184339  y =  0.262587  z =  0.722627 angstrom
           Maximum rank =  0   Radius =  0.650 angstrom
                   Q00  =  -0.125273

C          x = -0.664339  y =  1.301587  z = -0.084373 angstrom
           Maximum rank =  0   Radius =  0.650 angstrom
                   Q00  =  -0.006837

C          x = -0.725339  y = -1.021413  z =  0.570627 angstrom
           Maximum rank =  0   Radius =  0.650 angstrom
                   Q00  =  -0.054326

C          x = -1.678339  y =  1.088587  z = -1.006373 angstrom
           Maximum rank =  0   Radius =  0.650 angstrom
                   Q00  =  -0.067648

C          x = -1.721339  y = -1.260413  z = -0.364373 angstrom
           Maximum rank =  0   Radius =  0.650 angstrom
                   Q00  =  -0.082083

C          x = -2.201339  y = -0.197413  z = -1.177373 angstrom
           Maximum rank =  0   Radius =  0.650 angstrom
                   Q00  =  -0.099350

H          x =  1.563661  y =  1.304587  z =  1.326627 angstrom
           Maximum rank =  0   Radius =  0.325 angstrom
                   Q00  =   0.067239

H          x =  1.537661  y = -0.393413  z =  1.788627 angstrom
           Maximum rank =  0   Radius =  0.325 angstrom
                   Q00  =   0.063430

H          x = -0.223339  y =  0.115587  z =  3.467627 angstrom
           Maximum rank =  0   Radius =  0.325 angstrom
                   Q00  =   0.084813

H          x = -0.251339  y =  2.292587  z =  0.017627 angstrom
           Maximum rank =  0   Radius =  0.325 angstrom
                   Q00  =   0.054050

H          x = -0.354339  y = -1.832413  z =  1.172627 angstrom
           Maximum rank =  0   Radius =  0.325 angstrom
                   Q00  =   0.056400

H          x = -2.032339  y =  1.900587  z = -1.592373 angstrom
           Maximum rank =  0   Radius =  0.325 angstrom
                   Q00  =   0.066584

H          x = -2.082339  y = -2.266413  z = -0.515373 angstrom
           Maximum rank =  0   Radius =  0.325 angstrom
                   Q00  =   0.068877

H          x = -2.845339  y = -0.364413  z = -2.016373 angstrom
           Maximum rank =  0   Radius =  0.325 angstrom
                   Q00  =   0.068902

H          x = -0.073869  y =  1.854735  z =  3.115107 angstrom
           Maximum rank =  0   Radius =  0.325 angstrom
                   Q00  =   0.084401

H          x =  1.361141  y =  0.958843  z =  3.740467 angstrom
           Maximum rank =  0   Radius =  0.325 angstrom
                   Q00  =   0.080785

Total multipoles referred to origin at
           x =   0.000000,  y =    0.000000,  z =    0.000000 angstrom
                   Q00  =  -0.000000

Finished at 15:29:46 on 28 Apr 2020

  DMA results are available in the Python driver through the
	  variable('DMA DISTRIBUTED MULTIPOLES')
  and
	  variable('DMA TOTAL MULTIPOLES')
  commands.

    Psi4 stopped on: Tuesday, 28 April 2020 03:29PM
    Psi4 wall time for execution: 0:03:19.15

*** Psi4 exiting successfully. Buy a developer a beer!
