                               Psi4 1.3.2 release

  ==> Input File <==

--------------------------------------------------------------------------
import numpy as np
set {scf_type pk
basis cc-pvdz
d_convergence 10
gdma_switch   0
gdma_limit    0
gdma_origin   [ 0.0,  0.0,  0.0 ]
}
molecule test {
    units Angstrom
    0 1
    --
    0 1
    C               -1.337111211625527    -1.827529792575343    -1.712509041150252
    C               -1.660111211625528     0.577470207424657    -1.264509041150252
    N               -0.486111211625528     0.658470207424657    -0.675509041150252
    N               -2.091111211625527    -0.573529792575343    -1.759509041150252
    N               -2.409111211625528     1.658470207424657    -1.351509041150252
    H               -0.032111211625528    -0.169529792575343    -0.299509041150252
    H               -0.169111211625528     1.537470207424657    -0.306509041150252
    H               -2.971111211625527    -0.570529792575343    -2.256509041150252
    H               -3.379111211625528     1.564470207424657    -1.600509041150252
    H               -2.084111211625527     2.530470207424657    -0.963509041150252
    H               -2.039111211625527    -2.663529792575343    -1.683509041150252
    H               -0.739111211625528    -1.877529792575343    -0.802509041150252
    H               -0.695741211625528    -1.941389792575343    -2.598899041150252
    C                3.052888788374473    -0.930529792575343     2.300490958849748
    C                1.942888788374472    -0.089529792575343     1.644490958849748
    O                0.881888788374472    -0.653529792575343     1.276490958849748
    O                2.115888788374472     1.143470207424657     1.508490958849748
    H                3.313888788374472    -0.504529792575343     3.272490958849748
    H                3.943888788374472    -0.894529792575343     1.674490958849748
    H                2.760248788374473    -1.980189792575343     2.450750958849748

}
e, wfn = energy('scf', return_wfn=True)
gdma(wfn)
dmavals = variable('DMA DISTRIBUTED MULTIPOLES')
charges = np.array(dmavals)
print(charges)
np.save('SSI-076ARG-079GLU-1-dimer.npy', np.array(charges))--------------------------------------------------------------------------

*** tstart() called on ds3
*** at Tue Apr 28 09:21:14 2020

   => Loading Basis Set <=

    Name: CC-PVDZ
    Role: ORBITAL
    Keyword: BASIS
    atoms 1-2, 14-15  entry C          line   138 file /theoryfs2/ds/metcalf/miniconda2/envs/tf2gpu/share/psi4/basis/cc-pvdz.gbs
    atoms 3-5         entry N          line   168 file /theoryfs2/ds/metcalf/miniconda2/envs/tf2gpu/share/psi4/basis/cc-pvdz.gbs
    atoms 6-13, 18-20 entry H          line    22 file /theoryfs2/ds/metcalf/miniconda2/envs/tf2gpu/share/psi4/basis/cc-pvdz.gbs
    atoms 16-17       entry O          line   198 file /theoryfs2/ds/metcalf/miniconda2/envs/tf2gpu/share/psi4/basis/cc-pvdz.gbs

         ---------------------------------------------------------
                                   SCF
               by Justin Turney, Rob Parrish, Andy Simmonett
                          and Daniel G. A. Smith
                              RHF Reference
                        1 Threads,    500 MiB Core
         ---------------------------------------------------------

  ==> Geometry <==

    Molecular point group: c1
    Full point group: C1

    Geometry (in Angstrom), charge = 0, multiplicity = 1:

       Center              X                  Y                   Z               Mass
    ------------   -----------------  -----------------  -----------------  -----------------
         C           -1.337111211626    -1.827529792575    -1.712509041150    12.000000000000
         C           -1.660111211626     0.577470207425    -1.264509041150    12.000000000000
         N           -0.486111211626     0.658470207425    -0.675509041150    14.003074004430
         N           -2.091111211626    -0.573529792575    -1.759509041150    14.003074004430
         N           -2.409111211626     1.658470207425    -1.351509041150    14.003074004430
         H           -0.032111211626    -0.169529792575    -0.299509041150     1.007825032230
         H           -0.169111211626     1.537470207425    -0.306509041150     1.007825032230
         H           -2.971111211626    -0.570529792575    -2.256509041150     1.007825032230
         H           -3.379111211626     1.564470207425    -1.600509041150     1.007825032230
         H           -2.084111211626     2.530470207425    -0.963509041150     1.007825032230
         H           -2.039111211626    -2.663529792575    -1.683509041150     1.007825032230
         H           -0.739111211626    -1.877529792575    -0.802509041150     1.007825032230
         H           -0.695741211626    -1.941389792575    -2.598899041150     1.007825032230
         C            3.052888788374    -0.930529792575     2.300490958850    12.000000000000
         C            1.942888788374    -0.089529792575     1.644490958850    12.000000000000
         O            0.881888788374    -0.653529792575     1.276490958850    15.994914619570
         O            2.115888788374     1.143470207425     1.508490958850    15.994914619570
         H            3.313888788374    -0.504529792575     3.272490958850     1.007825032230
         H            3.943888788374    -0.894529792575     1.674490958850     1.007825032230
         H            2.760248788374    -1.980189792575     2.450750958850     1.007825032230

  Running in c1 symmetry.

  Rotational constants: A =      0.09582  B =      0.02025  C =      0.01715 [cm^-1]
  Rotational constants: A =   2872.69721  B =    607.04394  C =    514.24233 [MHz]
  Nuclear repulsion =  449.814605662891040

  Charge       = 0
  Multiplicity = 1
  Electrons    = 72
  Nalpha       = 36
  Nbeta        = 36

  ==> Algorithm <==

  SCF Algorithm Type is PK.
  DIIS enabled.
  MOM disabled.
  Fractional occupation disabled.
  Guess Type is SAD.
  Energy threshold   = 1.00e-06
  Density threshold  = 1.00e-10
  Integral threshold = 0.00e+00

  ==> Primary Basis <==

  Basis Set: CC-PVDZ
    Blend: CC-PVDZ
    Number of shells: 87
    Number of basis function: 181
    Number of Cartesian functions: 190
    Spherical Harmonics?: true
    Max angular momentum: 2

  ==> Pre-Iterations <==

   -------------------------------------------------------
    Irrep   Nso     Nmo     Nalpha   Nbeta   Ndocc  Nsocc
   -------------------------------------------------------
     A        181     181       0       0       0       0
   -------------------------------------------------------
    Total     181     181      36      36      36       0
   -------------------------------------------------------

  ==> Integral Setup <==

  Using integral reordering PK algorithm.
  Sizing the integral batches needed.
  Building batch lookup table.
   Calculation information:
      Number of atoms:                  20
      Number of AO shells:              87
      Number of primitives:            253
      Number of atomic orbitals:       190
      Number of basis functions:       181

      Integral cutoff                 1.00e-12
      Number of threads:                 1

	Batch   1 pq = [       0,    9405] index = [             0,44231715] size =     44231715
	Batch   2 pq = [    9405,   13301] index = [      44231715,88464951] size =     44233236
	Batch   3 pq = [   13301,   16471] index = [      88464951,135655156] size =     47190205
  Task number: 13
  Buffer size: 11059200
  Buffer per thread: 2
  We computed 5589885 shell quartets total.
  Whereas there are 7328706 unique shell quartets.

  ==> DiskJK: Disk-Based J/K Matrices <==

    J tasked:                  Yes
    K tasked:                  Yes
    wK tasked:                  No
    Memory [MiB]:              375
    Schwarz Cutoff:          1E-12

    OpenMP threads:              1

  Minimum eigenvalue in the overlap matrix is 3.9752272634E-03.
  Using Symmetric Orthogonalization.

  SCF Guess: Superposition of Atomic Densities via on-the-fly atomic UHF.

  ==> Iterations <==

                        Total Energy        Delta E     RMS |[F,P]|

   @RHF iter SAD:  -469.65221139856482   -4.69652e+02   0.00000e+00
   @RHF iter   1:  -470.67821995410713   -1.02601e+00   4.30103e-03 DIIS
   @RHF iter   2:  -470.90810345625334   -2.29884e-01   2.28269e-03 DIIS
   @RHF iter   3:  -470.96998936372893   -6.18859e-02   3.98500e-04 DIIS
   @RHF iter   4:  -470.97333113441510   -3.34177e-03   1.39095e-04 DIIS
   @RHF iter   5:  -470.97372969334339   -3.98559e-04   2.67175e-05 DIIS
   @RHF iter   6:  -470.97375021129909   -2.05180e-05   1.26384e-05 DIIS
   @RHF iter   7:  -470.97375329713469   -3.08584e-06   3.25035e-06 DIIS
   @RHF iter   8:  -470.97375371568637   -4.18552e-07   1.43481e-06 DIIS
   @RHF iter   9:  -470.97375378054687   -6.48605e-08   4.81443e-07 DIIS
   @RHF iter  10:  -470.97375379310836   -1.25615e-08   1.84023e-07 DIIS
   @RHF iter  11:  -470.97375379481844   -1.71008e-09   5.70163e-08 DIIS
   @RHF iter  12:  -470.97375379493332   -1.14881e-10   2.01608e-08 DIIS
   @RHF iter  13:  -470.97375379495026   -1.69393e-11   5.26913e-09 DIIS
   @RHF iter  14:  -470.97375379495264   -2.38742e-12   1.56508e-09 DIIS
   @RHF iter  15:  -470.97375379495321   -5.68434e-13   6.47361e-10 DIIS
   @RHF iter  16:  -470.97375379495247    7.38964e-13   2.24891e-10 DIIS
   @RHF iter  17:  -470.97375379495321   -7.38964e-13   9.37314e-11 DIIS
  Energy and wave function converged.

  ==> Post-Iterations <==

    Orbital Energies [Eh]
    ---------------------

    Doubly Occupied:

       1A    -20.403561     2A    -20.390513     3A    -15.660390
       4A    -15.657867     5A    -15.613399     6A    -11.446230
       7A    -11.315728     8A    -11.250404     9A    -11.159139
      10A     -1.408294    11A     -1.285446    12A     -1.274773
      13A     -1.237509    14A     -1.169264    15A     -1.013645
      16A     -0.904475    17A     -0.894899    18A     -0.839361
      19A     -0.807157    20A     -0.721071    21A     -0.699871
      22A     -0.686758    23A     -0.666173    24A     -0.623997
      25A     -0.614843    26A     -0.595034    27A     -0.533833
      28A     -0.524843    29A     -0.520299    30A     -0.474490
      31A     -0.464198    32A     -0.447594    33A     -0.432739
      34A     -0.320542    35A     -0.304438    36A     -0.299890

    Virtual:

      37A      0.107295    38A      0.146546    39A      0.159672
      40A      0.170234    41A      0.201580    42A      0.229905
      43A      0.247225    44A      0.261842    45A      0.267001
      46A      0.293220    47A      0.304570    48A      0.319842
      49A      0.364140    50A      0.385827    51A      0.414658
      52A      0.462284    53A      0.469657    54A      0.483315
      55A      0.556159    56A      0.566654    57A      0.592506
      58A      0.610877    59A      0.641770    60A      0.671156
      61A      0.671770    62A      0.692887    63A      0.694042
      64A      0.716154    65A      0.749012    66A      0.772746
      67A      0.789728    68A      0.810672    69A      0.823233
      70A      0.827303    71A      0.848714    72A      0.857689
      73A      0.880714    74A      0.884615    75A      0.914753
      76A      0.927281    77A      0.934480    78A      0.937358
      79A      0.951678    80A      0.961927    81A      0.976002
      82A      1.000731    83A      1.011409    84A      1.040274
      85A      1.051545    86A      1.084811    87A      1.109345
      88A      1.140844    89A      1.175611    90A      1.216805
      91A      1.236524    92A      1.241037    93A      1.252483
      94A      1.277685    95A      1.313417    96A      1.335908
      97A      1.356626    98A      1.402807    99A      1.434011
     100A      1.447577   101A      1.463456   102A      1.494789
     103A      1.504225   104A      1.526849   105A      1.542659
     106A      1.595928   107A      1.607538   108A      1.617824
     109A      1.648450   110A      1.660043   111A      1.676498
     112A      1.700762   113A      1.729055   114A      1.744288
     115A      1.767947   116A      1.783138   117A      1.841821
     118A      1.863197   119A      1.870673   120A      1.886917
     121A      1.900009   122A      1.922886   123A      1.950172
     124A      1.964649   125A      1.971590   126A      1.975064
     127A      1.993684   128A      2.002533   129A      2.010703
     130A      2.047798   131A      2.104811   132A      2.119204
     133A      2.141567   134A      2.153261   135A      2.165724
     136A      2.192085   137A      2.242319   138A      2.273708
     139A      2.287495   140A      2.317862   141A      2.335117
     142A      2.368316   143A      2.391174   144A      2.410462
     145A      2.457335   146A      2.494838   147A      2.509931
     148A      2.533207   149A      2.548263   150A      2.574588
     151A      2.601944   152A      2.621987   153A      2.651099
     154A      2.677066   155A      2.725610   156A      2.737164
     157A      2.810221   158A      2.816755   159A      2.858436
     160A      2.873427   161A      2.877597   162A      2.891149
     163A      2.933376   164A      2.951436   165A      3.008170
     166A      3.023323   167A      3.106263   168A      3.141145
     169A      3.154705   170A      3.201532   171A      3.220732
     172A      3.237491   173A      3.306967   174A      3.501030
     175A      3.633781   176A      3.676528   177A      3.702774
     178A      3.794346   179A      3.934344   180A      3.944336
     181A      4.066999

    Final Occupation by Irrep:
              A
    DOCC [    36 ]

  @RHF Final Energy:  -470.97375379495321

   => Energetics <=

    Nuclear Repulsion Energy =            449.8146056628910401
    One-Electron Energy =               -1536.2513829451977472
    Two-Electron Energy =                 615.4630234873534391
    Total Energy =                       -470.9737537949531543

Computation Completed

Properties will be evaluated at   0.000000,   0.000000,   0.000000 [a0]

Properties computed using the SCF density matrix

  Nuclear Dipole Moment: [e a0]
     X:    -1.9318      Y:    -4.6613      Z:    -2.8946

  Electronic Dipole Moment: [e a0]
     X:    -2.7907      Y:     4.7061      Z:    -0.8573

  Dipole Moment: [e a0]
     X:    -4.7226      Y:     0.0448      Z:    -3.7520     Total:     6.0318

  Dipole Moment: [D]
     X:   -12.0036      Y:     0.1138      Z:    -9.5366     Total:    15.3312

*** tstop() called on ds3 at Tue Apr 28 09:22:16 2020
Module time:
	user time   =      42.78 seconds =       0.71 minutes
	system time =      21.58 seconds =       0.36 minutes
	total time  =         62 seconds =       1.03 minutes
Total time:
	user time   =      42.78 seconds =       0.71 minutes
	system time =      21.58 seconds =       0.36 minutes
	total time  =         62 seconds =       1.03 minutes
                                     G D M A

                                 by Anthony Stone

                           version 2.2.06, 22 June 2011

               Distributed Multipoles from Gaussian wavefunctions

Starting at 9:22:16 on 28 Apr 2020

Using SCF density matrix from file ./SSI/SSI-076ARG-079GLU-1-dimer.test.10293.fchk

                         Distributed Multipole Analysis

Standard DMA

Positions and radii in angstrom
Multipole moments in atomic units, ea_0^k for rank k

C          x = -1.337111  y = -1.827530  z = -1.712509 angstrom
           Maximum rank =  0   Radius =  0.650 angstrom
                   Q00  =  -0.103868

C          x = -1.660111  y =  0.577470  z = -1.264509 angstrom
           Maximum rank =  0   Radius =  0.650 angstrom
                   Q00  =   1.066288

N          x = -0.486111  y =  0.658470  z = -0.675509 angstrom
           Maximum rank =  0   Radius =  0.650 angstrom
                   Q00  =  -0.586459

N          x = -2.091111  y = -0.573530  z = -1.759509 angstrom
           Maximum rank =  0   Radius =  0.650 angstrom
                   Q00  =  -0.480968

N          x = -2.409111  y =  1.658470  z = -1.351509 angstrom
           Maximum rank =  0   Radius =  0.650 angstrom
                   Q00  =  -0.584371

H          x = -0.032111  y = -0.169530  z = -0.299509 angstrom
           Maximum rank =  0   Radius =  0.325 angstrom
                   Q00  =   0.311223

H          x = -0.169111  y =  1.537470  z = -0.306509 angstrom
           Maximum rank =  0   Radius =  0.325 angstrom
                   Q00  =   0.254353

H          x = -2.971111  y = -0.570530  z = -2.256509 angstrom
           Maximum rank =  0   Radius =  0.325 angstrom
                   Q00  =   0.203752

H          x = -3.379111  y =  1.564470  z = -1.600509 angstrom
           Maximum rank =  0   Radius =  0.325 angstrom
                   Q00  =   0.233191

H          x = -2.084111  y =  2.530470  z = -0.963509 angstrom
           Maximum rank =  0   Radius =  0.325 angstrom
                   Q00  =   0.254835

H          x = -2.039111  y = -2.663530  z = -1.683509 angstrom
           Maximum rank =  0   Radius =  0.325 angstrom
                   Q00  =   0.126534

H          x = -0.739111  y = -1.877530  z = -0.802509 angstrom
           Maximum rank =  0   Radius =  0.325 angstrom
                   Q00  =   0.138612

H          x = -0.695741  y = -1.941390  z = -2.598899 angstrom
           Maximum rank =  0   Radius =  0.325 angstrom
                   Q00  =   0.112458

C          x =  3.052889  y = -0.930530  z =  2.300491 angstrom
           Maximum rank =  0   Radius =  0.650 angstrom
                   Q00  =  -0.273453

C          x =  1.942889  y = -0.089530  z =  1.644491 angstrom
           Maximum rank =  0   Radius =  0.650 angstrom
                   Q00  =   0.904738

O          x =  0.881889  y = -0.653530  z =  1.276491 angstrom
           Maximum rank =  0   Radius =  0.650 angstrom
                   Q00  =  -0.937154

O          x =  2.115889  y =  1.143470  z =  1.508491 angstrom
           Maximum rank =  0   Radius =  0.650 angstrom
                   Q00  =  -0.895709

H          x =  3.313889  y = -0.504530  z =  3.272491 angstrom
           Maximum rank =  0   Radius =  0.325 angstrom
                   Q00  =   0.095437

H          x =  3.943889  y = -0.894530  z =  1.674491 angstrom
           Maximum rank =  0   Radius =  0.325 angstrom
                   Q00  =   0.092338

H          x =  2.760249  y = -1.980190  z =  2.450751 angstrom
           Maximum rank =  0   Radius =  0.325 angstrom
                   Q00  =   0.068221

Total multipoles referred to origin at
           x =   0.000000,  y =    0.000000,  z =    0.000000 angstrom
                   Q00  =  -0.000000

Finished at 9:22:16 on 28 Apr 2020

  DMA results are available in the Python driver through the
	  variable('DMA DISTRIBUTED MULTIPOLES')
  and
	  variable('DMA TOTAL MULTIPOLES')
  commands.

    Psi4 stopped on: Tuesday, 28 April 2020 09:22AM
    Psi4 wall time for execution: 0:01:01.75

*** Psi4 exiting successfully. Buy a developer a beer!
