                               Psi4 1.3.2 release

  ==> Input File <==

--------------------------------------------------------------------------
import numpy as np
set {scf_type pk
basis cc-pvdz
d_convergence 10
gdma_switch   0
gdma_limit    0
gdma_origin   [ 0.0,  0.0,  0.0 ]
}
molecule test {
    units Angstrom
    0 1
    --
    0 1
    C                3.556418833023987     0.951390895001104     0.972709989650111
    C                3.046418833023987     2.325390895001104     0.480709989650111
    H                4.535418833023986     1.063390895001104     1.441709989650111
    H                2.889418833023986     0.494390895001104     1.693709989650111
    H                3.643418833023987     0.248390895001104     0.144709989650111
    H                2.107418833023987     2.183390895001105    -0.058290010349889
    H                3.800688833023986     2.759882895001104    -0.191821010349889
    H                2.872818833023986     2.996128895001104     1.335093989650111
    C               -3.028581166976013     0.552390895001105     0.784709989650111
    C                0.535418833023986    -0.704609104998896     0.193709989650111
    C                0.401418833023986    -1.361609104998896    -1.014290010349889
    C               -0.581581166976013    -0.073609104998896     0.777709989650111
    C               -1.825581166976014    -0.103609104998896     0.149709989650111
    C               -0.842581166976014    -1.406609104998896    -1.638290010349889
    C               -1.955581166976014    -0.768609104998896    -1.048290010349889
    H                1.481418833023986    -0.724609104998896     0.703709989650111
    H                1.251418833023986    -1.863609104998896    -1.458290010349889
    H               -0.468581166976014     0.431390895001104     1.725709989650111
    H               -0.957581166976014    -1.966609104998896    -2.548290010349889
    H               -3.553581166976013     1.130390895001105     0.023709989650111
    H               -2.685581166976013     1.253390895001104     1.545709989650111
    H               -2.922581166976014    -0.820609104998895    -1.526290010349889
    H               -3.728031166976014    -0.166451104998896     1.236409989650111

}
e, wfn = energy('scf', return_wfn=True)
gdma(wfn)
dmavals = variable('DMA DISTRIBUTED MULTIPOLES')
charges = np.array(dmavals)
print(charges)
np.save('SSI-041ILE-061PHE-1-dimer.npy', np.array(charges))--------------------------------------------------------------------------

*** tstart() called on ds3
*** at Mon Apr 27 23:49:38 2020

   => Loading Basis Set <=

    Name: CC-PVDZ
    Role: ORBITAL
    Keyword: BASIS
    atoms 1-2, 9-15  entry C          line   138 file /theoryfs2/ds/metcalf/miniconda2/envs/tf2gpu/share/psi4/basis/cc-pvdz.gbs
    atoms 3-8, 16-23 entry H          line    22 file /theoryfs2/ds/metcalf/miniconda2/envs/tf2gpu/share/psi4/basis/cc-pvdz.gbs

         ---------------------------------------------------------
                                   SCF
               by Justin Turney, Rob Parrish, Andy Simmonett
                          and Daniel G. A. Smith
                              RHF Reference
                        1 Threads,    500 MiB Core
         ---------------------------------------------------------

  ==> Geometry <==

    Molecular point group: c1
    Full point group: C1

    Geometry (in Angstrom), charge = 0, multiplicity = 1:

       Center              X                  Y                   Z               Mass
    ------------   -----------------  -----------------  -----------------  -----------------
         C            3.556418833024     0.951390895001     0.972709989650    12.000000000000
         C            3.046418833024     2.325390895001     0.480709989650    12.000000000000
         H            4.535418833024     1.063390895001     1.441709989650     1.007825032230
         H            2.889418833024     0.494390895001     1.693709989650     1.007825032230
         H            3.643418833024     0.248390895001     0.144709989650     1.007825032230
         H            2.107418833024     2.183390895001    -0.058290010350     1.007825032230
         H            3.800688833024     2.759882895001    -0.191821010350     1.007825032230
         H            2.872818833024     2.996128895001     1.335093989650     1.007825032230
         C           -3.028581166976     0.552390895001     0.784709989650    12.000000000000
         C            0.535418833024    -0.704609104999     0.193709989650    12.000000000000
         C            0.401418833024    -1.361609104999    -1.014290010350    12.000000000000
         C           -0.581581166976    -0.073609104999     0.777709989650    12.000000000000
         C           -1.825581166976    -0.103609104999     0.149709989650    12.000000000000
         C           -0.842581166976    -1.406609104999    -1.638290010350    12.000000000000
         C           -1.955581166976    -0.768609104999    -1.048290010350    12.000000000000
         H            1.481418833024    -0.724609104999     0.703709989650     1.007825032230
         H            1.251418833024    -1.863609104999    -1.458290010350     1.007825032230
         H           -0.468581166976     0.431390895001     1.725709989650     1.007825032230
         H           -0.957581166976    -1.966609104999    -2.548290010350     1.007825032230
         H           -3.553581166976     1.130390895001     0.023709989650     1.007825032230
         H           -2.685581166976     1.253390895001     1.545709989650     1.007825032230
         H           -2.922581166976    -0.820609104999    -1.526290010350     1.007825032230
         H           -3.728031166976    -0.166451104999     1.236409989650     1.007825032230

  Running in c1 symmetry.

  Rotational constants: A =      0.07747  B =      0.02407  C =      0.02000 [cm^-1]
  Rotational constants: A =   2322.47614  B =    721.66032  C =    599.65088 [MHz]
  Nuclear repulsion =  405.696707334583891

  Charge       = 0
  Multiplicity = 1
  Electrons    = 68
  Nalpha       = 34
  Nbeta        = 34

  ==> Algorithm <==

  SCF Algorithm Type is PK.
  DIIS enabled.
  MOM disabled.
  Fractional occupation disabled.
  Guess Type is SAD.
  Energy threshold   = 1.00e-06
  Density threshold  = 1.00e-10
  Integral threshold = 0.00e+00

  ==> Primary Basis <==

  Basis Set: CC-PVDZ
    Blend: CC-PVDZ
    Number of shells: 96
    Number of basis function: 196
    Number of Cartesian functions: 205
    Spherical Harmonics?: true
    Max angular momentum: 2

  ==> Pre-Iterations <==

   -------------------------------------------------------
    Irrep   Nso     Nmo     Nalpha   Nbeta   Ndocc  Nsocc
   -------------------------------------------------------
     A        196     196       0       0       0       0
   -------------------------------------------------------
    Total     196     196      34      34      34       0
   -------------------------------------------------------

  ==> Integral Setup <==

  Using integral reordering PK algorithm.
  Sizing the integral batches needed.
  Building batch lookup table.
   Calculation information:
      Number of atoms:                  23
      Number of AO shells:              96
      Number of primitives:            268
      Number of atomic orbitals:       205
      Number of basis functions:       196

      Integral cutoff                 1.00e-12
      Number of threads:                 1

	Batch   1 pq = [       0,    9405] index = [             0,44231715] size =     44231715
	Batch   2 pq = [    9405,   13301] index = [      44231715,88464951] size =     44233236
	Batch   3 pq = [   13301,   16290] index = [      88464951,132690195] size =     44225244
	Batch   4 pq = [   16290,   18810] index = [     132690195,176917455] size =     44227260
	Batch   5 pq = [   18810,   19306] index = [     176917455,186370471] size =      9453016
  Task number: 17
  Buffer size: 11059200
  Buffer per thread: 2
  We computed 9197190 shell quartets total.
  Whereas there are 10841496 unique shell quartets.

  ==> DiskJK: Disk-Based J/K Matrices <==

    J tasked:                  Yes
    K tasked:                  Yes
    wK tasked:                  No
    Memory [MiB]:              375
    Schwarz Cutoff:          1E-12

    OpenMP threads:              1

  Minimum eigenvalue in the overlap matrix is 3.0959997204E-04.
  Using Symmetric Orthogonalization.

  SCF Guess: Superposition of Atomic Densities via on-the-fly atomic UHF.

  ==> Iterations <==

                        Total Energy        Delta E     RMS |[F,P]|

   @RHF iter SAD:  -347.84546295532829   -3.47845e+02   0.00000e+00
   @RHF iter   1:  -348.76808139751074   -9.22618e-01   2.86752e-03 DIIS
   @RHF iter   2:  -348.95850698692459   -1.90426e-01   1.18223e-03 DIIS
   @RHF iter   3:  -348.98789771727968   -2.93907e-02   2.58873e-04 DIIS
   @RHF iter   4:  -348.99036702966583   -2.46931e-03   5.51243e-05 DIIS
   @RHF iter   5:  -348.99044459432258   -7.75647e-05   1.89090e-05 DIIS
   @RHF iter   6:  -348.99045325721147   -8.66289e-06   4.87434e-06 DIIS
   @RHF iter   7:  -348.99045394062415   -6.83413e-07   1.23482e-06 DIIS
   @RHF iter   8:  -348.99045399070667   -5.00825e-08   3.15148e-07 DIIS
   @RHF iter   9:  -348.99045399671490   -6.00824e-09   1.33906e-07 DIIS
   @RHF iter  10:  -348.99045399816742   -1.45252e-09   7.08950e-08 DIIS
   @RHF iter  11:  -348.99045399869249   -5.25063e-10   2.76888e-08 DIIS
   @RHF iter  12:  -348.99045399877133   -7.88418e-11   1.24239e-08 DIIS
   @RHF iter  13:  -348.99045399878383   -1.25056e-11   4.42063e-09 DIIS
   @RHF iter  14:  -348.99045399878287    9.66338e-13   1.13294e-09 DIIS
   @RHF iter  15:  -348.99045399878315   -2.84217e-13   3.66153e-10 DIIS
   @RHF iter  16:  -348.99045399878378   -6.25278e-13   1.33967e-10 DIIS
   @RHF iter  17:  -348.99045399878275    1.02318e-12   5.76925e-11 DIIS
  Energy and wave function converged.

  ==> Post-Iterations <==

    Orbital Energies [Eh]
    ---------------------

    Doubly Occupied:

       1A    -11.238595     2A    -11.236715     3A    -11.233877
       4A    -11.231768     5A    -11.230125     6A    -11.230020
       7A    -11.229460     8A    -11.219785     9A    -11.217979
      10A     -1.151453    11A     -1.046051    12A     -1.014084
      13A     -1.005633    14A     -0.931461    15A     -0.840295
      16A     -0.828198    17A     -0.792002    18A     -0.690613
      19A     -0.633203    20A     -0.629662    21A     -0.598239
      22A     -0.593682    23A     -0.577136    24A     -0.576365
      25A     -0.563843    26A     -0.534766    27A     -0.499469
      28A     -0.490868    29A     -0.486703    30A     -0.485200
      31A     -0.483155    32A     -0.476949    33A     -0.327828
      34A     -0.324759

    Virtual:

      35A      0.132253    36A      0.143169    37A      0.174469
      38A      0.196013    39A      0.204129    40A      0.223854
      41A      0.225999    42A      0.241796    43A      0.257812
      44A      0.260265    45A      0.268360    46A      0.275126
      47A      0.284619    48A      0.291316    49A      0.308955
      50A      0.331774    51A      0.366879    52A      0.380484
      53A      0.390979    54A      0.452229    55A      0.465808
      56A      0.481165    57A      0.503640    58A      0.561495
      59A      0.584068    60A      0.596567    61A      0.607528
      62A      0.612484    63A      0.635837    64A      0.680140
      65A      0.689195    66A      0.691279    67A      0.696705
      68A      0.711678    69A      0.727317    70A      0.741372
      71A      0.750399    72A      0.754625    73A      0.761393
      74A      0.776382    75A      0.782079    76A      0.795378
      77A      0.833613    78A      0.837851    79A      0.845272
      80A      0.864466    81A      0.877288    82A      0.883867
      83A      0.893712    84A      0.895427    85A      0.901348
      86A      0.903822    87A      0.913387    88A      0.925699
      89A      0.933539    90A      0.941254    91A      0.964281
      92A      0.976260    93A      0.977652    94A      0.995325
      95A      1.032997    96A      1.059112    97A      1.111396
      98A      1.129723    99A      1.147507   100A      1.150348
     101A      1.154117   102A      1.170781   103A      1.205435
     104A      1.217031   105A      1.245302   106A      1.251429
     107A      1.258896   108A      1.266356   109A      1.301604
     110A      1.309672   111A      1.325722   112A      1.332566
     113A      1.416778   114A      1.464009   115A      1.480232
     116A      1.510273   117A      1.520926   118A      1.556378
     119A      1.584296   120A      1.618710   121A      1.674223
     122A      1.680863   123A      1.695780   124A      1.705554
     125A      1.731769   126A      1.747252   127A      1.764259
     128A      1.792388   129A      1.809342   130A      1.859109
     131A      1.869257   132A      1.873301   133A      1.880613
     134A      1.888954   135A      1.895670   136A      1.906713
     137A      1.922681   138A      1.929711   139A      1.940758
     140A      1.943166   141A      1.946062   142A      1.949721
     143A      1.955802   144A      1.963089   145A      1.973378
     146A      1.987716   147A      1.996704   148A      2.023167
     149A      2.046717   150A      2.063586   151A      2.080680
     152A      2.100468   153A      2.109643   154A      2.114690
     155A      2.132431   156A      2.162896   157A      2.166370
     158A      2.174052   159A      2.197585   160A      2.247710
     161A      2.283866   162A      2.284917   163A      2.297869
     164A      2.306415   165A      2.324665   166A      2.337738
     167A      2.341201   168A      2.453230   169A      2.457477
     170A      2.466185   171A      2.477818   172A      2.514970
     173A      2.535158   174A      2.562431   175A      2.573742
     176A      2.629700   177A      2.747855   178A      2.757382
     179A      2.765881   180A      2.772172   181A      2.786513
     182A      2.792954   183A      2.823282   184A      2.844858
     185A      2.849535   186A      2.864677   187A      2.876476
     188A      2.956593   189A      2.967757   190A      2.971688
     191A      3.008516   192A      3.036169   193A      3.156022
     194A      3.197656   195A      3.302893   196A      3.962607

    Final Occupation by Irrep:
              A
    DOCC [    34 ]

  @RHF Final Energy:  -348.99045399878275

   => Energetics <=

    Nuclear Repulsion Energy =            405.6967073345838912
    One-Electron Energy =               -1274.0744414415005394
    Two-Electron Energy =                 519.3872801081339503
    Total Energy =                       -348.9904539987827548

Computation Completed

Properties will be evaluated at   0.000000,   0.000000,   0.000000 [a0]

Properties computed using the SCF density matrix

  Nuclear Dipole Moment: [e a0]
     X:     7.7492      Y:     6.5800      Z:     3.8132

  Electronic Dipole Moment: [e a0]
     X:    -7.8651      Y:    -6.5667      Z:    -3.7653

  Dipole Moment: [e a0]
     X:    -0.1159      Y:     0.0133      Z:     0.0478     Total:     0.1261

  Dipole Moment: [D]
     X:    -0.2946      Y:     0.0337      Z:     0.1216     Total:     0.3205

*** tstop() called on ds3 at Mon Apr 27 23:51:15 2020
Module time:
	user time   =      71.00 seconds =       1.18 minutes
	system time =      30.65 seconds =       0.51 minutes
	total time  =         97 seconds =       1.62 minutes
Total time:
	user time   =      71.00 seconds =       1.18 minutes
	system time =      30.65 seconds =       0.51 minutes
	total time  =         97 seconds =       1.62 minutes
                                     G D M A

                                 by Anthony Stone

                           version 2.2.06, 22 June 2011

               Distributed Multipoles from Gaussian wavefunctions

Starting at 23:51:15 on 27 Apr 2020

Using SCF density matrix from file ./SSI/SSI-041ILE-061PHE-1-dimer.test.4228.fchk

                         Distributed Multipole Analysis

Standard DMA

Positions and radii in angstrom
Multipole moments in atomic units, ea_0^k for rank k

C          x =  3.556419  y =  0.951391  z =  0.972710 angstrom
           Maximum rank =  0   Radius =  0.650 angstrom
                   Q00  =  -0.248651

C          x =  3.046419  y =  2.325391  z =  0.480710 angstrom
           Maximum rank =  0   Radius =  0.650 angstrom
                   Q00  =  -0.232627

H          x =  4.535419  y =  1.063391  z =  1.441710 angstrom
           Maximum rank =  0   Radius =  0.325 angstrom
                   Q00  =   0.079442

H          x =  2.889419  y =  0.494391  z =  1.693710 angstrom
           Maximum rank =  0   Radius =  0.325 angstrom
                   Q00  =   0.075199

H          x =  3.643419  y =  0.248391  z =  0.144710 angstrom
           Maximum rank =  0   Radius =  0.325 angstrom
                   Q00  =   0.078154

H          x =  2.107419  y =  2.183391  z = -0.058290 angstrom
           Maximum rank =  0   Radius =  0.325 angstrom
                   Q00  =   0.089893

H          x =  3.800689  y =  2.759883  z = -0.191821 angstrom
           Maximum rank =  0   Radius =  0.325 angstrom
                   Q00  =   0.080687

H          x =  2.872819  y =  2.996129  z =  1.335094 angstrom
           Maximum rank =  0   Radius =  0.325 angstrom
                   Q00  =   0.079394

C          x = -3.028581  y =  0.552391  z =  0.784710 angstrom
           Maximum rank =  0   Radius =  0.650 angstrom
                   Q00  =  -0.208709

C          x =  0.535419  y = -0.704609  z =  0.193710 angstrom
           Maximum rank =  0   Radius =  0.650 angstrom
                   Q00  =  -0.080387

C          x =  0.401419  y = -1.361609  z = -1.014290 angstrom
           Maximum rank =  0   Radius =  0.650 angstrom
                   Q00  =  -0.077169

C          x = -0.581581  y = -0.073609  z =  0.777710 angstrom
           Maximum rank =  0   Radius =  0.650 angstrom
                   Q00  =   0.002389

C          x = -1.825581  y = -0.103609  z =  0.149710 angstrom
           Maximum rank =  0   Radius =  0.650 angstrom
                   Q00  =  -0.096130

C          x = -0.842581  y = -1.406609  z = -1.638290 angstrom
           Maximum rank =  0   Radius =  0.650 angstrom
                   Q00  =  -0.062463

C          x = -1.955581  y = -0.768609  z = -1.048290 angstrom
           Maximum rank =  0   Radius =  0.650 angstrom
                   Q00  =  -0.091700

H          x =  1.481419  y = -0.724609  z =  0.703710 angstrom
           Maximum rank =  0   Radius =  0.325 angstrom
                   Q00  =   0.070989

H          x =  1.251419  y = -1.863609  z = -1.458290 angstrom
           Maximum rank =  0   Radius =  0.325 angstrom
                   Q00  =   0.059731

H          x = -0.468581  y =  0.431391  z =  1.725710 angstrom
           Maximum rank =  0   Radius =  0.325 angstrom
                   Q00  =   0.057972

H          x = -0.957581  y = -1.966609  z = -2.548290 angstrom
           Maximum rank =  0   Radius =  0.325 angstrom
                   Q00  =   0.066037

H          x = -3.553581  y =  1.130391  z =  0.023710 angstrom
           Maximum rank =  0   Radius =  0.325 angstrom
                   Q00  =   0.099361

H          x = -2.685581  y =  1.253391  z =  1.545710 angstrom
           Maximum rank =  0   Radius =  0.325 angstrom
                   Q00  =   0.097683

H          x = -2.922581  y = -0.820609  z = -1.526290 angstrom
           Maximum rank =  0   Radius =  0.325 angstrom
                   Q00  =   0.055902

H          x = -3.728031  y = -0.166451  z =  1.236410 angstrom
           Maximum rank =  0   Radius =  0.325 angstrom
                   Q00  =   0.105003

Total multipoles referred to origin at
           x =   0.000000,  y =    0.000000,  z =    0.000000 angstrom
                   Q00  =  -0.000000

Finished at 23:51:15 on 27 Apr 2020

  DMA results are available in the Python driver through the
	  variable('DMA DISTRIBUTED MULTIPOLES')
  and
	  variable('DMA TOTAL MULTIPOLES')
  commands.

    Psi4 stopped on: Monday, 27 April 2020 11:51PM
    Psi4 wall time for execution: 0:01:36.95

*** Psi4 exiting successfully. Buy a developer a beer!
