                               Psi4 1.3.2 release

  ==> Input File <==

--------------------------------------------------------------------------
import numpy as np
set {scf_type pk
basis cc-pvdz
d_convergence 10
gdma_switch   0
gdma_limit    0
gdma_origin   [ 0.0,  0.0,  0.0 ]
}
molecule test {
    units Angstrom
    0 1
    --
    0 1
    C                1.229768668815178    -0.904936049923837     0.680546733381474
    C                1.742768668815178    -0.443936049923837     2.041546733381474
    H                1.119768668815178    -1.987936049923837     0.650546733381474
    H                0.250768668815178    -0.463936049923837     0.519546733381474
    H                1.910768668815178    -0.586936049923837    -0.109453266618526
    H                1.045768668815178    -0.782936049923837     2.808546733381474
    H                2.737248668815178    -0.870966049923837     2.238139033381474
    H                1.794188668815178     0.654703950076163     2.060376333381474
    C               -1.636231331184822    -0.029936049923837    -1.618453266618526
    C               -1.335231331184822     1.380063950076163    -1.106453266618526
    H               -1.817231331184822     0.004063950076163    -2.692453266618526
    H               -0.788231331184822    -0.681936049923837    -1.432453266618526
    H               -2.502231331184822    -0.450936049923837    -1.113453266618526
    H               -1.212231331184822     1.337063950076163    -0.025453266618526
    H               -2.163561331184822     2.062813950076163    -1.346705266618526
    H               -0.387821331184822     1.751983950076163    -1.523689266618526

}
e, wfn = energy('scf', return_wfn=True)
gdma(wfn)
dmavals = variable('DMA DISTRIBUTED MULTIPOLES')
charges = np.array(dmavals)
print(charges)
np.save('SSI-030VAL-044LEU-1-dimer.npy', np.array(charges))--------------------------------------------------------------------------

*** tstart() called on ds3
*** at Tue Apr 28 03:12:06 2020

   => Loading Basis Set <=

    Name: CC-PVDZ
    Role: ORBITAL
    Keyword: BASIS
    atoms 1-2, 9-10  entry C          line   138 file /theoryfs2/ds/metcalf/miniconda2/envs/tf2gpu/share/psi4/basis/cc-pvdz.gbs
    atoms 3-8, 11-16 entry H          line    22 file /theoryfs2/ds/metcalf/miniconda2/envs/tf2gpu/share/psi4/basis/cc-pvdz.gbs

         ---------------------------------------------------------
                                   SCF
               by Justin Turney, Rob Parrish, Andy Simmonett
                          and Daniel G. A. Smith
                              RHF Reference
                        1 Threads,    500 MiB Core
         ---------------------------------------------------------

  ==> Geometry <==

    Molecular point group: c1
    Full point group: C1

    Geometry (in Angstrom), charge = 0, multiplicity = 1:

       Center              X                  Y                   Z               Mass
    ------------   -----------------  -----------------  -----------------  -----------------
         C            1.229768668815    -0.904936049924     0.680546733381    12.000000000000
         C            1.742768668815    -0.443936049924     2.041546733381    12.000000000000
         H            1.119768668815    -1.987936049924     0.650546733381     1.007825032230
         H            0.250768668815    -0.463936049924     0.519546733381     1.007825032230
         H            1.910768668815    -0.586936049924    -0.109453266619     1.007825032230
         H            1.045768668815    -0.782936049924     2.808546733381     1.007825032230
         H            2.737248668815    -0.870966049924     2.238139033381     1.007825032230
         H            1.794188668815     0.654703950076     2.060376333381     1.007825032230
         C           -1.636231331185    -0.029936049924    -1.618453266619    12.000000000000
         C           -1.335231331185     1.380063950076    -1.106453266619    12.000000000000
         H           -1.817231331185     0.004063950076    -2.692453266619     1.007825032230
         H           -0.788231331185    -0.681936049924    -1.432453266619     1.007825032230
         H           -2.502231331185    -0.450936049924    -1.113453266619     1.007825032230
         H           -1.212231331185     1.337063950076    -0.025453266619     1.007825032230
         H           -2.163561331185     2.062813950076    -1.346705266619     1.007825032230
         H           -0.387821331185     1.751983950076    -1.523689266619     1.007825032230

  Running in c1 symmetry.

  Rotational constants: A =      0.41978  B =      0.05708  C =      0.05280 [cm^-1]
  Rotational constants: A =  12584.66036  B =   1711.32853  C =   1582.77008 [MHz]
  Nuclear repulsion =  124.617693128336469

  Charge       = 0
  Multiplicity = 1
  Electrons    = 36
  Nalpha       = 18
  Nbeta        = 18

  ==> Algorithm <==

  SCF Algorithm Type is PK.
  DIIS enabled.
  MOM disabled.
  Fractional occupation disabled.
  Guess Type is SAD.
  Energy threshold   = 1.00e-06
  Density threshold  = 1.00e-10
  Integral threshold = 0.00e+00

  ==> Primary Basis <==

  Basis Set: CC-PVDZ
    Blend: CC-PVDZ
    Number of shells: 60
    Number of basis function: 116
    Number of Cartesian functions: 120
    Spherical Harmonics?: true
    Max angular momentum: 2

  ==> Pre-Iterations <==

   -------------------------------------------------------
    Irrep   Nso     Nmo     Nalpha   Nbeta   Ndocc  Nsocc
   -------------------------------------------------------
     A        116     116       0       0       0       0
   -------------------------------------------------------
    Total     116     116      18      18      18       0
   -------------------------------------------------------

  ==> Integral Setup <==

  Using integral reordering PK algorithm.
  Sizing the integral batches needed.
  Building batch lookup table.
   Calculation information:
      Number of atoms:                  16
      Number of AO shells:              60
      Number of primitives:            148
      Number of atomic orbitals:       120
      Number of basis functions:       116

      Integral cutoff                 1.00e-12
      Number of threads:                 1

	Batch   1 pq = [       0,    6786] index = [             0,23028291] size =     23028291
  Task number: 3
  Buffer size: 11059200
  Buffer per thread: 2
  We computed 1525008 shell quartets total.
  Whereas there are 1675365 unique shell quartets.

  ==> DiskJK: Disk-Based J/K Matrices <==

    J tasked:                  Yes
    K tasked:                  Yes
    wK tasked:                  No
    Memory [MiB]:              375
    Schwarz Cutoff:          1E-12

    OpenMP threads:              1

  Minimum eigenvalue in the overlap matrix is 6.5826383612E-03.
  Using Symmetric Orthogonalization.

  SCF Guess: Superposition of Atomic Densities via on-the-fly atomic UHF.

  ==> Iterations <==

                        Total Energy        Delta E     RMS |[F,P]|

   @RHF iter SAD:  -157.37721185584365   -1.57377e+02   0.00000e+00
   @RHF iter   1:  -158.30710931192010   -9.29897e-01   4.20669e-03 DIIS
   @RHF iter   2:  -158.44052881767090   -1.33420e-01   1.78162e-03 DIIS
   @RHF iter   3:  -158.46361317624550   -2.30844e-02   3.50242e-04 DIIS
   @RHF iter   4:  -158.46544960851080   -1.83643e-03   3.89718e-05 DIIS
   @RHF iter   5:  -158.46547363701026   -2.40285e-05   6.72229e-06 DIIS
   @RHF iter   6:  -158.46547429367112   -6.56661e-07   1.26158e-06 DIIS
   @RHF iter   7:  -158.46547430901029   -1.53392e-08   3.25234e-07 DIIS
   @RHF iter   8:  -158.46547430999496   -9.84670e-10   4.06484e-08 DIIS
   @RHF iter   9:  -158.46547431002236   -2.73985e-11   7.80257e-09 DIIS
   @RHF iter  10:  -158.46547431002375   -1.39266e-12   2.09338e-09 DIIS
   @RHF iter  11:  -158.46547431002261    1.13687e-12   5.06123e-10 DIIS
   @RHF iter  12:  -158.46547431002330   -6.82121e-13   1.47117e-10 DIIS
   @RHF iter  13:  -158.46547431002324    5.68434e-14   2.75329e-11 DIIS
  Energy and wave function converged.

  ==> Post-Iterations <==

    Orbital Energies [Eh]
    ---------------------

    Doubly Occupied:

       1A    -11.219528     2A    -11.219303     3A    -11.215693
       4A    -11.215257     5A     -1.021204     6A     -1.016822
       7A     -0.838253     8A     -0.835917     9A     -0.608890
      10A     -0.599926    11A     -0.596805    12A     -0.590328
      13A     -0.502224    14A     -0.499364    15A     -0.489512
      16A     -0.486657    17A     -0.484818    18A     -0.480766

    Virtual:

      19A      0.171258    20A      0.201058    21A      0.222846
      22A      0.234573    23A      0.254493    24A      0.257767
      25A      0.264466    26A      0.277472    27A      0.279318
      28A      0.284853    29A      0.308201    30A      0.354019
      31A      0.388239    32A      0.420746    33A      0.576279
      34A      0.597965    35A      0.603976    36A      0.606616
      37A      0.612685    38A      0.640467    39A      0.661905
      40A      0.673354    41A      0.726244    42A      0.781212
      43A      0.840029    44A      0.869661    45A      0.879986
      46A      0.884940    47A      0.893615    48A      0.896603
      49A      0.904649    50A      0.906649    51A      0.914501
      52A      0.927796    53A      0.945617    54A      0.967464
      55A      0.989905    56A      1.047476    57A      1.121874
      58A      1.124985    59A      1.132133    60A      1.140004
      61A      1.230340    62A      1.289934    63A      1.460798
      64A      1.471786    65A      1.480253    66A      1.490974
      67A      1.554579    68A      1.596541    69A      1.677407
      70A      1.687215    71A      1.699672    72A      1.711004
      73A      1.844851    74A      1.858890    75A      1.877590
      76A      1.884095    77A      1.891666    78A      1.922690
      79A      1.930079    80A      1.938092    81A      1.943498
      82A      1.948231    83A      1.953472    84A      1.958366
      85A      1.964791    86A      1.977961    87A      2.008215
      88A      2.024951    89A      2.095082    90A      2.109290
      91A      2.113027    92A      2.131546    93A      2.291591
      94A      2.305739    95A      2.315129    96A      2.329066
      97A      2.446619    98A      2.460094    99A      2.462961
     100A      2.472796   101A      2.555933   102A      2.569130
     103A      2.582542   104A      2.584213   105A      2.760483
     106A      2.766160   107A      2.793780   108A      2.801570
     109A      2.843247   110A      2.851028   111A      2.857715
     112A      2.871852   113A      2.939414   114A      2.959429
     115A      2.970147   116A      2.994205

    Final Occupation by Irrep:
              A
    DOCC [    18 ]

  @RHF Final Energy:  -158.46547431002324

   => Energetics <=

    Nuclear Repulsion Energy =            124.6176931283364695
    One-Electron Energy =                -458.3237974248376077
    Two-Electron Energy =                 175.2406299864779271
    Total Energy =                       -158.4654743100232395

Computation Completed

Properties will be evaluated at   0.000000,   0.000000,   0.000000 [a0]

Properties computed using the SCF density matrix

  Nuclear Dipole Moment: [e a0]
     X:    -0.0120      Y:    -0.0140      Z:     0.0314

  Electronic Dipole Moment: [e a0]
     X:     0.0051      Y:     0.0005      Z:    -0.0310

  Dipole Moment: [e a0]
     X:    -0.0069      Y:    -0.0135      Z:     0.0004     Total:     0.0152

  Dipole Moment: [D]
     X:    -0.0176      Y:    -0.0344      Z:     0.0010     Total:     0.0386

*** tstop() called on ds3 at Tue Apr 28 03:12:18 2020
Module time:
	user time   =       8.44 seconds =       0.14 minutes
	system time =       2.84 seconds =       0.05 minutes
	total time  =         12 seconds =       0.20 minutes
Total time:
	user time   =       8.44 seconds =       0.14 minutes
	system time =       2.84 seconds =       0.05 minutes
	total time  =         12 seconds =       0.20 minutes
                                     G D M A

                                 by Anthony Stone

                           version 2.2.06, 22 June 2011

               Distributed Multipoles from Gaussian wavefunctions

Starting at 3:12:18 on 28 Apr 2020

Using SCF density matrix from file ./SSI/SSI-030VAL-044LEU-1-dimer.test.7732.fchk

                         Distributed Multipole Analysis

Standard DMA

Positions and radii in angstrom
Multipole moments in atomic units, ea_0^k for rank k

C          x =  1.229769  y = -0.904936  z =  0.680547 angstrom
           Maximum rank =  0   Radius =  0.650 angstrom
                   Q00  =  -0.246922

C          x =  1.742769  y = -0.443936  z =  2.041547 angstrom
           Maximum rank =  0   Radius =  0.650 angstrom
                   Q00  =  -0.227964

H          x =  1.119769  y = -1.987936  z =  0.650547 angstrom
           Maximum rank =  0   Radius =  0.325 angstrom
                   Q00  =   0.079032

H          x =  0.250769  y = -0.463936  z =  0.519547 angstrom
           Maximum rank =  0   Radius =  0.325 angstrom
                   Q00  =   0.078923

H          x =  1.910769  y = -0.586936  z = -0.109453 angstrom
           Maximum rank =  0   Radius =  0.325 angstrom
                   Q00  =   0.078394

H          x =  1.045769  y = -0.782936  z =  2.808547 angstrom
           Maximum rank =  0   Radius =  0.325 angstrom
                   Q00  =   0.078886

H          x =  2.737249  y = -0.870966  z =  2.238139 angstrom
           Maximum rank =  0   Radius =  0.325 angstrom
                   Q00  =   0.079157

H          x =  1.794189  y =  0.654704  z =  2.060376 angstrom
           Maximum rank =  0   Radius =  0.325 angstrom
                   Q00  =   0.078641

C          x = -1.636231  y = -0.029936  z = -1.618453 angstrom
           Maximum rank =  0   Radius =  0.650 angstrom
                   Q00  =  -0.233740

C          x = -1.335231  y =  1.380064  z = -1.106453 angstrom
           Maximum rank =  0   Radius =  0.650 angstrom
                   Q00  =  -0.242457

H          x = -1.817231  y =  0.004064  z = -2.692453 angstrom
           Maximum rank =  0   Radius =  0.325 angstrom
                   Q00  =   0.078941

H          x = -0.788231  y = -0.681936  z = -1.432453 angstrom
           Maximum rank =  0   Radius =  0.325 angstrom
                   Q00  =   0.083385

H          x = -2.502231  y = -0.450936  z = -1.113453 angstrom
           Maximum rank =  0   Radius =  0.325 angstrom
                   Q00  =   0.079396

H          x = -1.212231  y =  1.337064  z = -0.025453 angstrom
           Maximum rank =  0   Radius =  0.325 angstrom
                   Q00  =   0.075030

H          x = -2.163561  y =  2.062814  z = -1.346705 angstrom
           Maximum rank =  0   Radius =  0.325 angstrom
                   Q00  =   0.081401

H          x = -0.387821  y =  1.751984  z = -1.523689 angstrom
           Maximum rank =  0   Radius =  0.325 angstrom
                   Q00  =   0.079896

Total multipoles referred to origin at
           x =   0.000000,  y =    0.000000,  z =    0.000000 angstrom
                   Q00  =  -0.000000

Finished at 3:12:18 on 28 Apr 2020

  DMA results are available in the Python driver through the
	  variable('DMA DISTRIBUTED MULTIPOLES')
  and
	  variable('DMA TOTAL MULTIPOLES')
  commands.

    Psi4 stopped on: Tuesday, 28 April 2020 03:12AM
    Psi4 wall time for execution: 0:00:12.01

*** Psi4 exiting successfully. Buy a developer a beer!
