                               Psi4 1.3.2 release

  ==> Input File <==

--------------------------------------------------------------------------
import numpy as np
set {scf_type pk
basis cc-pvdz
d_convergence 10
gdma_switch   0
gdma_limit    0
gdma_origin   [ 0.0,  0.0,  0.0 ]
}
molecule test {
    units Angstrom
    0 1
    --
    0 1
    C                0.330717998344786    -0.820394768280909     0.525731719349717
    C                1.470717998344786    -1.278394768280909     1.441731719349717
    C                0.429717998344786     0.627605231719091     0.105731719349717
    C                0.760717998344786     1.619605231719091     1.038731719349717
    C                0.171717998344786     1.002605231719091    -1.214268280650283
    C                0.839717998344786     2.961605231719090     0.657731719349717
    C                0.245717998344786     2.344605231719091    -1.598268280650283
    C                0.580717998344786     3.324605231719090    -0.662268280650283
    H                0.296717998344786    -1.463394768280909    -0.355268280650283
    H               -0.613282001655214    -0.938394768280910     1.059731719349717
    H                1.596717998344786    -0.566394768280909     2.254731719349717
    H                0.931717998344786     1.374605231719091     2.075731719349717
    H               -0.092282001655214     0.249605231719091    -1.941268280650283
    H                1.091717998344786     3.718605231719091     1.388731719349717
    H                0.040717998344786     2.627605231719091    -2.622268280650283
    H                0.637717998344786     4.363605231719090    -0.960268280650283
    H                2.414827998344786    -1.363606768280909     0.883711719349717
    H                1.224087998344786    -2.236783768280909     1.922011719349717
    C               -1.559282001655214    -4.061394768280909     0.197731719349717
    C               -2.803282001655215    -4.135394768280909    -0.683268280650283
    H               -1.628282001655214    -3.216394768280909     0.880731719349717
    H               -1.479282001655214    -4.975394768280910     0.786731719349717
    H               -0.669282001655214    -3.954394768280910    -0.422268280650283
    H               -3.673282001655214    -4.287394768280909    -0.055268280650283
    H               -2.912092001655215    -3.206969768280909    -1.263088280650283
    H               -2.729072001655215    -4.997848868280910    -1.361988280650283

}
e, wfn = energy('scf', return_wfn=True)
gdma(wfn)
dmavals = variable('DMA DISTRIBUTED MULTIPOLES')
charges = np.array(dmavals)
print(charges)
np.save('SSI-068PHE-077VAL-1-dimer.npy', np.array(charges))--------------------------------------------------------------------------

*** tstart() called on ds3
*** at Mon Apr 27 12:35:12 2020

   => Loading Basis Set <=

    Name: CC-PVDZ
    Role: ORBITAL
    Keyword: BASIS
    atoms 1-8, 19-20  entry C          line   138 file /theoryfs2/ds/metcalf/miniconda2/envs/tf2gpu/share/psi4/basis/cc-pvdz.gbs
    atoms 9-18, 21-26 entry H          line    22 file /theoryfs2/ds/metcalf/miniconda2/envs/tf2gpu/share/psi4/basis/cc-pvdz.gbs

         ---------------------------------------------------------
                                   SCF
               by Justin Turney, Rob Parrish, Andy Simmonett
                          and Daniel G. A. Smith
                              RHF Reference
                        1 Threads,    500 MiB Core
         ---------------------------------------------------------

  ==> Geometry <==

    Molecular point group: c1
    Full point group: C1

    Geometry (in Angstrom), charge = 0, multiplicity = 1:

       Center              X                  Y                   Z               Mass
    ------------   -----------------  -----------------  -----------------  -----------------
         C            0.330717998345    -0.820394768281     0.525731719350    12.000000000000
         C            1.470717998345    -1.278394768281     1.441731719350    12.000000000000
         C            0.429717998345     0.627605231719     0.105731719350    12.000000000000
         C            0.760717998345     1.619605231719     1.038731719350    12.000000000000
         C            0.171717998345     1.002605231719    -1.214268280650    12.000000000000
         C            0.839717998345     2.961605231719     0.657731719350    12.000000000000
         C            0.245717998345     2.344605231719    -1.598268280650    12.000000000000
         C            0.580717998345     3.324605231719    -0.662268280650    12.000000000000
         H            0.296717998345    -1.463394768281    -0.355268280650     1.007825032230
         H           -0.613282001655    -0.938394768281     1.059731719350     1.007825032230
         H            1.596717998345    -0.566394768281     2.254731719350     1.007825032230
         H            0.931717998345     1.374605231719     2.075731719350     1.007825032230
         H           -0.092282001655     0.249605231719    -1.941268280650     1.007825032230
         H            1.091717998345     3.718605231719     1.388731719350     1.007825032230
         H            0.040717998345     2.627605231719    -2.622268280650     1.007825032230
         H            0.637717998345     4.363605231719    -0.960268280650     1.007825032230
         H            2.414827998345    -1.363606768281     0.883711719350     1.007825032230
         H            1.224087998345    -2.236783768281     1.922011719350     1.007825032230
         C           -1.559282001655    -4.061394768281     0.197731719350    12.000000000000
         C           -2.803282001655    -4.135394768281    -0.683268280650    12.000000000000
         H           -1.628282001655    -3.216394768281     0.880731719350     1.007825032230
         H           -1.479282001655    -4.975394768281     0.786731719350     1.007825032230
         H           -0.669282001655    -3.954394768281    -0.422268280650     1.007825032230
         H           -3.673282001655    -4.287394768281    -0.055268280650     1.007825032230
         H           -2.912092001655    -3.206969768281    -1.263088280650     1.007825032230
         H           -2.729072001655    -4.997848868281    -1.361988280650     1.007825032230

  Running in c1 symmetry.

  Rotational constants: A =      0.07149  B =      0.01532  C =      0.01330 [cm^-1]
  Rotational constants: A =   2143.34781  B =    459.14563  C =    398.70811 [MHz]
  Nuclear repulsion =  477.171410245219477

  Charge       = 0
  Multiplicity = 1
  Electrons    = 76
  Nalpha       = 38
  Nbeta        = 38

  ==> Algorithm <==

  SCF Algorithm Type is PK.
  DIIS enabled.
  MOM disabled.
  Fractional occupation disabled.
  Guess Type is SAD.
  Energy threshold   = 1.00e-06
  Density threshold  = 1.00e-10
  Integral threshold = 0.00e+00

  ==> Primary Basis <==

  Basis Set: CC-PVDZ
    Blend: CC-PVDZ
    Number of shells: 108
    Number of basis function: 220
    Number of Cartesian functions: 230
    Spherical Harmonics?: true
    Max angular momentum: 2

  ==> Pre-Iterations <==

   -------------------------------------------------------
    Irrep   Nso     Nmo     Nalpha   Nbeta   Ndocc  Nsocc
   -------------------------------------------------------
     A        220     220       0       0       0       0
   -------------------------------------------------------
    Total     220     220      38      38      38       0
   -------------------------------------------------------

  ==> Integral Setup <==

  Using integral reordering PK algorithm.
  Sizing the integral batches needed.
  Building batch lookup table.
   Calculation information:
      Number of atoms:                  26
      Number of AO shells:             108
      Number of primitives:            300
      Number of atomic orbitals:       230
      Number of basis functions:       220

      Integral cutoff                 1.00e-12
      Number of threads:                 1

	Batch   1 pq = [       0,    9405] index = [             0,44231715] size =     44231715
	Batch   2 pq = [    9405,   13301] index = [      44231715,88464951] size =     44233236
	Batch   3 pq = [   13301,   16290] index = [      88464951,132690195] size =     44225244
	Batch   4 pq = [   16290,   18810] index = [     132690195,176917455] size =     44227260
	Batch   5 pq = [   18810,   21030] index = [     176917455,221140965] size =     44223510
	Batch   6 pq = [   21030,   23037] index = [     221140965,265363203] size =     44222238
	Batch   7 pq = [   23037,   24310] index = [     265363203,295500205] size =     30137002
  Task number: 27
  Buffer size: 11059200
  Buffer per thread: 2
  We computed 13770018 shell quartets total.
  Whereas there are 17325441 unique shell quartets.

  ==> DiskJK: Disk-Based J/K Matrices <==

    J tasked:                  Yes
    K tasked:                  Yes
    wK tasked:                  No
    Memory [MiB]:              375
    Schwarz Cutoff:          1E-12

    OpenMP threads:              1

  Minimum eigenvalue in the overlap matrix is 3.1604321842E-04.
  Using Symmetric Orthogonalization.

  SCF Guess: Superposition of Atomic Densities via on-the-fly atomic UHF.

  ==> Iterations <==

                        Total Energy        Delta E     RMS |[F,P]|

   @RHF iter SAD:  -386.83900621776411   -3.86839e+02   0.00000e+00
   @RHF iter   1:  -387.77562468252040   -9.36618e-01   2.72075e-03 DIIS
   @RHF iter   2:  -387.99071803883720   -2.15093e-01   1.12843e-03 DIIS
   @RHF iter   3:  -388.02447635142744   -3.37583e-02   2.45415e-04 DIIS
   @RHF iter   4:  -388.02731087744758   -2.83453e-03   5.12123e-05 DIIS
   @RHF iter   5:  -388.02739302637156   -8.21489e-05   2.04746e-05 DIIS
   @RHF iter   6:  -388.02740581814192   -1.27918e-05   3.83591e-06 DIIS
   @RHF iter   7:  -388.02740640745532   -5.89313e-07   1.15543e-06 DIIS
   @RHF iter   8:  -388.02740645592490   -4.84696e-08   2.64589e-07 DIIS
   @RHF iter   9:  -388.02740645988729   -3.96238e-09   8.94233e-08 DIIS
   @RHF iter  10:  -388.02740646033624   -4.48949e-10   3.66864e-08 DIIS
   @RHF iter  11:  -388.02740646043191   -9.56675e-11   1.30429e-08 DIIS
   @RHF iter  12:  -388.02740646044782   -1.59162e-11   6.23133e-09 DIIS
   @RHF iter  13:  -388.02740646045027   -2.44427e-12   3.12133e-09 DIIS
   @RHF iter  14:  -388.02740646045191   -1.64846e-12   1.10218e-09 DIIS
   @RHF iter  15:  -388.02740646045237   -4.54747e-13   3.33788e-10 DIIS
   @RHF iter  16:  -388.02740646045100    1.36424e-12   9.15732e-11 DIIS
  Energy and wave function converged.

  ==> Post-Iterations <==

    Orbital Energies [Eh]
    ---------------------

    Doubly Occupied:

       1A    -11.239370     2A    -11.235866     3A    -11.235647
       4A    -11.231143     5A    -11.230685     6A    -11.230453
       7A    -11.230043     8A    -11.222923     9A    -11.219841
      10A    -11.218142    11A     -1.150312    12A     -1.061210
      13A     -1.020976    14A     -1.009419    15A     -0.979148
      16A     -0.864455    17A     -0.838280    18A     -0.821513
      19A     -0.783312    20A     -0.691181    21A     -0.635960
      22A     -0.630415    23A     -0.602437    24A     -0.602258
      25A     -0.597438    26A     -0.587505    27A     -0.575316
      28A     -0.530337    29A     -0.515484    30A     -0.506560
      31A     -0.501265    32A     -0.489238    33A     -0.487093
      34A     -0.478758    35A     -0.473744    36A     -0.467318
      37A     -0.330265    38A     -0.319776

    Virtual:

      39A      0.135392    40A      0.140193    41A      0.170367
      42A      0.190897    43A      0.200209    44A      0.211827
      45A      0.225187    46A      0.229971    47A      0.239646
      48A      0.250252    49A      0.260292    50A      0.266634
      51A      0.271915    52A      0.278160    53A      0.286245
      54A      0.313362    55A      0.334958    56A      0.345138
      57A      0.368397    58A      0.389705    59A      0.406012
      60A      0.409106    61A      0.451671    62A      0.472054
      63A      0.495908    64A      0.509904    65A      0.570123
      66A      0.588235    67A      0.591469    68A      0.596516
      69A      0.601316    70A      0.626657    71A      0.631069
      72A      0.660793    73A      0.676807    74A      0.679001
      75A      0.697396    76A      0.711868    77A      0.719628
      78A      0.738881    79A      0.741062    80A      0.745887
      81A      0.748164    82A      0.763377    83A      0.797392
      84A      0.810871    85A      0.821786    86A      0.844492
      87A      0.852639    88A      0.865010    89A      0.871961
      90A      0.876358    91A      0.881277    92A      0.889700
      93A      0.891009    94A      0.893659    95A      0.900942
      96A      0.908361    97A      0.911632    98A      0.916869
      99A      0.923953   100A      0.934748   101A      0.948030
     102A      0.966393   103A      0.974898   104A      0.983851
     105A      0.990202   106A      1.009177   107A      1.043826
     108A      1.073120   109A      1.117758   110A      1.126590
     111A      1.134674   112A      1.147710   113A      1.156786
     114A      1.159904   115A      1.189313   116A      1.232504
     117A      1.235412   118A      1.247583   119A      1.254544
     120A      1.259766   121A      1.297542   122A      1.309139
     123A      1.312173   124A      1.328485   125A      1.398302
     126A      1.413975   127A      1.471170   128A      1.476976
     129A      1.482538   130A      1.514381   131A      1.541283
     132A      1.555871   133A      1.580759   134A      1.604943
     135A      1.673061   136A      1.683939   137A      1.696625
     138A      1.717065   139A      1.737802   140A      1.743862
     141A      1.760686   142A      1.772310   143A      1.810569
     144A      1.823947   145A      1.861949   146A      1.870062
     147A      1.879262   148A      1.880610   149A      1.889431
     150A      1.896583   151A      1.909119   152A      1.913319
     153A      1.924778   154A      1.934336   155A      1.940876
     156A      1.947726   157A      1.950698   158A      1.954355
     159A      1.956945   160A      1.961054   161A      1.964417
     162A      1.969105   163A      1.973974   164A      1.986745
     165A      2.012493   166A      2.024350   167A      2.036507
     168A      2.071392   169A      2.077277   170A      2.091997
     171A      2.106395   172A      2.112561   173A      2.124302
     174A      2.156352   175A      2.160923   176A      2.168148
     177A      2.178485   178A      2.217950   179A      2.229151
     180A      2.263264   181A      2.272965   182A      2.291037
     183A      2.304395   184A      2.311864   185A      2.317134
     186A      2.343137   187A      2.355681   188A      2.422712
     189A      2.453251   190A      2.464168   191A      2.470995
     192A      2.478355   193A      2.539356   194A      2.550864
     195A      2.568000   196A      2.574453   197A      2.617387
     198A      2.642133   199A      2.732275   200A      2.748698
     201A      2.763501   202A      2.769440   203A      2.776329
     204A      2.792755   205A      2.801988   206A      2.835615
     207A      2.849180   208A      2.859100   209A      2.875870
     210A      2.909342   211A      2.950095   212A      2.960779
     213A      2.972870   214A      2.986040   215A      3.031663
     216A      3.056147   217A      3.172030   218A      3.202130
     219A      3.293129   220A      3.955044

    Final Occupation by Irrep:
              A
    DOCC [    38 ]

  @RHF Final Energy:  -388.02740646045100

   => Energetics <=

    Nuclear Repulsion Energy =            477.1714102452194766
    One-Electron Energy =               -1468.7074644301983426
    Two-Electron Energy =                 603.5086477245278047
    Total Energy =                       -388.0274064604510613

Computation Completed

Properties will be evaluated at   0.000000,   0.000000,   0.000000 [a0]

Properties computed using the SCF density matrix

  Nuclear Dipole Moment: [e a0]
     X:    -5.2148      Y:   -17.6928      Z:     2.1285

  Electronic Dipole Moment: [e a0]
     X:     5.1788      Y:    17.5599      Z:    -2.0550

  Dipole Moment: [e a0]
     X:    -0.0360      Y:    -0.1329      Z:     0.0735     Total:     0.1561

  Dipole Moment: [D]
     X:    -0.0915      Y:    -0.3378      Z:     0.1867     Total:     0.3967

*** tstop() called on ds3 at Mon Apr 27 12:38:52 2020
Module time:
	user time   =      97.56 seconds =       1.63 minutes
	system time =      43.79 seconds =       0.73 minutes
	total time  =        220 seconds =       3.67 minutes
Total time:
	user time   =      97.56 seconds =       1.63 minutes
	system time =      43.79 seconds =       0.73 minutes
	total time  =        220 seconds =       3.67 minutes
                                     G D M A

                                 by Anthony Stone

                           version 2.2.06, 22 June 2011

               Distributed Multipoles from Gaussian wavefunctions

Starting at 12:38:52 on 27 Apr 2020

Using SCF density matrix from file ./SSI/SSI-068PHE-077VAL-1-dimer.test.3481.fchk

                         Distributed Multipole Analysis

Standard DMA

Positions and radii in angstrom
Multipole moments in atomic units, ea_0^k for rank k

C          x =  0.330718  y = -0.820395  z =  0.525732 angstrom
           Maximum rank =  0   Radius =  0.650 angstrom
                   Q00  =  -0.051054

C          x =  1.470718  y = -1.278395  z =  1.441732 angstrom
           Maximum rank =  0   Radius =  0.650 angstrom
                   Q00  =  -0.245446

C          x =  0.429718  y =  0.627605  z =  0.105732 angstrom
           Maximum rank =  0   Radius =  0.650 angstrom
                   Q00  =  -0.086975

C          x =  0.760718  y =  1.619605  z =  1.038732 angstrom
           Maximum rank =  0   Radius =  0.650 angstrom
                   Q00  =  -0.020321

C          x =  0.171718  y =  1.002605  z = -1.214268 angstrom
           Maximum rank =  0   Radius =  0.650 angstrom
                   Q00  =  -0.083600

C          x =  0.839718  y =  2.961605  z =  0.657732 angstrom
           Maximum rank =  0   Radius =  0.650 angstrom
                   Q00  =  -0.071672

C          x =  0.245718  y =  2.344605  z = -1.598268 angstrom
           Maximum rank =  0   Radius =  0.650 angstrom
                   Q00  =  -0.059714

C          x =  0.580718  y =  3.324605  z = -0.662268 angstrom
           Maximum rank =  0   Radius =  0.650 angstrom
                   Q00  =  -0.080385

H          x =  0.296718  y = -1.463395  z = -0.355268 angstrom
           Maximum rank =  0   Radius =  0.325 angstrom
                   Q00  =   0.065026

H          x = -0.613282  y = -0.938395  z =  1.059732 angstrom
           Maximum rank =  0   Radius =  0.325 angstrom
                   Q00  =   0.075779

H          x =  1.596718  y = -0.566395  z =  2.254732 angstrom
           Maximum rank =  0   Radius =  0.325 angstrom
                   Q00  =   0.078663

H          x =  0.931718  y =  1.374605  z =  2.075732 angstrom
           Maximum rank =  0   Radius =  0.325 angstrom
                   Q00  =   0.057634

H          x = -0.092282  y =  0.249605  z = -1.941268 angstrom
           Maximum rank =  0   Radius =  0.325 angstrom
                   Q00  =   0.059093

H          x =  1.091718  y =  3.718605  z =  1.388732 angstrom
           Maximum rank =  0   Radius =  0.325 angstrom
                   Q00  =   0.065528

H          x =  0.040718  y =  2.627605  z = -2.622268 angstrom
           Maximum rank =  0   Radius =  0.325 angstrom
                   Q00  =   0.065612

H          x =  0.637718  y =  4.363605  z = -0.960268 angstrom
           Maximum rank =  0   Radius =  0.325 angstrom
                   Q00  =   0.061781

H          x =  2.414828  y = -1.363607  z =  0.883712 angstrom
           Maximum rank =  0   Radius =  0.325 angstrom
                   Q00  =   0.084123

H          x =  1.224088  y = -2.236784  z =  1.922012 angstrom
           Maximum rank =  0   Radius =  0.325 angstrom
                   Q00  =   0.086344

C          x = -1.559282  y = -4.061395  z =  0.197732 angstrom
           Maximum rank =  0   Radius =  0.650 angstrom
                   Q00  =  -0.241933

C          x = -2.803282  y = -4.135395  z = -0.683268 angstrom
           Maximum rank =  0   Radius =  0.650 angstrom
                   Q00  =  -0.231260

H          x = -1.628282  y = -3.216395  z =  0.880732 angstrom
           Maximum rank =  0   Radius =  0.325 angstrom
                   Q00  =   0.079931

H          x = -1.479282  y = -4.975395  z =  0.786732 angstrom
           Maximum rank =  0   Radius =  0.325 angstrom
                   Q00  =   0.078182

H          x = -0.669282  y = -3.954395  z = -0.422268 angstrom
           Maximum rank =  0   Radius =  0.325 angstrom
                   Q00  =   0.077920

H          x = -3.673282  y = -4.287395  z = -0.055268 angstrom
           Maximum rank =  0   Radius =  0.325 angstrom
                   Q00  =   0.080477

H          x = -2.912092  y = -3.206970  z = -1.263088 angstrom
           Maximum rank =  0   Radius =  0.325 angstrom
                   Q00  =   0.078679

H          x = -2.729072  y = -4.997849  z = -1.361988 angstrom
           Maximum rank =  0   Radius =  0.325 angstrom
                   Q00  =   0.077589

Total multipoles referred to origin at
           x =   0.000000,  y =    0.000000,  z =    0.000000 angstrom
                   Q00  =  -0.000000

Finished at 12:38:52 on 27 Apr 2020

  DMA results are available in the Python driver through the
	  variable('DMA DISTRIBUTED MULTIPOLES')
  and
	  variable('DMA TOTAL MULTIPOLES')
  commands.

    Psi4 stopped on: Monday, 27 April 2020 12:38PM
    Psi4 wall time for execution: 0:03:40.27

*** Psi4 exiting successfully. Buy a developer a beer!
