                               Psi4 1.3.2 release

  ==> Input File <==

--------------------------------------------------------------------------
import numpy as np
set {scf_type pk
basis cc-pvdz
d_convergence 10
gdma_switch   0
gdma_limit    0
gdma_origin   [ 0.0,  0.0,  0.0 ]
}
molecule test {
    units Angstrom
    0 1
    --
    0 1
    C                1.789275306491549     0.678727968865953    -1.219713431423075
    C                0.846275306491550     0.729727968865953    -2.470713431423075
    H                2.136275306491550     1.684727968865953    -0.972713431423075
    H                1.254275306491550     0.269727968865953    -0.365713431423075
    H                2.655275306491550     0.044727968865953    -1.418713431423075
    H                0.503275306491550    -0.275272031134047    -2.714713431423075
    H                1.410053306491549     1.135727968865953    -3.323553431423075
    H               -0.002621693508450     1.396327968865953    -2.258493431423075
    C               -1.017724693508451    -0.316272031134047     1.248286568576925
    C               -1.626724693508451    -1.090272031134047     2.439286568576925
    H               -0.775724693508451     0.702727968865953     1.552286568576925
    H               -0.103724693508450    -0.813272031134047     0.921286568576925
    H               -1.726724693508451    -0.288272031134047     0.421286568576925
    H               -0.845724693508450    -1.084272031134047     3.191286568576925
    H               -2.553902893508450    -0.667172031134047     2.853176568576925
    H               -1.844774993508450    -2.128472031134047     2.148556568576924

}
e, wfn = energy('scf', return_wfn=True)
gdma(wfn)
dmavals = variable('DMA DISTRIBUTED MULTIPOLES')
charges = np.array(dmavals)
print(charges)
np.save('SSI-098VAL-287LEU-1-dimer.npy', np.array(charges))--------------------------------------------------------------------------

*** tstart() called on ds3
*** at Mon Apr 27 13:47:33 2020

   => Loading Basis Set <=

    Name: CC-PVDZ
    Role: ORBITAL
    Keyword: BASIS
    atoms 1-2, 9-10  entry C          line   138 file /theoryfs2/ds/metcalf/miniconda2/envs/tf2gpu/share/psi4/basis/cc-pvdz.gbs
    atoms 3-8, 11-16 entry H          line    22 file /theoryfs2/ds/metcalf/miniconda2/envs/tf2gpu/share/psi4/basis/cc-pvdz.gbs

         ---------------------------------------------------------
                                   SCF
               by Justin Turney, Rob Parrish, Andy Simmonett
                          and Daniel G. A. Smith
                              RHF Reference
                        1 Threads,    500 MiB Core
         ---------------------------------------------------------

  ==> Geometry <==

    Molecular point group: c1
    Full point group: C1

    Geometry (in Angstrom), charge = 0, multiplicity = 1:

       Center              X                  Y                   Z               Mass
    ------------   -----------------  -----------------  -----------------  -----------------
         C            1.789275306492     0.678727968866    -1.219713431423    12.000000000000
         C            0.846275306492     0.729727968866    -2.470713431423    12.000000000000
         H            2.136275306492     1.684727968866    -0.972713431423     1.007825032230
         H            1.254275306492     0.269727968866    -0.365713431423     1.007825032230
         H            2.655275306492     0.044727968866    -1.418713431423     1.007825032230
         H            0.503275306492    -0.275272031134    -2.714713431423     1.007825032230
         H            1.410053306492     1.135727968866    -3.323553431423     1.007825032230
         H           -0.002621693508     1.396327968866    -2.258493431423     1.007825032230
         C           -1.017724693508    -0.316272031134     1.248286568577    12.000000000000
         C           -1.626724693508    -1.090272031134     2.439286568577    12.000000000000
         H           -0.775724693508     0.702727968866     1.552286568577     1.007825032230
         H           -0.103724693508    -0.813272031134     0.921286568577     1.007825032230
         H           -1.726724693508    -0.288272031134     0.421286568577     1.007825032230
         H           -0.845724693508    -1.084272031134     3.191286568577     1.007825032230
         H           -2.553902893508    -0.667172031134     2.853176568577     1.007825032230
         H           -1.844774993508    -2.128472031134     2.148556568577     1.007825032230

  Running in c1 symmetry.

  Rotational constants: A =      0.53217  B =      0.04526  C =      0.04329 [cm^-1]
  Rotational constants: A =  15954.16445  B =   1356.76618  C =   1297.68424 [MHz]
  Nuclear repulsion =  120.489914132642298

  Charge       = 0
  Multiplicity = 1
  Electrons    = 36
  Nalpha       = 18
  Nbeta        = 18

  ==> Algorithm <==

  SCF Algorithm Type is PK.
  DIIS enabled.
  MOM disabled.
  Fractional occupation disabled.
  Guess Type is SAD.
  Energy threshold   = 1.00e-06
  Density threshold  = 1.00e-10
  Integral threshold = 0.00e+00

  ==> Primary Basis <==

  Basis Set: CC-PVDZ
    Blend: CC-PVDZ
    Number of shells: 60
    Number of basis function: 116
    Number of Cartesian functions: 120
    Spherical Harmonics?: true
    Max angular momentum: 2

  ==> Pre-Iterations <==

   -------------------------------------------------------
    Irrep   Nso     Nmo     Nalpha   Nbeta   Ndocc  Nsocc
   -------------------------------------------------------
     A        116     116       0       0       0       0
   -------------------------------------------------------
    Total     116     116      18      18      18       0
   -------------------------------------------------------

  ==> Integral Setup <==

  Using integral reordering PK algorithm.
  Sizing the integral batches needed.
  Building batch lookup table.
   Calculation information:
      Number of atoms:                  16
      Number of AO shells:              60
      Number of primitives:            148
      Number of atomic orbitals:       120
      Number of basis functions:       116

      Integral cutoff                 1.00e-12
      Number of threads:                 1

	Batch   1 pq = [       0,    6786] index = [             0,23028291] size =     23028291
  Task number: 3
  Buffer size: 11059200
  Buffer per thread: 2
  We computed 1387781 shell quartets total.
  Whereas there are 1675365 unique shell quartets.

  ==> DiskJK: Disk-Based J/K Matrices <==

    J tasked:                  Yes
    K tasked:                  Yes
    wK tasked:                  No
    Memory [MiB]:              375
    Schwarz Cutoff:          1E-12

    OpenMP threads:              1

  Minimum eigenvalue in the overlap matrix is 6.5641842479E-03.
  Using Symmetric Orthogonalization.

  SCF Guess: Superposition of Atomic Densities via on-the-fly atomic UHF.

  ==> Iterations <==

                        Total Energy        Delta E     RMS |[F,P]|

   @RHF iter SAD:  -157.26610756065878   -1.57266e+02   0.00000e+00
   @RHF iter   1:  -158.31121531830169   -1.04511e+00   4.12206e-03 DIIS
   @RHF iter   2:  -158.44053612757529   -1.29321e-01   1.73237e-03 DIIS
   @RHF iter   3:  -158.46248170761331   -2.19456e-02   3.44774e-04 DIIS
   @RHF iter   4:  -158.46426425415046   -1.78255e-03   3.85359e-05 DIIS
   @RHF iter   5:  -158.46428777157911   -2.35174e-05   6.62319e-06 DIIS
   @RHF iter   6:  -158.46428842403873   -6.52460e-07   1.23559e-06 DIIS
   @RHF iter   7:  -158.46428843933268   -1.52939e-08   3.49086e-07 DIIS
   @RHF iter   8:  -158.46428844057448   -1.24180e-09   5.21952e-08 DIIS
   @RHF iter   9:  -158.46428844062382   -4.93401e-11   1.11007e-08 DIIS
   @RHF iter  10:  -158.46428844062623   -2.41585e-12   2.91665e-09 DIIS
   @RHF iter  11:  -158.46428844062595    2.84217e-13   7.66625e-10 DIIS
   @RHF iter  12:  -158.46428844062581    1.42109e-13   2.03787e-10 DIIS
   @RHF iter  13:  -158.46428844062694   -1.13687e-12   3.90059e-11 DIIS
  Energy and wave function converged.

  ==> Post-Iterations <==

    Orbital Energies [Eh]
    ---------------------

    Doubly Occupied:

       1A    -11.221698     2A    -11.220430     3A    -11.219656
       4A    -11.217930     5A     -1.015824     6A     -1.007662
       7A     -0.841228     8A     -0.836922     9A     -0.601773
      10A     -0.596770    11A     -0.593765    12A     -0.589227
      13A     -0.507530    14A     -0.490962    15A     -0.489208
      16A     -0.487531    17A     -0.483903    18A     -0.480669

    Virtual:

      19A      0.173320    20A      0.194604    21A      0.230150
      22A      0.238153    23A      0.245391    24A      0.261752
      25A      0.263882    26A      0.274722    27A      0.280360
      28A      0.284566    29A      0.296889    30A      0.346128
      31A      0.381528    32A      0.413554    33A      0.577279
      34A      0.585518    35A      0.597489    36A      0.607935
      37A      0.612912    38A      0.658011    39A      0.669862
      40A      0.691120    41A      0.705870    42A      0.743683
      43A      0.822249    44A      0.859273    45A      0.889653
      46A      0.892565    47A      0.893943    48A      0.896623
      49A      0.899742    50A      0.904154    51A      0.912424
      52A      0.922265    53A      0.923692    54A      0.946513
      55A      0.975861    56A      1.002762    57A      1.119464
      58A      1.124687    59A      1.129395    60A      1.147198
      61A      1.230984    62A      1.296031    63A      1.452761
      64A      1.466530    65A      1.470832    66A      1.478493
      67A      1.567121    68A      1.593999    69A      1.679414
      70A      1.681085    71A      1.692461    72A      1.696934
      73A      1.839268    74A      1.859586    75A      1.861123
      76A      1.868466    77A      1.885389    78A      1.894489
      79A      1.928762    80A      1.936548    81A      1.937335
      82A      1.941267    83A      1.943684    84A      1.949213
      85A      1.951289    86A      1.974642    87A      1.988958
      88A      2.032259    89A      2.071273    90A      2.106385
      91A      2.108029    92A      2.137169    93A      2.279085
      94A      2.294962    95A      2.308488    96A      2.324817
      97A      2.444463    98A      2.451119    99A      2.458003
     100A      2.474801   101A      2.541529   102A      2.559380
     103A      2.566122   104A      2.587767   105A      2.762613
     106A      2.765599   107A      2.784760   108A      2.788147
     109A      2.830577   110A      2.841582   111A      2.844090
     112A      2.865569   113A      2.932557   114A      2.941318
     115A      2.949076   116A      2.970692

    Final Occupation by Irrep:
              A
    DOCC [    18 ]

  @RHF Final Energy:  -158.46428844062694

   => Energetics <=

    Nuclear Repulsion Energy =            120.4899141326422978
    One-Electron Energy =                -450.1030326805621371
    Two-Electron Energy =                 171.1488301072928948
    Total Energy =                       -158.4642884406269445

Computation Completed

Properties will be evaluated at   0.000000,   0.000000,   0.000000 [a0]

Properties computed using the SCF density matrix

  Nuclear Dipole Moment: [e a0]
     X:     0.0993      Y:    -0.0213      Z:     0.0319

  Electronic Dipole Moment: [e a0]
     X:    -0.1000      Y:     0.0118      Z:    -0.0117

  Dipole Moment: [e a0]
     X:    -0.0006      Y:    -0.0095      Z:     0.0201     Total:     0.0223

  Dipole Moment: [D]
     X:    -0.0016      Y:    -0.0242      Z:     0.0511     Total:     0.0566

*** tstop() called on ds3 at Mon Apr 27 13:47:43 2020
Module time:
	user time   =       7.37 seconds =       0.12 minutes
	system time =       2.76 seconds =       0.05 minutes
	total time  =         10 seconds =       0.17 minutes
Total time:
	user time   =       7.37 seconds =       0.12 minutes
	system time =       2.76 seconds =       0.05 minutes
	total time  =         10 seconds =       0.17 minutes
                                     G D M A

                                 by Anthony Stone

                           version 2.2.06, 22 June 2011

               Distributed Multipoles from Gaussian wavefunctions

Starting at 13:47:43 on 27 Apr 2020

Using SCF density matrix from file ./SSI/SSI-098VAL-287LEU-1-dimer.test.7830.fchk

                         Distributed Multipole Analysis

Standard DMA

Positions and radii in angstrom
Multipole moments in atomic units, ea_0^k for rank k

C          x =  1.789275  y =  0.678728  z = -1.219713 angstrom
           Maximum rank =  0   Radius =  0.650 angstrom
                   Q00  =  -0.252289

C          x =  0.846275  y =  0.729728  z = -2.470713 angstrom
           Maximum rank =  0   Radius =  0.650 angstrom
                   Q00  =  -0.247301

H          x =  2.136275  y =  1.684728  z = -0.972713 angstrom
           Maximum rank =  0   Radius =  0.325 angstrom
                   Q00  =   0.081372

H          x =  1.254275  y =  0.269728  z = -0.365713 angstrom
           Maximum rank =  0   Radius =  0.325 angstrom
                   Q00  =   0.088340

H          x =  2.655275  y =  0.044728  z = -1.418713 angstrom
           Maximum rank =  0   Radius =  0.325 angstrom
                   Q00  =   0.080467

H          x =  0.503275  y = -0.275272  z = -2.714713 angstrom
           Maximum rank =  0   Radius =  0.325 angstrom
                   Q00  =   0.084162

H          x =  1.410053  y =  1.135728  z = -3.323553 angstrom
           Maximum rank =  0   Radius =  0.325 angstrom
                   Q00  =   0.080769

H          x = -0.002622  y =  1.396328  z = -2.258493 angstrom
           Maximum rank =  0   Radius =  0.325 angstrom
                   Q00  =   0.082510

C          x = -1.017725  y = -0.316272  z =  1.248287 angstrom
           Maximum rank =  0   Radius =  0.650 angstrom
                   Q00  =  -0.245113

C          x = -1.626725  y = -1.090272  z =  2.439287 angstrom
           Maximum rank =  0   Radius =  0.650 angstrom
                   Q00  =  -0.237071

H          x = -0.775725  y =  0.702728  z =  1.552287 angstrom
           Maximum rank =  0   Radius =  0.325 angstrom
                   Q00  =   0.080443

H          x = -0.103725  y = -0.813272  z =  0.921287 angstrom
           Maximum rank =  0   Radius =  0.325 angstrom
                   Q00  =   0.080726

H          x = -1.726725  y = -0.288272  z =  0.421287 angstrom
           Maximum rank =  0   Radius =  0.325 angstrom
                   Q00  =   0.081499

H          x = -0.845725  y = -1.084272  z =  3.191287 angstrom
           Maximum rank =  0   Radius =  0.325 angstrom
                   Q00  =   0.077272

H          x = -2.553903  y = -0.667172  z =  2.853177 angstrom
           Maximum rank =  0   Radius =  0.325 angstrom
                   Q00  =   0.084664

H          x = -1.844775  y = -2.128472  z =  2.148557 angstrom
           Maximum rank =  0   Radius =  0.325 angstrom
                   Q00  =   0.079549

Total multipoles referred to origin at
           x =   0.000000,  y =    0.000000,  z =    0.000000 angstrom
                   Q00  =   0.000000

Finished at 13:47:43 on 27 Apr 2020

  DMA results are available in the Python driver through the
	  variable('DMA DISTRIBUTED MULTIPOLES')
  and
	  variable('DMA TOTAL MULTIPOLES')
  commands.

    Psi4 stopped on: Monday, 27 April 2020 01:47PM
    Psi4 wall time for execution: 0:00:10.78

*** Psi4 exiting successfully. Buy a developer a beer!
