                               Psi4 1.3.2 release

  ==> Input File <==

--------------------------------------------------------------------------
import numpy as np
set {scf_type pk
basis cc-pvdz
d_convergence 10
gdma_switch   0
gdma_limit    0
gdma_origin   [ 0.0,  0.0,  0.0 ]
}
molecule test {
    units Angstrom
    0 1
    --
    0 1
    C                3.607669859567807     0.121483140421024     1.390301672715879
    C                1.562669859567807    -0.507516859578976     0.225301672715879
    N                0.894669859567807    -1.373516859578977    -0.516698327284121
    N                2.815669859567807    -0.780516859578977     0.579301672715880
    N                0.982669859567807     0.622483140421023     0.610301672715879
    H                1.328669859567807    -2.233516859578976    -0.814698327284121
    H               -0.070330140432193    -1.172516859578977    -0.782698327284120
    H                3.237669859567807    -1.646516859578977     0.273301672715879
    H                1.490669859567807     1.289483140421024     1.172301672715879
    H                0.024669859567807     0.825483140421024     0.334301672715879
    H                3.392669859567807     1.143483140421024     1.074301672715879
    H                4.655669859567807    -0.089516859578976     1.213301672715879
    H                3.389569859567807     0.021633140421024     2.463831672715879
    C               -3.907330140432193     0.623483140421023    -0.643698327284121
    C               -2.388330140432193     0.468483140421024    -0.562698327284121
    O               -1.894330140432193    -0.682516859578976    -0.568698327284121
    O               -1.660330140432193     1.485483140421024    -0.513698327284121
    H               -4.198330140432193     0.795483140421024    -1.681698327284121
    H               -4.225330140432193     1.469483140421023    -0.035698327284121
    H               -4.417880140432193    -0.272156859578976    -0.260058327284121

}
e, wfn = energy('scf', return_wfn=True)
gdma(wfn)
dmavals = variable('DMA DISTRIBUTED MULTIPOLES')
charges = np.array(dmavals)
print(charges)
np.save('SSI-156ARG-197GLU-1-dimer.npy', np.array(charges))--------------------------------------------------------------------------

*** tstart() called on ds3
*** at Mon Apr 27 16:02:27 2020

   => Loading Basis Set <=

    Name: CC-PVDZ
    Role: ORBITAL
    Keyword: BASIS
    atoms 1-2, 14-15  entry C          line   138 file /theoryfs2/ds/metcalf/miniconda2/envs/tf2gpu/share/psi4/basis/cc-pvdz.gbs
    atoms 3-5         entry N          line   168 file /theoryfs2/ds/metcalf/miniconda2/envs/tf2gpu/share/psi4/basis/cc-pvdz.gbs
    atoms 6-13, 18-20 entry H          line    22 file /theoryfs2/ds/metcalf/miniconda2/envs/tf2gpu/share/psi4/basis/cc-pvdz.gbs
    atoms 16-17       entry O          line   198 file /theoryfs2/ds/metcalf/miniconda2/envs/tf2gpu/share/psi4/basis/cc-pvdz.gbs

         ---------------------------------------------------------
                                   SCF
               by Justin Turney, Rob Parrish, Andy Simmonett
                          and Daniel G. A. Smith
                              RHF Reference
                        1 Threads,    500 MiB Core
         ---------------------------------------------------------

  ==> Geometry <==

    Molecular point group: c1
    Full point group: C1

    Geometry (in Angstrom), charge = 0, multiplicity = 1:

       Center              X                  Y                   Z               Mass
    ------------   -----------------  -----------------  -----------------  -----------------
         C            3.607669859568     0.121483140421     1.390301672716    12.000000000000
         C            1.562669859568    -0.507516859579     0.225301672716    12.000000000000
         N            0.894669859568    -1.373516859579    -0.516698327284    14.003074004430
         N            2.815669859568    -0.780516859579     0.579301672716    14.003074004430
         N            0.982669859568     0.622483140421     0.610301672716    14.003074004430
         H            1.328669859568    -2.233516859579    -0.814698327284     1.007825032230
         H           -0.070330140432    -1.172516859579    -0.782698327284     1.007825032230
         H            3.237669859568    -1.646516859579     0.273301672716     1.007825032230
         H            1.490669859568     1.289483140421     1.172301672716     1.007825032230
         H            0.024669859568     0.825483140421     0.334301672716     1.007825032230
         H            3.392669859568     1.143483140421     1.074301672716     1.007825032230
         H            4.655669859568    -0.089516859579     1.213301672716     1.007825032230
         H            3.389569859568     0.021633140421     2.463831672716     1.007825032230
         C           -3.907330140432     0.623483140421    -0.643698327284    12.000000000000
         C           -2.388330140432     0.468483140421    -0.562698327284    12.000000000000
         O           -1.894330140432    -0.682516859579    -0.568698327284    15.994914619570
         O           -1.660330140432     1.485483140421    -0.513698327284    15.994914619570
         H           -4.198330140432     0.795483140421    -1.681698327284     1.007825032230
         H           -4.225330140432     1.469483140421    -0.035698327284     1.007825032230
         H           -4.417880140432    -0.272156859579    -0.260058327284     1.007825032230

  Running in c1 symmetry.

  Rotational constants: A =      0.14864  B =      0.01944  C =      0.01761 [cm^-1]
  Rotational constants: A =   4456.22324  B =    582.82446  C =    527.83001 [MHz]
  Nuclear repulsion =  456.917309285308704

  Charge       = 0
  Multiplicity = 1
  Electrons    = 72
  Nalpha       = 36
  Nbeta        = 36

  ==> Algorithm <==

  SCF Algorithm Type is PK.
  DIIS enabled.
  MOM disabled.
  Fractional occupation disabled.
  Guess Type is SAD.
  Energy threshold   = 1.00e-06
  Density threshold  = 1.00e-10
  Integral threshold = 0.00e+00

  ==> Primary Basis <==

  Basis Set: CC-PVDZ
    Blend: CC-PVDZ
    Number of shells: 87
    Number of basis function: 181
    Number of Cartesian functions: 190
    Spherical Harmonics?: true
    Max angular momentum: 2

  ==> Pre-Iterations <==

   -------------------------------------------------------
    Irrep   Nso     Nmo     Nalpha   Nbeta   Ndocc  Nsocc
   -------------------------------------------------------
     A        181     181       0       0       0       0
   -------------------------------------------------------
    Total     181     181      36      36      36       0
   -------------------------------------------------------

  ==> Integral Setup <==

  Using integral reordering PK algorithm.
  Sizing the integral batches needed.
  Building batch lookup table.
   Calculation information:
      Number of atoms:                  20
      Number of AO shells:              87
      Number of primitives:            253
      Number of atomic orbitals:       190
      Number of basis functions:       181

      Integral cutoff                 1.00e-12
      Number of threads:                 1

	Batch   1 pq = [       0,    9405] index = [             0,44231715] size =     44231715
	Batch   2 pq = [    9405,   13301] index = [      44231715,88464951] size =     44233236
	Batch   3 pq = [   13301,   16471] index = [      88464951,135655156] size =     47190205
  Task number: 13
  Buffer size: 11059200
  Buffer per thread: 2
  We computed 5658253 shell quartets total.
  Whereas there are 7328706 unique shell quartets.

  ==> DiskJK: Disk-Based J/K Matrices <==

    J tasked:                  Yes
    K tasked:                  Yes
    wK tasked:                  No
    Memory [MiB]:              375
    Schwarz Cutoff:          1E-12

    OpenMP threads:              1

  Minimum eigenvalue in the overlap matrix is 3.8598841206E-03.
  Using Symmetric Orthogonalization.

  SCF Guess: Superposition of Atomic Densities via on-the-fly atomic UHF.

  ==> Iterations <==

                        Total Energy        Delta E     RMS |[F,P]|

   @RHF iter SAD:  -469.71216988275484   -4.69712e+02   0.00000e+00
   @RHF iter   1:  -470.72085970713147   -1.00869e+00   4.22106e-03 DIIS
   @RHF iter   2:  -470.94320046369199   -2.22341e-01   2.19727e-03 DIIS
   @RHF iter   3:  -471.00075648723214   -5.75560e-02   3.88369e-04 DIIS
   @RHF iter   4:  -471.00393923025717   -3.18274e-03   1.30113e-04 DIIS
   @RHF iter   5:  -471.00429404386682   -3.54814e-04   2.34315e-05 DIIS
   @RHF iter   6:  -471.00431091901532   -1.68751e-05   8.08835e-06 DIIS
   @RHF iter   7:  -471.00431236662229   -1.44761e-06   2.41423e-06 DIIS
   @RHF iter   8:  -471.00431255095748   -1.84335e-07   1.01438e-06 DIIS
   @RHF iter   9:  -471.00431257306940   -2.21119e-08   3.07147e-07 DIIS
   @RHF iter  10:  -471.00431257588230   -2.81290e-09   7.68637e-08 DIIS
   @RHF iter  11:  -471.00431257614719   -2.64890e-10   2.49861e-08 DIIS
   @RHF iter  12:  -471.00431257617049   -2.33058e-11   1.21656e-08 DIIS
   @RHF iter  13:  -471.00431257617760   -7.10543e-12   4.06851e-09 DIIS
   @RHF iter  14:  -471.00431257617669    9.09495e-13   1.31092e-09 DIIS
   @RHF iter  15:  -471.00431257618072   -4.03588e-12   4.63933e-10 DIIS
   @RHF iter  16:  -471.00431257617902    1.70530e-12   1.52441e-10 DIIS
   @RHF iter  17:  -471.00431257617765    1.36424e-12   6.48438e-11 DIIS
  Energy and wave function converged.

  ==> Post-Iterations <==

    Orbital Energies [Eh]
    ---------------------

    Doubly Occupied:

       1A    -20.421557     2A    -20.418457     3A    -15.648321
       4A    -15.613743     5A    -15.611041     6A    -11.431006
       7A    -11.325704     8A    -11.269217     9A    -11.172161
      10A     -1.386861    11A     -1.311130    12A     -1.253141
      13A     -1.219688    14A     -1.192552    15A     -1.013295
      16A     -0.920986    17A     -0.884282    18A     -0.821898
      19A     -0.774440    20A     -0.700030    21A     -0.691046
      22A     -0.686213    23A     -0.662702    24A     -0.635842
      25A     -0.611048    26A     -0.601860    27A     -0.554285
      28A     -0.544563    29A     -0.540076    30A     -0.477972
      31A     -0.453933    32A     -0.448121    33A     -0.439042
      34A     -0.342336    35A     -0.329542    36A     -0.323741

    Virtual:

      37A      0.125178    38A      0.150338    39A      0.175780
      40A      0.182553    41A      0.223808    42A      0.230041
      43A      0.247825    44A      0.250583    45A      0.276349
      46A      0.293499    47A      0.312135    48A      0.346169
      49A      0.350888    50A      0.371820    51A      0.432453
      52A      0.449938    53A      0.483870    54A      0.493891
      55A      0.563057    56A      0.581805    57A      0.598333
      58A      0.613704    59A      0.647736    60A      0.670630
      61A      0.679294    62A      0.704819    63A      0.709209
      64A      0.713522    65A      0.714392    66A      0.752876
      67A      0.799977    68A      0.808437    69A      0.817696
      70A      0.825251    71A      0.841053    72A      0.853945
      73A      0.879516    74A      0.910043    75A      0.913706
      76A      0.923553    77A      0.926933    78A      0.959751
      79A      0.960928    80A      0.975316    81A      0.989356
      82A      0.993266    83A      1.041073    84A      1.051288
      85A      1.084438    86A      1.104934    87A      1.108965
      88A      1.129415    89A      1.199039    90A      1.215569
      91A      1.246563    92A      1.259201    93A      1.282039
      94A      1.312495    95A      1.316338    96A      1.326391
      97A      1.363040    98A      1.396039    99A      1.409106
     100A      1.442081   101A      1.465338   102A      1.483590
     103A      1.501288   104A      1.536028   105A      1.552948
     106A      1.593011   107A      1.603485   108A      1.629244
     109A      1.651404   110A      1.666701   111A      1.690492
     112A      1.703298   113A      1.725087   114A      1.734039
     115A      1.775371   116A      1.838885   117A      1.852459
     118A      1.874489   119A      1.889359   120A      1.899216
     121A      1.902090   122A      1.928419   123A      1.941110
     124A      1.943276   125A      1.968612   126A      1.982185
     127A      1.997036   128A      2.019091   129A      2.042401
     130A      2.081328   131A      2.090201   132A      2.120243
     133A      2.137752   134A      2.154106   135A      2.200563
     136A      2.237307   137A      2.256775   138A      2.276848
     139A      2.285110   140A      2.317513   141A      2.323243
     142A      2.385441   143A      2.395628   144A      2.452354
     145A      2.464730   146A      2.486391   147A      2.515762
     148A      2.535654   149A      2.561135   150A      2.570146
     151A      2.617024   152A      2.635099   153A      2.683243
     154A      2.706498   155A      2.711393   156A      2.739220
     157A      2.774002   158A      2.799591   159A      2.855851
     160A      2.859350   161A      2.872767   162A      2.897014
     163A      2.927822   164A      2.979834   165A      3.002042
     166A      3.027181   167A      3.084465   168A      3.130633
     169A      3.158478   170A      3.197324   171A      3.233124
     172A      3.281133   173A      3.320733   174A      3.490712
     175A      3.600992   176A      3.663373   177A      3.733507
     178A      3.811061   179A      3.925607   180A      3.931597
     181A      4.072492

    Final Occupation by Irrep:
              A
    DOCC [    36 ]

  @RHF Final Energy:  -471.00431257617765

   => Energetics <=

    Nuclear Repulsion Energy =            456.9173092853087041
    One-Electron Energy =               -1550.3795803178024926
    Two-Electron Energy =                 622.4579584563161916
    Total Energy =                       -471.0043125761776537

Computation Completed

Properties will be evaluated at   0.000000,   0.000000,   0.000000 [a0]

Properties computed using the SCF density matrix

  Nuclear Dipole Moment: [e a0]
     X:     4.2889      Y:     0.1310      Z:     2.7645

  Electronic Dipole Moment: [e a0]
     X:     0.2970      Y:    -1.3633      Z:    -1.5861

  Dipole Moment: [e a0]
     X:     4.5859      Y:    -1.2324      Z:     1.1784     Total:     4.8926

  Dipole Moment: [D]
     X:    11.6562      Y:    -3.1323      Z:     2.9951     Total:    12.4358

*** tstop() called on ds3 at Mon Apr 27 16:03:38 2020
Module time:
	user time   =      45.66 seconds =       0.76 minutes
	system time =      22.55 seconds =       0.38 minutes
	total time  =         71 seconds =       1.18 minutes
Total time:
	user time   =      45.66 seconds =       0.76 minutes
	system time =      22.55 seconds =       0.38 minutes
	total time  =         71 seconds =       1.18 minutes
                                     G D M A

                                 by Anthony Stone

                           version 2.2.06, 22 June 2011

               Distributed Multipoles from Gaussian wavefunctions

Starting at 16:3:38 on 27 Apr 2020

Using SCF density matrix from file ./SSI/SSI-156ARG-197GLU-1-dimer.test.7300.fchk

                         Distributed Multipole Analysis

Standard DMA

Positions and radii in angstrom
Multipole moments in atomic units, ea_0^k for rank k

C          x =  3.607670  y =  0.121483  z =  1.390302 angstrom
           Maximum rank =  0   Radius =  0.650 angstrom
                   Q00  =  -0.108286

C          x =  1.562670  y = -0.507517  z =  0.225302 angstrom
           Maximum rank =  0   Radius =  0.650 angstrom
                   Q00  =   1.055377

N          x =  0.894670  y = -1.373517  z = -0.516698 angstrom
           Maximum rank =  0   Radius =  0.650 angstrom
                   Q00  =  -0.592429

N          x =  2.815670  y = -0.780517  z =  0.579302 angstrom
           Maximum rank =  0   Radius =  0.650 angstrom
                   Q00  =  -0.492313

N          x =  0.982670  y =  0.622483  z =  0.610302 angstrom
           Maximum rank =  0   Radius =  0.650 angstrom
                   Q00  =  -0.580654

H          x =  1.328670  y = -2.233517  z = -0.814698 angstrom
           Maximum rank =  0   Radius =  0.325 angstrom
                   Q00  =   0.220881

H          x = -0.070330  y = -1.172517  z = -0.782698 angstrom
           Maximum rank =  0   Radius =  0.325 angstrom
                   Q00  =   0.328505

H          x =  3.237670  y = -1.646517  z =  0.273302 angstrom
           Maximum rank =  0   Radius =  0.325 angstrom
                   Q00  =   0.214043

H          x =  1.490670  y =  1.289483  z =  1.172302 angstrom
           Maximum rank =  0   Radius =  0.325 angstrom
                   Q00  =   0.232929

H          x =  0.024670  y =  0.825483  z =  0.334302 angstrom
           Maximum rank =  0   Radius =  0.325 angstrom
                   Q00  =   0.317159

H          x =  3.392670  y =  1.143483  z =  1.074302 angstrom
           Maximum rank =  0   Radius =  0.325 angstrom
                   Q00  =   0.096713

H          x =  4.655670  y = -0.089517  z =  1.213302 angstrom
           Maximum rank =  0   Radius =  0.325 angstrom
                   Q00  =   0.136335

H          x =  3.389570  y =  0.021633  z =  2.463832 angstrom
           Maximum rank =  0   Radius =  0.325 angstrom
                   Q00  =   0.104246

C          x = -3.907330  y =  0.623483  z = -0.643698 angstrom
           Maximum rank =  0   Radius =  0.650 angstrom
                   Q00  =  -0.255642

C          x = -2.388330  y =  0.468483  z = -0.562698 angstrom
           Maximum rank =  0   Radius =  0.650 angstrom
                   Q00  =   0.879967

O          x = -1.894330  y = -0.682517  z = -0.568698 angstrom
           Maximum rank =  0   Radius =  0.650 angstrom
                   Q00  =  -0.924742

O          x = -1.660330  y =  1.485483  z = -0.513698 angstrom
           Maximum rank =  0   Radius =  0.650 angstrom
                   Q00  =  -0.906754

H          x = -4.198330  y =  0.795483  z = -1.681698 angstrom
           Maximum rank =  0   Radius =  0.325 angstrom
                   Q00  =   0.109717

H          x = -4.225330  y =  1.469483  z = -0.035698 angstrom
           Maximum rank =  0   Radius =  0.325 angstrom
                   Q00  =   0.085353

H          x = -4.417880  y = -0.272157  z = -0.260058 angstrom
           Maximum rank =  0   Radius =  0.325 angstrom
                   Q00  =   0.079595

Total multipoles referred to origin at
           x =   0.000000,  y =    0.000000,  z =    0.000000 angstrom
                   Q00  =  -0.000000

Finished at 16:3:38 on 27 Apr 2020

  DMA results are available in the Python driver through the
	  variable('DMA DISTRIBUTED MULTIPOLES')
  and
	  variable('DMA TOTAL MULTIPOLES')
  commands.

    Psi4 stopped on: Monday, 27 April 2020 04:03PM
    Psi4 wall time for execution: 0:01:11.62

*** Psi4 exiting successfully. Buy a developer a beer!
