                               Psi4 1.3.2 release

  ==> Input File <==

--------------------------------------------------------------------------
import numpy as np
set {scf_type pk
basis cc-pvdz
d_convergence 10
gdma_switch   0
gdma_limit    0
gdma_origin   [ 0.0,  0.0,  0.0 ]
}
molecule test {
    units Angstrom
    0 1
    --
    0 1
    C                3.299855657638032     2.642974251919965     1.598240325481497
    C               -0.358144342361969     0.458974251919965     1.737240325481497
    C                0.837855657638031    -0.184025748080035     1.940240325481496
    C               -0.358144342361969     1.804974251919965     1.449240325481497
    C                2.026855657638031     0.510974251919965     1.876240325481496
    C                0.832855657638031     2.505974251919965     1.390240325481497
    C                2.031855657638031     1.865974251919965     1.599240325481496
    H               -1.290144342361969    -0.084025748080035     1.801240325481496
    H                0.846855657638031    -1.242025748080035     2.166240325481497
    H               -1.296144342361969     2.314974251919965     1.278240325481496
    H                2.954855657638031    -0.008025748080035     2.059240325481496
    H                0.815855657638031     3.563974251919966     1.182240325481497
    H                3.205855657638031     3.500974251919966     0.930240325481496
    H                4.097855657638031     2.009974251919965     1.207240325481497
    H                3.577540657638032     2.991674251919965     2.603870325481497
    C               -1.508144342361969    -0.858025748080035    -3.923759674518504
    C               -0.633144342361969    -2.259025748080035    -0.735759674518504
    C               -1.452144342361969    -1.326025748080035    -2.511759674518503
    C               -2.379144342361969    -1.199025748080035    -1.524759674518503
    N               -0.362144342361969    -1.994025748080035    -2.008759674518504
    N               -1.841144342361969    -1.799025748080035    -0.417759674518503
    H                0.026855657638031    -2.785025748080034    -0.055759674518503
    H               -2.281144342361969    -1.895025748080035     0.491240325481496
    H               -3.348144342361969    -0.724025748080035    -1.604759674518504
    H               -0.530144342361969    -0.469025748080035    -4.208759674518503
    H               -2.216144342361968    -0.035025748080035    -3.960759674518504
    H               -1.817431342361969    -1.632675748080035    -4.640869674518503

}
e, wfn = energy('scf', return_wfn=True)
gdma(wfn)
dmavals = variable('DMA DISTRIBUTED MULTIPOLES')
charges = np.array(dmavals)
print(charges)
np.save('SSI-029PHE-103HIE-1-dimer.npy', np.array(charges))--------------------------------------------------------------------------

*** tstart() called on ds3
*** at Tue Apr 28 08:31:39 2020

   => Loading Basis Set <=

    Name: CC-PVDZ
    Role: ORBITAL
    Keyword: BASIS
    atoms 1-7, 16-19  entry C          line   138 file /theoryfs2/ds/metcalf/miniconda2/envs/tf2gpu/share/psi4/basis/cc-pvdz.gbs
    atoms 8-15, 22-27 entry H          line    22 file /theoryfs2/ds/metcalf/miniconda2/envs/tf2gpu/share/psi4/basis/cc-pvdz.gbs
    atoms 20-21       entry N          line   168 file /theoryfs2/ds/metcalf/miniconda2/envs/tf2gpu/share/psi4/basis/cc-pvdz.gbs

         ---------------------------------------------------------
                                   SCF
               by Justin Turney, Rob Parrish, Andy Simmonett
                          and Daniel G. A. Smith
                              RHF Reference
                        1 Threads,    500 MiB Core
         ---------------------------------------------------------

  ==> Geometry <==

    Molecular point group: c1
    Full point group: C1

    Geometry (in Angstrom), charge = 0, multiplicity = 1:

       Center              X                  Y                   Z               Mass
    ------------   -----------------  -----------------  -----------------  -----------------
         C            3.299855657638     2.642974251920     1.598240325481    12.000000000000
         C           -0.358144342362     0.458974251920     1.737240325481    12.000000000000
         C            0.837855657638    -0.184025748080     1.940240325481    12.000000000000
         C           -0.358144342362     1.804974251920     1.449240325481    12.000000000000
         C            2.026855657638     0.510974251920     1.876240325481    12.000000000000
         C            0.832855657638     2.505974251920     1.390240325481    12.000000000000
         C            2.031855657638     1.865974251920     1.599240325481    12.000000000000
         H           -1.290144342362    -0.084025748080     1.801240325481     1.007825032230
         H            0.846855657638    -1.242025748080     2.166240325481     1.007825032230
         H           -1.296144342362     2.314974251920     1.278240325481     1.007825032230
         H            2.954855657638    -0.008025748080     2.059240325481     1.007825032230
         H            0.815855657638     3.563974251920     1.182240325481     1.007825032230
         H            3.205855657638     3.500974251920     0.930240325481     1.007825032230
         H            4.097855657638     2.009974251920     1.207240325481     1.007825032230
         H            3.577540657638     2.991674251920     2.603870325481     1.007825032230
         C           -1.508144342362    -0.858025748080    -3.923759674519    12.000000000000
         C           -0.633144342362    -2.259025748080    -0.735759674519    12.000000000000
         C           -1.452144342362    -1.326025748080    -2.511759674519    12.000000000000
         C           -2.379144342362    -1.199025748080    -1.524759674519    12.000000000000
         N           -0.362144342362    -1.994025748080    -2.008759674519    14.003074004430
         N           -1.841144342362    -1.799025748080    -0.417759674519    14.003074004430
         H            0.026855657638    -2.785025748080    -0.055759674519     1.007825032230
         H           -2.281144342362    -1.895025748080     0.491240325481     1.007825032230
         H           -3.348144342362    -0.724025748080    -1.604759674519     1.007825032230
         H           -0.530144342362    -0.469025748080    -4.208759674519     1.007825032230
         H           -2.216144342362    -0.035025748080    -3.960759674519     1.007825032230
         H           -1.817431342362    -1.632675748080    -4.640869674519     1.007825032230

  Running in c1 symmetry.

  Rotational constants: A =      0.04834  B =      0.01134  C =      0.01093 [cm^-1]
  Rotational constants: A =   1449.21176  B =    340.09098  C =    327.75407 [MHz]
  Nuclear repulsion =  711.415693397305176

  Charge       = 0
  Multiplicity = 1
  Electrons    = 94
  Nalpha       = 47
  Nbeta        = 47

  ==> Algorithm <==

  SCF Algorithm Type is PK.
  DIIS enabled.
  MOM disabled.
  Fractional occupation disabled.
  Guess Type is SAD.
  Energy threshold   = 1.00e-06
  Density threshold  = 1.00e-10
  Integral threshold = 0.00e+00

  ==> Primary Basis <==

  Basis Set: CC-PVDZ
    Blend: CC-PVDZ
    Number of shells: 120
    Number of basis function: 252
    Number of Cartesian functions: 265
    Spherical Harmonics?: true
    Max angular momentum: 2

  ==> Pre-Iterations <==

   -------------------------------------------------------
    Irrep   Nso     Nmo     Nalpha   Nbeta   Ndocc  Nsocc
   -------------------------------------------------------
     A        252     252       0       0       0       0
   -------------------------------------------------------
    Total     252     252      47      47      47       0
   -------------------------------------------------------

  ==> Integral Setup <==

  Using integral reordering PK algorithm.
  Sizing the integral batches needed.
  Building batch lookup table.
   Calculation information:
      Number of atoms:                  27
      Number of AO shells:             120
      Number of primitives:            356
      Number of atomic orbitals:       265
      Number of basis functions:       252

      Integral cutoff                 1.00e-12
      Number of threads:                 1

	Batch   1 pq = [       0,    9405] index = [             0,44231715] size =     44231715
	Batch   2 pq = [    9405,   13301] index = [      44231715,88464951] size =     44233236
	Batch   3 pq = [   13301,   16290] index = [      88464951,132690195] size =     44225244
	Batch   4 pq = [   16290,   18810] index = [     132690195,176917455] size =     44227260
	Batch   5 pq = [   18810,   21030] index = [     176917455,221140965] size =     44223510
	Batch   6 pq = [   21030,   23037] index = [     221140965,265363203] size =     44222238
	Batch   7 pq = [   23037,   24883] index = [     265363203,309594286] size =     44231083
	Batch   8 pq = [   24883,   26601] index = [     309594286,353819901] size =     44225615
	Batch   9 pq = [   26601,   28214] index = [     353819901,398029005] size =     44209104
	Batch  10 pq = [   28214,   29740] index = [     398029005,442248670] size =     44219665
	Batch  11 pq = [   29740,   31191] index = [     442248670,486454836] size =     44206166
	Batch  12 pq = [   31191,   31878] index = [     486454836,508119381] size =     21664545
  Task number: 46
  Buffer size: 11059200
  Buffer per thread: 2
  We computed 23381472 shell quartets total.
  Whereas there are 26357430 unique shell quartets.

  ==> DiskJK: Disk-Based J/K Matrices <==

    J tasked:                  Yes
    K tasked:                  Yes
    wK tasked:                  No
    Memory [MiB]:              375
    Schwarz Cutoff:          1E-12

    OpenMP threads:              1

  Minimum eigenvalue in the overlap matrix is 2.8198857250E-04.
  Using Symmetric Orthogonalization.

  SCF Guess: Superposition of Atomic Densities via on-the-fly atomic UHF.

  ==> Iterations <==

                        Total Energy        Delta E     RMS |[F,P]|

   @RHF iter SAD:  -532.96480930749158   -5.32965e+02   0.00000e+00
   @RHF iter   1:  -533.33716355825277   -3.72354e-01   2.62137e-03 DIIS
   @RHF iter   2:  -533.57445812206367   -2.37295e-01   1.29598e-03 DIIS
   @RHF iter   3:  -533.62597370372168   -5.15156e-02   3.41660e-04 DIIS
   @RHF iter   4:  -533.63046429330268   -4.49059e-03   1.43149e-04 DIIS
   @RHF iter   5:  -533.63117726778944   -7.12974e-04   2.06969e-05 DIIS
   @RHF iter   6:  -533.63120206311783   -2.47953e-05   8.40079e-06 DIIS
   @RHF iter   7:  -533.63120605653535   -3.99342e-06   2.75014e-06 DIIS
   @RHF iter   8:  -533.63120677281529   -7.16280e-07   1.16452e-06 DIIS
   @RHF iter   9:  -533.63120692047994   -1.47665e-07   4.80065e-07 DIIS
   @RHF iter  10:  -533.63120694399663   -2.35167e-08   1.45807e-07 DIIS
   @RHF iter  11:  -533.63120694643555   -2.43892e-09   5.85006e-08 DIIS
   @RHF iter  12:  -533.63120694678878   -3.53225e-10   2.76818e-08 DIIS
   @RHF iter  13:  -533.63120694685779   -6.90079e-11   7.90673e-09 DIIS
   @RHF iter  14:  -533.63120694686359   -5.79803e-12   3.32418e-09 DIIS
   @RHF iter  15:  -533.63120694686791   -4.32010e-12   1.44782e-09 DIIS
   @RHF iter  16:  -533.63120694686597    1.93268e-12   5.27077e-10 DIIS
   @RHF iter  17:  -533.63120694686586    1.13687e-13   2.35883e-10 DIIS
   @RHF iter  18:  -533.63120694686666   -7.95808e-13   8.04299e-11 DIIS
  Energy and wave function converged.

  ==> Post-Iterations <==

    Orbital Energies [Eh]
    ---------------------

    Doubly Occupied:

       1A    -15.618606     2A    -15.526063     3A    -11.288919
       4A    -11.246087     5A    -11.235836     6A    -11.235254
       7A    -11.233495     8A    -11.232829     9A    -11.229447
      10A    -11.227321    11A    -11.227021    12A    -11.226115
      13A    -11.217168    14A     -1.339847    15A     -1.163022
      16A     -1.154862    17A     -1.052413    18A     -1.028146
      19A     -1.016287    20A     -0.937157    21A     -0.934395
      22A     -0.829505    23A     -0.817596    24A     -0.798281
      25A     -0.759708    26A     -0.736902    27A     -0.697018
      28A     -0.638188    29A     -0.629468    30A     -0.607019
      31A     -0.601678    32A     -0.593880    33A     -0.584007
      34A     -0.579291    35A     -0.568429    36A     -0.548683
      37A     -0.535967    38A     -0.534778    39A     -0.514396
      40A     -0.492876    41A     -0.485189    42A     -0.484441
      43A     -0.413791    44A     -0.376950    45A     -0.335431
      46A     -0.325964    47A     -0.303233

    Virtual:

      48A      0.137132    49A      0.142840    50A      0.155378
      51A      0.189909    52A      0.192199    53A      0.199144
      54A      0.206124    55A      0.215217    56A      0.229926
      57A      0.237870    58A      0.241450    59A      0.252949
      60A      0.275048    61A      0.279687    62A      0.284846
      63A      0.295222    64A      0.304735    65A      0.308688
      66A      0.373577    67A      0.377920    68A      0.381372
      69A      0.399180    70A      0.418356    71A      0.451031
      72A      0.469921    73A      0.472675    74A      0.485530
      75A      0.489618    76A      0.502430    77A      0.563687
      78A      0.591164    79A      0.605728    80A      0.620528
      81A      0.637924    82A      0.639525    83A      0.652767
      84A      0.670135    85A      0.689003    86A      0.692407
      87A      0.709010    88A      0.713496    89A      0.724728
      90A      0.737535    91A      0.741791    92A      0.741919
      93A      0.747765    94A      0.756932    95A      0.760181
      96A      0.769403    97A      0.774908    98A      0.801836
      99A      0.809467   100A      0.832068   101A      0.839914
     102A      0.847867   103A      0.860391   104A      0.861748
     105A      0.870065   106A      0.878338   107A      0.886036
     108A      0.894804   109A      0.903291   110A      0.908230
     111A      0.919603   112A      0.922105   113A      0.930810
     114A      0.935087   115A      0.942591   116A      0.955935
     117A      0.964294   118A      0.978262   119A      0.998740
     120A      1.019003   121A      1.041605   122A      1.047512
     123A      1.086954   124A      1.093241   125A      1.110303
     126A      1.119745   127A      1.124334   128A      1.148407
     129A      1.157035   130A      1.161732   131A      1.174046
     132A      1.186541   133A      1.206905   134A      1.240743
     135A      1.249317   136A      1.254810   137A      1.259744
     138A      1.274050   139A      1.284348   140A      1.303458
     141A      1.310555   142A      1.319509   143A      1.327379
     144A      1.333432   145A      1.345281   146A      1.350880
     147A      1.414840   148A      1.446166   149A      1.458785
     150A      1.476354   151A      1.511918   152A      1.532954
     153A      1.535514   154A      1.566409   155A      1.592965
     156A      1.605028   157A      1.608046   158A      1.643131
     159A      1.664700   160A      1.696885   161A      1.703536
     162A      1.719368   163A      1.733205   164A      1.754598
     165A      1.770650   166A      1.793326   167A      1.798239
     168A      1.812320   169A      1.818781   170A      1.827443
     171A      1.857064   172A      1.880457   173A      1.893115
     174A      1.901967   175A      1.910744   176A      1.914685
     177A      1.920160   178A      1.927387   179A      1.940646
     180A      1.946687   181A      1.955700   182A      1.961179
     183A      1.969530   184A      1.972565   185A      1.985152
     186A      1.992589   187A      2.001295   188A      2.016126
     189A      2.041392   190A      2.052662   191A      2.073151
     192A      2.078810   193A      2.093994   194A      2.109063
     195A      2.117351   196A      2.152610   197A      2.156712
     198A      2.166785   199A      2.179075   200A      2.191602
     201A      2.194210   202A      2.201111   203A      2.234321
     204A      2.237259   205A      2.270046   206A      2.290152
     207A      2.297773   208A      2.307175   209A      2.310919
     210A      2.319669   211A      2.340340   212A      2.346905
     213A      2.383149   214A      2.449077   215A      2.451085
     216A      2.478258   217A      2.495176   218A      2.506312
     219A      2.508971   220A      2.556978   221A      2.568381
     222A      2.617354   223A      2.637668   224A      2.702439
     225A      2.732915   226A      2.743815   227A      2.763962
     228A      2.768761   229A      2.776881   230A      2.795821
     231A      2.798777   232A      2.810432   233A      2.822935
     234A      2.847411   235A      2.853354   236A      2.858074
     237A      2.885163   238A      2.897042   239A      2.928687
     240A      2.968643   241A      3.014143   242A      3.035008
     243A      3.038142   244A      3.065592   245A      3.165863
     246A      3.179134   247A      3.235216   248A      3.249978
     249A      3.329891   250A      3.474349   251A      3.801325
     252A      4.022074

    Final Occupation by Irrep:
              A
    DOCC [    47 ]

  @RHF Final Energy:  -533.63120694686666

   => Energetics <=

    Nuclear Repulsion Energy =            711.4156933973051764
    One-Electron Energy =               -2133.7678828963034903
    Two-Electron Energy =                 888.7209825521316588
    Total Energy =                       -533.6312069468666550

Computation Completed

Properties will be evaluated at   0.000000,   0.000000,   0.000000 [a0]

Properties computed using the SCF density matrix

  Nuclear Dipole Moment: [e a0]
     X:     2.5810      Y:     5.1734      Z:    -0.6971

  Electronic Dipole Moment: [e a0]
     X:    -3.2888      Y:    -4.9405      Z:     1.7181

  Dipole Moment: [e a0]
     X:    -0.7077      Y:     0.2329      Z:     1.0210     Total:     1.2640

  Dipole Moment: [D]
     X:    -1.7989      Y:     0.5920      Z:     2.5952     Total:     3.2127

*** tstop() called on ds3 at Tue Apr 28 08:42:27 2020
Module time:
	user time   =     188.21 seconds =       3.14 minutes
	system time =      76.05 seconds =       1.27 minutes
	total time  =        648 seconds =      10.80 minutes
Total time:
	user time   =     188.21 seconds =       3.14 minutes
	system time =      76.05 seconds =       1.27 minutes
	total time  =        648 seconds =      10.80 minutes
                                     G D M A

                                 by Anthony Stone

                           version 2.2.06, 22 June 2011

               Distributed Multipoles from Gaussian wavefunctions

Starting at 8:42:27 on 28 Apr 2020

Using SCF density matrix from file ./SSI/SSI-029PHE-103HIE-1-dimer.test.14571.fchk

                         Distributed Multipole Analysis

Standard DMA

Positions and radii in angstrom
Multipole moments in atomic units, ea_0^k for rank k

C          x =  3.299856  y =  2.642974  z =  1.598240 angstrom
           Maximum rank =  0   Radius =  0.650 angstrom
                   Q00  =  -0.203042

C          x = -0.358144  y =  0.458974  z =  1.737240 angstrom
           Maximum rank =  0   Radius =  0.650 angstrom
                   Q00  =  -0.063217

C          x =  0.837856  y = -0.184026  z =  1.940240 angstrom
           Maximum rank =  0   Radius =  0.650 angstrom
                   Q00  =  -0.021931

C          x = -0.358144  y =  1.804974  z =  1.449240 angstrom
           Maximum rank =  0   Radius =  0.650 angstrom
                   Q00  =  -0.074397

C          x =  2.026856  y =  0.510974  z =  1.876240 angstrom
           Maximum rank =  0   Radius =  0.650 angstrom
                   Q00  =  -0.090016

C          x =  0.832856  y =  2.505974  z =  1.390240 angstrom
           Maximum rank =  0   Radius =  0.650 angstrom
                   Q00  =  -0.021586

C          x =  2.031856  y =  1.865974  z =  1.599240 angstrom
           Maximum rank =  0   Radius =  0.650 angstrom
                   Q00  =  -0.084158

H          x = -1.290144  y = -0.084026  z =  1.801240 angstrom
           Maximum rank =  0   Radius =  0.325 angstrom
                   Q00  =   0.034345

H          x =  0.846856  y = -1.242026  z =  2.166240 angstrom
           Maximum rank =  0   Radius =  0.325 angstrom
                   Q00  =   0.051953

H          x = -1.296144  y =  2.314974  z =  1.278240 angstrom
           Maximum rank =  0   Radius =  0.325 angstrom
                   Q00  =   0.060259

H          x =  2.954856  y = -0.008026  z =  2.059240 angstrom
           Maximum rank =  0   Radius =  0.325 angstrom
                   Q00  =   0.054528

H          x =  0.815856  y =  3.563974  z =  1.182240 angstrom
           Maximum rank =  0   Radius =  0.325 angstrom
                   Q00  =   0.053291

H          x =  3.205856  y =  3.500974  z =  0.930240 angstrom
           Maximum rank =  0   Radius =  0.325 angstrom
                   Q00  =   0.098120

H          x =  4.097856  y =  2.009974  z =  1.207240 angstrom
           Maximum rank =  0   Radius =  0.325 angstrom
                   Q00  =   0.098297

H          x =  3.577541  y =  2.991674  z =  2.603870 angstrom
           Maximum rank =  0   Radius =  0.325 angstrom
                   Q00  =   0.103995

C          x = -1.508144  y = -0.858026  z = -3.923760 angstrom
           Maximum rank =  0   Radius =  0.650 angstrom
                   Q00  =  -0.194231

C          x = -0.633144  y = -2.259026  z = -0.735760 angstrom
           Maximum rank =  0   Radius =  0.650 angstrom
                   Q00  =   0.457181

C          x = -1.452144  y = -1.326026  z = -2.511760 angstrom
           Maximum rank =  0   Radius =  0.650 angstrom
                   Q00  =   0.226931

C          x = -2.379144  y = -1.199026  z = -1.524760 angstrom
           Maximum rank =  0   Radius =  0.650 angstrom
                   Q00  =  -0.009537

N          x = -0.362144  y = -1.994026  z = -2.008760 angstrom
           Maximum rank =  0   Radius =  0.650 angstrom
                   Q00  =  -0.754276

N          x = -1.841144  y = -1.799026  z = -0.417760 angstrom
           Maximum rank =  0   Radius =  0.650 angstrom
                   Q00  =  -0.469129

H          x =  0.026856  y = -2.785026  z = -0.055760 angstrom
           Maximum rank =  0   Radius =  0.325 angstrom
                   Q00  =   0.118610

H          x = -2.281144  y = -1.895026  z =  0.491240 angstrom
           Maximum rank =  0   Radius =  0.325 angstrom
                   Q00  =   0.219867

H          x = -3.348144  y = -0.724026  z = -1.604760 angstrom
           Maximum rank =  0   Radius =  0.325 angstrom
                   Q00  =   0.101539

H          x = -0.530144  y = -0.469026  z = -4.208760 angstrom
           Maximum rank =  0   Radius =  0.325 angstrom
                   Q00  =   0.115441

H          x = -2.216144  y = -0.035026  z = -3.960760 angstrom
           Maximum rank =  0   Radius =  0.325 angstrom
                   Q00  =   0.088305

H          x = -1.817431  y = -1.632676  z = -4.640870 angstrom
           Maximum rank =  0   Radius =  0.325 angstrom
                   Q00  =   0.102858

Total multipoles referred to origin at
           x =   0.000000,  y =    0.000000,  z =    0.000000 angstrom
                   Q00  =  -0.000000

Finished at 8:42:27 on 28 Apr 2020

  DMA results are available in the Python driver through the
	  variable('DMA DISTRIBUTED MULTIPOLES')
  and
	  variable('DMA TOTAL MULTIPOLES')
  commands.

    Psi4 stopped on: Tuesday, 28 April 2020 08:42AM
    Psi4 wall time for execution: 0:10:47.95

*** Psi4 exiting successfully. Buy a developer a beer!
