                               Psi4 1.3.2 release

  ==> Input File <==

--------------------------------------------------------------------------
import numpy as np
set {scf_type pk
basis cc-pvdz
d_convergence 10
gdma_switch   0
gdma_limit    0
gdma_origin   [ 0.0,  0.0,  0.0 ]
}
molecule test {
    units Angstrom
    1 1
    --
    1 1
    C               -0.531177093142226     2.041042316888870    -0.892736899628100
    N               -1.249177093142225     0.743042316888870    -0.753736899628100
    H               -1.877177093142226     0.733042316888870     0.044263100371900
    H               -1.799177093142226     0.531042316888870    -1.581736899628100
    H               -0.599177093142226    -0.034957683111130    -0.635736899628100
    H               -1.243177093142226     2.865042316888870    -1.006736899628100
    H                0.091822906857774     2.020042316888869    -1.795736899628100
    H                0.116722906857774     2.234182316888870    -0.025026899628100
    C                1.155822906857774    -1.230957683111130     1.496263100371900
    O                0.681822906857774    -1.410957683111130     0.172263100371900
    H                0.592822906857775    -2.362957683111130    -0.002736899628100
    H                0.484822906857774    -1.743957683111130     2.187263100371900
    H                1.160822906857774    -0.175957683111130     1.758263100371900
    H                2.169622906857775    -1.642227683111130     1.610583100371900

}
e, wfn = energy('scf', return_wfn=True)
gdma(wfn)
dmavals = variable('DMA DISTRIBUTED MULTIPOLES')
charges = np.array(dmavals)
print(charges)
np.save('SSI-091LYS-140SER-2-dimer.npy', np.array(charges))--------------------------------------------------------------------------

*** tstart() called on ds3
*** at Sun Apr 26 17:36:51 2020

   => Loading Basis Set <=

    Name: CC-PVDZ
    Role: ORBITAL
    Keyword: BASIS
    atoms 1, 9       entry C          line   138 file /theoryfs2/ds/metcalf/miniconda2/envs/tf2gpu/share/psi4/basis/cc-pvdz.gbs
    atoms 2          entry N          line   168 file /theoryfs2/ds/metcalf/miniconda2/envs/tf2gpu/share/psi4/basis/cc-pvdz.gbs
    atoms 3-8, 11-14 entry H          line    22 file /theoryfs2/ds/metcalf/miniconda2/envs/tf2gpu/share/psi4/basis/cc-pvdz.gbs
    atoms 10         entry O          line   198 file /theoryfs2/ds/metcalf/miniconda2/envs/tf2gpu/share/psi4/basis/cc-pvdz.gbs

         ---------------------------------------------------------
                                   SCF
               by Justin Turney, Rob Parrish, Andy Simmonett
                          and Daniel G. A. Smith
                              RHF Reference
                        1 Threads,    500 MiB Core
         ---------------------------------------------------------

  ==> Geometry <==

    Molecular point group: c1
    Full point group: C1

    Geometry (in Angstrom), charge = 1, multiplicity = 1:

       Center              X                  Y                   Z               Mass
    ------------   -----------------  -----------------  -----------------  -----------------
         C           -0.531177093142     2.041042316889    -0.892736899628    12.000000000000
         N           -1.249177093142     0.743042316889    -0.753736899628    14.003074004430
         H           -1.877177093142     0.733042316889     0.044263100372     1.007825032230
         H           -1.799177093142     0.531042316889    -1.581736899628     1.007825032230
         H           -0.599177093142    -0.034957683111    -0.635736899628     1.007825032230
         H           -1.243177093142     2.865042316889    -1.006736899628     1.007825032230
         H            0.091822906858     2.020042316889    -1.795736899628     1.007825032230
         H            0.116722906858     2.234182316889    -0.025026899628     1.007825032230
         C            1.155822906858    -1.230957683111     1.496263100372    12.000000000000
         O            0.681822906858    -1.410957683111     0.172263100372    15.994914619570
         H            0.592822906858    -2.362957683111    -0.002736899628     1.007825032230
         H            0.484822906858    -1.743957683111     2.187263100372     1.007825032230
         H            1.160822906858    -0.175957683111     1.758263100372     1.007825032230
         H            2.169622906858    -1.642227683111     1.610583100372     1.007825032230

  Running in c1 symmetry.

  Rotational constants: A =      0.44299  B =      0.07110  C =      0.06657 [cm^-1]
  Rotational constants: A =  13280.57884  B =   2131.55093  C =   1995.59668 [MHz]
  Nuclear repulsion =  136.396619511146753

  Charge       = 1
  Multiplicity = 1
  Electrons    = 36
  Nalpha       = 18
  Nbeta        = 18

  ==> Algorithm <==

  SCF Algorithm Type is PK.
  DIIS enabled.
  MOM disabled.
  Fractional occupation disabled.
  Guess Type is SAD.
  Energy threshold   = 1.00e-06
  Density threshold  = 1.00e-10
  Integral threshold = 0.00e+00

  ==> Primary Basis <==

  Basis Set: CC-PVDZ
    Blend: CC-PVDZ
    Number of shells: 54
    Number of basis function: 106
    Number of Cartesian functions: 110
    Spherical Harmonics?: true
    Max angular momentum: 2

  ==> Pre-Iterations <==

   -------------------------------------------------------
    Irrep   Nso     Nmo     Nalpha   Nbeta   Ndocc  Nsocc
   -------------------------------------------------------
     A        106     106       0       0       0       0
   -------------------------------------------------------
    Total     106     106      18      18      18       0
   -------------------------------------------------------

  ==> Integral Setup <==

  Using in-core PK algorithm.
   Calculation information:
      Number of atoms:                  14
      Number of AO shells:              54
      Number of primitives:            138
      Number of atomic orbitals:       110
      Number of basis functions:       106

      Integral cutoff                 1.00e-12
      Number of threads:                 1

  Performing in-core PK
  Using 32165912 doubles for integral storage.
  We computed 966059 shell quartets total.
  Whereas there are 1103355 unique shell quartets.

  ==> DiskJK: Disk-Based J/K Matrices <==

    J tasked:                  Yes
    K tasked:                  Yes
    wK tasked:                  No
    Memory [MiB]:              375
    Schwarz Cutoff:          1E-12

    OpenMP threads:              1

  Minimum eigenvalue in the overlap matrix is 1.1238209752E-02.
  Using Symmetric Orthogonalization.

  SCF Guess: Superposition of Atomic Densities via on-the-fly atomic UHF.

  ==> Iterations <==

                        Total Energy        Delta E     RMS |[F,P]|

   @RHF iter SAD:  -209.90690945844960   -2.09907e+02   0.00000e+00
   @RHF iter   1:  -210.55268220266822   -6.45773e-01   4.00581e-03 DIIS
   @RHF iter   2:  -210.64750035651446   -9.48182e-02   1.69428e-03 DIIS
   @RHF iter   3:  -210.66073448669567   -1.32341e-02   5.08821e-04 DIIS
   @RHF iter   4:  -210.66247422630317   -1.73974e-03   9.73902e-05 DIIS
   @RHF iter   5:  -210.66254364925291   -6.94229e-05   2.65060e-05 DIIS
   @RHF iter   6:  -210.66254934035578   -5.69110e-06   5.05993e-06 DIIS
   @RHF iter   7:  -210.66254966854254   -3.28187e-07   1.30531e-06 DIIS
   @RHF iter   8:  -210.66254969023009   -2.16876e-08   4.80704e-07 DIIS
   @RHF iter   9:  -210.66254969215964   -1.92955e-09   9.12099e-08 DIIS
   @RHF iter  10:  -210.66254969224994   -9.02958e-11   1.54118e-08 DIIS
   @RHF iter  11:  -210.66254969225272   -2.78533e-12   4.23913e-09 DIIS
   @RHF iter  12:  -210.66254969225349   -7.67386e-13   1.15722e-09 DIIS
   @RHF iter  13:  -210.66254969225366   -1.70530e-13   2.99051e-10 DIIS
   @RHF iter  14:  -210.66254969225281    8.52651e-13   9.96237e-11 DIIS
  Energy and wave function converged.

  ==> Post-Iterations <==

    Orbital Energies [Eh]
    ---------------------

    Doubly Occupied:

       1A    -20.715453     2A    -15.888708     3A    -11.479056
       4A    -11.414254     5A     -1.512173     6A     -1.504058
       7A     -1.153469     8A     -1.064265     9A     -0.963839
      10A     -0.959050    11A     -0.851786    12A     -0.834958
      13A     -0.763316    14A     -0.754694    15A     -0.752448
      16A     -0.742901    17A     -0.647545    18A     -0.595472

    Virtual:

      19A     -0.037796    20A      0.024201    21A      0.032629
      22A      0.047476    23A      0.073799    24A      0.085867
      25A      0.104728    26A      0.129265    27A      0.147687
      28A      0.173105    29A      0.176554    30A      0.233076
      31A      0.377256    32A      0.385393    33A      0.435112
      34A      0.485180    35A      0.499161    36A      0.523920
      37A      0.556393    38A      0.596615    39A      0.640177
      40A      0.664811    41A      0.673451    42A      0.687317
      43A      0.709545    44A      0.730265    45A      0.761223
      46A      0.769182    47A      0.791695    48A      0.796820
      49A      0.847591    50A      0.925564    51A      0.927993
      52A      0.994703    53A      1.010161    54A      1.046336
      55A      1.063326    56A      1.167372    57A      1.215072
      58A      1.270616    59A      1.279180    60A      1.357471
      61A      1.432127    62A      1.474503    63A      1.513815
      64A      1.533931    65A      1.543613    66A      1.637312
      67A      1.683299    68A      1.698181    69A      1.703927
      70A      1.723722    71A      1.729951    72A      1.742807
      73A      1.759608    74A      1.789368    75A      1.820080
      76A      1.876221    77A      1.934566    78A      1.943927
      79A      1.955807    80A      1.961581    81A      2.008395
      82A      2.060565    83A      2.145589    84A      2.158629
      85A      2.215512    86A      2.242945    87A      2.261545
      88A      2.268474    89A      2.361260    90A      2.400327
      91A      2.480809    92A      2.485777    93A      2.538157
      94A      2.617228    95A      2.629038    96A      2.639327
      97A      2.736115    98A      2.738222    99A      2.763055
     100A      3.093521   101A      3.109748   102A      3.137999
     103A      3.225486   104A      3.299349   105A      3.434595
     106A      3.922670

    Final Occupation by Irrep:
              A
    DOCC [    18 ]

  @RHF Final Energy:  -210.66254969225281

   => Energetics <=

    Nuclear Repulsion Energy =            136.3966195111467528
    One-Electron Energy =                -548.9234530724962724
    Two-Electron Energy =                 201.8642838690967096
    Total Energy =                       -210.6625496922528100

Computation Completed

Properties will be evaluated at   0.000000,   0.000000,   0.000000 [a0]

Properties computed using the SCF density matrix

  Nuclear Dipole Moment: [e a0]
     X:    -0.8388      Y:     2.2628      Z:     0.5211

  Electronic Dipole Moment: [e a0]
     X:    -0.8588      Y:    -1.3657      Z:    -1.2816

  Dipole Moment: [e a0]
     X:    -1.6975      Y:     0.8971      Z:    -0.7604     Total:     2.0651

  Dipole Moment: [D]
     X:    -4.3147      Y:     2.2802      Z:    -1.9328     Total:     5.2490

*** tstop() called on ds3 at Sun Apr 26 17:36:57 2020
Module time:
	user time   =       6.28 seconds =       0.10 minutes
	system time =       0.11 seconds =       0.00 minutes
	total time  =          6 seconds =       0.10 minutes
Total time:
	user time   =       6.28 seconds =       0.10 minutes
	system time =       0.11 seconds =       0.00 minutes
	total time  =          6 seconds =       0.10 minutes
                                     G D M A

                                 by Anthony Stone

                           version 2.2.06, 22 June 2011

               Distributed Multipoles from Gaussian wavefunctions

Starting at 17:36:57 on 26 Apr 2020

Using SCF density matrix from file ./SSI/SSI-091LYS-140SER-2-dimer.test.21565.fchk

                         Distributed Multipole Analysis

Standard DMA

Positions and radii in angstrom
Multipole moments in atomic units, ea_0^k for rank k

C          x = -0.531177  y =  2.041042  z = -0.892737 angstrom
           Maximum rank =  0   Radius =  0.650 angstrom
                   Q00  =  -0.156591

N          x = -1.249177  y =  0.743042  z = -0.753737 angstrom
           Maximum rank =  0   Radius =  0.650 angstrom
                   Q00  =  -0.132706

H          x = -1.877177  y =  0.733042  z =  0.044263 angstrom
           Maximum rank =  0   Radius =  0.325 angstrom
                   Q00  =   0.253527

H          x = -1.799177  y =  0.531042  z = -1.581737 angstrom
           Maximum rank =  0   Radius =  0.325 angstrom
                   Q00  =   0.249850

H          x = -0.599177  y = -0.034958  z = -0.635737 angstrom
           Maximum rank =  0   Radius =  0.325 angstrom
                   Q00  =   0.276955

H          x = -1.243177  y =  2.865042  z = -1.006737 angstrom
           Maximum rank =  0   Radius =  0.325 angstrom
                   Q00  =   0.157812

H          x =  0.091823  y =  2.020042  z = -1.795737 angstrom
           Maximum rank =  0   Radius =  0.325 angstrom
                   Q00  =   0.161364

H          x =  0.116723  y =  2.234182  z = -0.025027 angstrom
           Maximum rank =  0   Radius =  0.325 angstrom
                   Q00  =   0.161898

C          x =  1.155823  y = -1.230958  z =  1.496263 angstrom
           Maximum rank =  0   Radius =  0.650 angstrom
                   Q00  =  -0.071175

O          x =  0.681823  y = -1.410958  z =  0.172263 angstrom
           Maximum rank =  0   Radius =  0.650 angstrom
                   Q00  =  -0.650031

H          x =  0.592823  y = -2.362958  z = -0.002737 angstrom
           Maximum rank =  0   Radius =  0.325 angstrom
                   Q00  =   0.429805

H          x =  0.484823  y = -1.743958  z =  2.187263 angstrom
           Maximum rank =  0   Radius =  0.325 angstrom
                   Q00  =   0.092385

H          x =  1.160823  y = -0.175958  z =  1.758263 angstrom
           Maximum rank =  0   Radius =  0.325 angstrom
                   Q00  =   0.107275

H          x =  2.169623  y = -1.642228  z =  1.610583 angstrom
           Maximum rank =  0   Radius =  0.325 angstrom
                   Q00  =   0.119632

Total multipoles referred to origin at
           x =   0.000000,  y =    0.000000,  z =    0.000000 angstrom
                   Q00  =   1.000000

Finished at 17:36:57 on 26 Apr 2020

  DMA results are available in the Python driver through the
	  variable('DMA DISTRIBUTED MULTIPOLES')
  and
	  variable('DMA TOTAL MULTIPOLES')
  commands.

    Psi4 stopped on: Sunday, 26 April 2020 05:36PM
    Psi4 wall time for execution: 0:00:06.57

*** Psi4 exiting successfully. Buy a developer a beer!
