                               Psi4 1.3.2 release

  ==> Input File <==

--------------------------------------------------------------------------
import numpy as np
set {scf_type pk
basis cc-pvdz
d_convergence 10
gdma_switch   0
gdma_limit    0
gdma_origin   [ 0.0,  0.0,  0.0 ]
}
molecule test {
    units Angstrom
    0 1
    --
    0 1
    C               -1.282659195454942    -2.334791920005526    -1.502845195962776
    C               -0.953659195454942    -2.511791920005526    -0.035845195962776
    O               -1.000659195454942    -3.616791920005526     0.502154804037224
    N               -0.605659195454942    -1.425791920005526     0.634154804037224
    H               -0.408659195454942    -1.523791920005526     1.618154804037224
    H               -0.501659195454942    -0.521791920005526     0.193154804037224
    H               -0.507659195454942    -1.723791920005526    -1.962845195962776
    H               -2.228659195454942    -1.801791920005526    -1.566845195962776
    H               -1.362652195454942    -3.298301920005526    -2.027481195962776
    C                0.150340804545058     3.013208079994474    -0.982845195962776
    C                0.967340804545058     2.385208079994474     0.126154804037224
    O                0.820340804545058     1.201208079994474     0.421154804037224
    N                1.827340804545058     3.169208079994474     0.760154804037224
    H                0.551340804545058     2.677208079994474    -1.939845195962776
    H                0.245340804545058     4.099208079994474    -0.935845195962776
    H                2.361340804545058     2.764208079994474     1.521154804037224
    H                1.968340804545058     4.141208079994474     0.507154804037224
    H               -0.910346195454942     2.730498079994474    -0.911988195962776

}
e, wfn = energy('scf', return_wfn=True)
gdma(wfn)
dmavals = variable('DMA DISTRIBUTED MULTIPOLES')
charges = np.array(dmavals)
print(charges)
np.save('SSI-067GLN-115GLN-1-dimer.npy', np.array(charges))--------------------------------------------------------------------------

*** tstart() called on ds3
*** at Mon Apr 27 02:09:10 2020

   => Loading Basis Set <=

    Name: CC-PVDZ
    Role: ORBITAL
    Keyword: BASIS
    atoms 1-2, 10-11 entry C          line   138 file /theoryfs2/ds/metcalf/miniconda2/envs/tf2gpu/share/psi4/basis/cc-pvdz.gbs
    atoms 3, 12      entry O          line   198 file /theoryfs2/ds/metcalf/miniconda2/envs/tf2gpu/share/psi4/basis/cc-pvdz.gbs
    atoms 4, 13      entry N          line   168 file /theoryfs2/ds/metcalf/miniconda2/envs/tf2gpu/share/psi4/basis/cc-pvdz.gbs
    atoms 5-9, 14-18 entry H          line    22 file /theoryfs2/ds/metcalf/miniconda2/envs/tf2gpu/share/psi4/basis/cc-pvdz.gbs

         ---------------------------------------------------------
                                   SCF
               by Justin Turney, Rob Parrish, Andy Simmonett
                          and Daniel G. A. Smith
                              RHF Reference
                        1 Threads,    500 MiB Core
         ---------------------------------------------------------

  ==> Geometry <==

    Molecular point group: c1
    Full point group: C1

    Geometry (in Angstrom), charge = 0, multiplicity = 1:

       Center              X                  Y                   Z               Mass
    ------------   -----------------  -----------------  -----------------  -----------------
         C           -1.282659195455    -2.334791920006    -1.502845195963    12.000000000000
         C           -0.953659195455    -2.511791920006    -0.035845195963    12.000000000000
         O           -1.000659195455    -3.616791920006     0.502154804037    15.994914619570
         N           -0.605659195455    -1.425791920006     0.634154804037    14.003074004430
         H           -0.408659195455    -1.523791920006     1.618154804037     1.007825032230
         H           -0.501659195455    -0.521791920006     0.193154804037     1.007825032230
         H           -0.507659195455    -1.723791920006    -1.962845195963     1.007825032230
         H           -2.228659195455    -1.801791920006    -1.566845195963     1.007825032230
         H           -1.362652195455    -3.298301920006    -2.027481195963     1.007825032230
         C            0.150340804545     3.013208079994    -0.982845195963    12.000000000000
         C            0.967340804545     2.385208079994     0.126154804037    12.000000000000
         O            0.820340804545     1.201208079994     0.421154804037    15.994914619570
         N            1.827340804545     3.169208079994     0.760154804037    14.003074004430
         H            0.551340804545     2.677208079994    -1.939845195963     1.007825032230
         H            0.245340804545     4.099208079994    -0.935845195963     1.007825032230
         H            2.361340804545     2.764208079994     1.521154804037     1.007825032230
         H            1.968340804545     4.141208079994     0.507154804037     1.007825032230
         H           -0.910346195455     2.730498079994    -0.911988195963     1.007825032230

  Running in c1 symmetry.

  Rotational constants: A =      0.15443  B =      0.01838  C =      0.01676 [cm^-1]
  Rotational constants: A =   4629.82540  B =    551.00310  C =    502.37748 [MHz]
  Nuclear repulsion =  349.907361842694286

  Charge       = 0
  Multiplicity = 1
  Electrons    = 64
  Nalpha       = 32
  Nbeta        = 32

  ==> Algorithm <==

  SCF Algorithm Type is PK.
  DIIS enabled.
  MOM disabled.
  Fractional occupation disabled.
  Guess Type is SAD.
  Energy threshold   = 1.00e-06
  Density threshold  = 1.00e-10
  Integral threshold = 0.00e+00

  ==> Primary Basis <==

  Basis Set: CC-PVDZ
    Blend: CC-PVDZ
    Number of shells: 78
    Number of basis function: 162
    Number of Cartesian functions: 170
    Spherical Harmonics?: true
    Max angular momentum: 2

  ==> Pre-Iterations <==

   -------------------------------------------------------
    Irrep   Nso     Nmo     Nalpha   Nbeta   Ndocc  Nsocc
   -------------------------------------------------------
     A        162     162       0       0       0       0
   -------------------------------------------------------
    Total     162     162      32      32      32       0
   -------------------------------------------------------

  ==> Integral Setup <==

  Using integral reordering PK algorithm.
  Sizing the integral batches needed.
  Building batch lookup table.
   Calculation information:
      Number of atoms:                  18
      Number of AO shells:              78
      Number of primitives:            226
      Number of atomic orbitals:       170
      Number of basis functions:       162

      Integral cutoff                 1.00e-12
      Number of threads:                 1

	Batch   1 pq = [       0,    9405] index = [             0,44231715] size =     44231715
	Batch   2 pq = [    9405,   13203] index = [      44231715,87166206] size =     42934491
  Task number: 8
  Buffer size: 11059200
  Buffer per thread: 2
  We computed 3217810 shell quartets total.
  Whereas there are 4747821 unique shell quartets.

  ==> DiskJK: Disk-Based J/K Matrices <==

    J tasked:                  Yes
    K tasked:                  Yes
    wK tasked:                  No
    Memory [MiB]:              375
    Schwarz Cutoff:          1E-12

    OpenMP threads:              1

  Minimum eigenvalue in the overlap matrix is 4.4824702332E-03.
  Using Symmetric Orthogonalization.

  SCF Guess: Superposition of Atomic Densities via on-the-fly atomic UHF.

  ==> Iterations <==

                        Total Energy        Delta E     RMS |[F,P]|

   @RHF iter SAD:  -414.53228351229120   -4.14532e+02   0.00000e+00
   @RHF iter   1:  -415.70870928285086   -1.17643e+00   4.65893e-03 DIIS
   @RHF iter   2:  -415.92112784628546   -2.12419e-01   2.73017e-03 DIIS
   @RHF iter   3:  -415.99070984777040   -6.95820e-02   5.08511e-04 DIIS
   @RHF iter   4:  -415.99483596259228   -4.12611e-03   1.94829e-04 DIIS
   @RHF iter   5:  -415.99553836719952   -7.02405e-04   3.59515e-05 DIIS
   @RHF iter   6:  -415.99558611301916   -4.77458e-05   1.81562e-05 DIIS
   @RHF iter   7:  -415.99559496284621   -8.84983e-06   6.79447e-06 DIIS
   @RHF iter   8:  -415.99559681424836   -1.85140e-06   2.02668e-06 DIIS
   @RHF iter   9:  -415.99559698546256   -1.71214e-07   4.19153e-07 DIIS
   @RHF iter  10:  -415.99559699213239   -6.66984e-09   8.42175e-08 DIIS
   @RHF iter  11:  -415.99559699233163   -1.99236e-10   3.23404e-08 DIIS
   @RHF iter  12:  -415.99559699235112   -1.94973e-11   1.07971e-08 DIIS
   @RHF iter  13:  -415.99559699235436   -3.24007e-12   3.98207e-09 DIIS
   @RHF iter  14:  -415.99559699235670   -2.33058e-12   1.23421e-09 DIIS
   @RHF iter  15:  -415.99559699235715   -4.54747e-13   3.84598e-10 DIIS
   @RHF iter  16:  -415.99559699235726   -1.13687e-13   1.49478e-10 DIIS
   @RHF iter  17:  -415.99559699235471    2.55795e-12   5.93777e-11 DIIS
  Energy and wave function converged.

  ==> Post-Iterations <==

    Orbital Energies [Eh]
    ---------------------

    Doubly Occupied:

       1A    -20.527085     2A    -20.476117     3A    -15.609842
       4A    -15.551189     5A    -11.370743     6A    -11.320040
       7A    -11.260547     8A    -11.222332     9A     -1.391490
      10A     -1.340335    11A     -1.236182    12A     -1.183385
      13A     -1.018840    14A     -0.979529    15A     -0.820637
      16A     -0.769653    17A     -0.744079    18A     -0.694990
      19A     -0.675002    20A     -0.631303    21A     -0.628568
      22A     -0.593627    23A     -0.591015    24A     -0.577271
      25A     -0.542088    26A     -0.541845    27A     -0.537582
      28A     -0.497086    29A     -0.434090    30A     -0.426722
      31A     -0.383790    32A     -0.372401

    Virtual:

      33A      0.147554    34A      0.179720    35A      0.189732
      36A      0.207162    37A      0.214158    38A      0.225121
      39A      0.243865    40A      0.256779    41A      0.265346
      42A      0.273211    43A      0.294679    44A      0.317424
      45A      0.368423    46A      0.404894    47A      0.463458
      48A      0.484301    49A      0.544464    50A      0.573744
      51A      0.616729    52A      0.646415    53A      0.654346
      54A      0.661783    55A      0.675344    56A      0.698907
      57A      0.718800    58A      0.721239    59A      0.736479
      60A      0.758168    61A      0.762897    62A      0.784861
      63A      0.819270    64A      0.840898    65A      0.860740
      66A      0.876721    67A      0.881504    68A      0.897217
      69A      0.900059    70A      0.918077    71A      0.941135
      72A      0.967641    73A      0.983767    74A      0.987548
      75A      1.018914    76A      1.035381    77A      1.045383
      78A      1.107787    79A      1.120793    80A      1.141571
      81A      1.155317    82A      1.197493    83A      1.309600
      84A      1.337162    85A      1.352421    86A      1.369012
      87A      1.380632    88A      1.389573    89A      1.391460
      90A      1.412709    91A      1.418543    92A      1.441451
      93A      1.456625    94A      1.485245    95A      1.505604
      96A      1.567223    97A      1.613823    98A      1.638294
      99A      1.673423   100A      1.681688   101A      1.704516
     102A      1.740417   103A      1.805148   104A      1.837340
     105A      1.850962   106A      1.868039   107A      1.872996
     108A      1.883026   109A      1.889926   110A      1.910083
     111A      1.917631   112A      1.933148   113A      1.947591
     114A      1.958509   115A      1.978806   116A      2.019156
     117A      2.033043   118A      2.048644   119A      2.087447
     120A      2.113736   121A      2.128730   122A      2.176929
     123A      2.205866   124A      2.259912   125A      2.276878
     126A      2.280501   127A      2.374452   128A      2.419712
     129A      2.428237   130A      2.437557   131A      2.470930
     132A      2.519392   133A      2.533784   134A      2.542384
     135A      2.603438   136A      2.613591   137A      2.615275
     138A      2.657874   139A      2.717176   140A      2.730727
     141A      2.748251   142A      2.767008   143A      2.787951
     144A      2.816102   145A      2.820955   146A      2.892069
     147A      2.959324   148A      3.045174   149A      3.063269
     150A      3.106136   151A      3.116920   152A      3.166838
     153A      3.243736   154A      3.320709   155A      3.478951
     156A      3.501046   157A      3.537270   158A      3.571653
     159A      3.860688   160A      3.891364   161A      3.910413
     162A      3.931538

    Final Occupation by Irrep:
              A
    DOCC [    32 ]

  @RHF Final Energy:  -415.99559699235471

   => Energetics <=

    Nuclear Repulsion Energy =            349.9073618426942858
    One-Electron Energy =               -1261.9071005775724643
    Two-Electron Energy =                 496.0041417425234727
    Total Energy =                       -415.9955969923547059

Computation Completed

Properties will be evaluated at   0.000000,   0.000000,   0.000000 [a0]

Properties computed using the SCF density matrix

  Nuclear Dipole Moment: [e a0]
     X:    -0.7481      Y:     7.0545      Z:    -5.1606

  Electronic Dipole Moment: [e a0]
     X:     1.5255      Y:    -3.3933      Z:     4.5639

  Dipole Moment: [e a0]
     X:     0.7774      Y:     3.6612      Z:    -0.5967     Total:     3.7901

  Dipole Moment: [D]
     X:     1.9761      Y:     9.3059      Z:    -1.5166     Total:     9.6335

*** tstop() called on ds3 at Mon Apr 27 02:09:45 2020
Module time:
	user time   =      22.80 seconds =       0.38 minutes
	system time =      12.47 seconds =       0.21 minutes
	total time  =         35 seconds =       0.58 minutes
Total time:
	user time   =      22.80 seconds =       0.38 minutes
	system time =      12.47 seconds =       0.21 minutes
	total time  =         35 seconds =       0.58 minutes
                                     G D M A

                                 by Anthony Stone

                           version 2.2.06, 22 June 2011

               Distributed Multipoles from Gaussian wavefunctions

Starting at 2:9:45 on 27 Apr 2020

Using SCF density matrix from file ./SSI/SSI-067GLN-115GLN-1-dimer.test.15785.fchk

                         Distributed Multipole Analysis

Standard DMA

Positions and radii in angstrom
Multipole moments in atomic units, ea_0^k for rank k

C          x = -1.282659  y = -2.334792  z = -1.502845 angstrom
           Maximum rank =  0   Radius =  0.650 angstrom
                   Q00  =  -0.260318

C          x = -0.953659  y = -2.511792  z = -0.035845 angstrom
           Maximum rank =  0   Radius =  0.650 angstrom
                   Q00  =   0.834678

O          x = -1.000659  y = -3.616792  z =  0.502155 angstrom
           Maximum rank =  0   Radius =  0.650 angstrom
                   Q00  =  -0.815546

N          x = -0.605659  y = -1.425792  z =  0.634155 angstrom
           Maximum rank =  0   Radius =  0.650 angstrom
                   Q00  =  -0.543156

H          x = -0.408659  y = -1.523792  z =  1.618155 angstrom
           Maximum rank =  0   Radius =  0.325 angstrom
                   Q00  =   0.211411

H          x = -0.501659  y = -0.521792  z =  0.193155 angstrom
           Maximum rank =  0   Radius =  0.325 angstrom
                   Q00  =   0.232101

H          x = -0.507659  y = -1.723792  z = -1.962845 angstrom
           Maximum rank =  0   Radius =  0.325 angstrom
                   Q00  =   0.095039

H          x = -2.228659  y = -1.801792  z = -1.566845 angstrom
           Maximum rank =  0   Radius =  0.325 angstrom
                   Q00  =   0.110144

H          x = -1.362652  y = -3.298302  z = -2.027481 angstrom
           Maximum rank =  0   Radius =  0.325 angstrom
                   Q00  =   0.122644

C          x =  0.150341  y =  3.013208  z = -0.982845 angstrom
           Maximum rank =  0   Radius =  0.650 angstrom
                   Q00  =  -0.262616

C          x =  0.967341  y =  2.385208  z =  0.126155 angstrom
           Maximum rank =  0   Radius =  0.650 angstrom
                   Q00  =   0.811425

O          x =  0.820341  y =  1.201208  z =  0.421155 angstrom
           Maximum rank =  0   Radius =  0.650 angstrom
                   Q00  =  -0.795560

N          x =  1.827341  y =  3.169208  z =  0.760155 angstrom
           Maximum rank =  0   Radius =  0.650 angstrom
                   Q00  =  -0.531879

H          x =  0.551341  y =  2.677208  z = -1.939845 angstrom
           Maximum rank =  0   Radius =  0.325 angstrom
                   Q00  =   0.135307

H          x =  0.245341  y =  4.099208  z = -0.935845 angstrom
           Maximum rank =  0   Radius =  0.325 angstrom
                   Q00  =   0.080462

H          x =  2.361341  y =  2.764208  z =  1.521155 angstrom
           Maximum rank =  0   Radius =  0.325 angstrom
                   Q00  =   0.225505

H          x =  1.968341  y =  4.141208  z =  0.507155 angstrom
           Maximum rank =  0   Radius =  0.325 angstrom
                   Q00  =   0.217103

H          x = -0.910346  y =  2.730498  z = -0.911988 angstrom
           Maximum rank =  0   Radius =  0.325 angstrom
                   Q00  =   0.133257

Total multipoles referred to origin at
           x =   0.000000,  y =    0.000000,  z =    0.000000 angstrom
                   Q00  =  -0.000000

Finished at 2:9:45 on 27 Apr 2020

  DMA results are available in the Python driver through the
	  variable('DMA DISTRIBUTED MULTIPOLES')
  and
	  variable('DMA TOTAL MULTIPOLES')
  commands.

    Psi4 stopped on: Monday, 27 April 2020 02:09AM
    Psi4 wall time for execution: 0:00:35.17

*** Psi4 exiting successfully. Buy a developer a beer!
