                               Psi4 1.3.2 release

  ==> Input File <==

--------------------------------------------------------------------------
import numpy as np
set {scf_type pk
basis cc-pvdz
d_convergence 10
gdma_switch   0
gdma_limit    0
gdma_origin   [ 0.0,  0.0,  0.0 ]
}
molecule test {
    units Angstrom
    0 1
    --
    0 1
    C               -1.630270101880533    -2.660008326393128     0.270642391514587
    N               -0.838270101880533    -1.957008326393127     1.349642391514587
    H               -1.456270101880533    -1.498008326393127     2.010642391514587
    H               -0.269270101880533    -2.609008326393128     1.878642391514587
    H               -0.237270101880533    -1.233008326393127     0.947642391514587
    H               -2.347270101880533    -3.359008326393127     0.716642391514587
    H               -0.960270101880533    -3.226008326393127    -0.386357608485413
    H               -2.172250101880533    -1.910668326393127    -0.324967608485413
    C                0.489729898119467     1.956991673606873    -1.732357608485413
    C                0.671729898119467     1.177991673606873    -0.395357608485413
    O                0.799729898119467    -0.086008326393127    -0.324357608485413
    O                0.669729898119467     1.907991673606873     0.617642391514587
    H                1.378729898119467     2.569991673606872    -1.893357608485412
    H               -0.379270101880533     2.615991673606872    -1.664357608485413
    H                0.351009898119467     1.269441673606873    -2.579727608485413

}
e, wfn = energy('scf', return_wfn=True)
gdma(wfn)
dmavals = variable('DMA DISTRIBUTED MULTIPOLES')
charges = np.array(dmavals)
print(charges)
np.save('SSI-135LYS-157GLU-1-dimer.npy', np.array(charges))--------------------------------------------------------------------------

*** tstart() called on ds3
*** at Tue Apr 28 09:08:17 2020

   => Loading Basis Set <=

    Name: CC-PVDZ
    Role: ORBITAL
    Keyword: BASIS
    atoms 1, 9-10    entry C          line   138 file /theoryfs2/ds/metcalf/miniconda2/envs/tf2gpu/share/psi4/basis/cc-pvdz.gbs
    atoms 2          entry N          line   168 file /theoryfs2/ds/metcalf/miniconda2/envs/tf2gpu/share/psi4/basis/cc-pvdz.gbs
    atoms 3-8, 13-15 entry H          line    22 file /theoryfs2/ds/metcalf/miniconda2/envs/tf2gpu/share/psi4/basis/cc-pvdz.gbs
    atoms 11-12      entry O          line   198 file /theoryfs2/ds/metcalf/miniconda2/envs/tf2gpu/share/psi4/basis/cc-pvdz.gbs

         ---------------------------------------------------------
                                   SCF
               by Justin Turney, Rob Parrish, Andy Simmonett
                          and Daniel G. A. Smith
                              RHF Reference
                        1 Threads,    500 MiB Core
         ---------------------------------------------------------

  ==> Geometry <==

    Molecular point group: c1
    Full point group: C1

    Geometry (in Angstrom), charge = 0, multiplicity = 1:

       Center              X                  Y                   Z               Mass
    ------------   -----------------  -----------------  -----------------  -----------------
         C           -1.630270101881    -2.660008326393     0.270642391515    12.000000000000
         N           -0.838270101881    -1.957008326393     1.349642391515    14.003074004430
         H           -1.456270101881    -1.498008326393     2.010642391515     1.007825032230
         H           -0.269270101881    -2.609008326393     1.878642391515     1.007825032230
         H           -0.237270101881    -1.233008326393     0.947642391515     1.007825032230
         H           -2.347270101881    -3.359008326393     0.716642391515     1.007825032230
         H           -0.960270101881    -3.226008326393    -0.386357608485     1.007825032230
         H           -2.172250101881    -1.910668326393    -0.324967608485     1.007825032230
         C            0.489729898119     1.956991673607    -1.732357608485    12.000000000000
         C            0.671729898119     1.177991673607    -0.395357608485    12.000000000000
         O            0.799729898119    -0.086008326393    -0.324357608485    15.994914619570
         O            0.669729898119     1.907991673607     0.617642391515    15.994914619570
         H            1.378729898119     2.569991673607    -1.893357608485     1.007825032230
         H           -0.379270101881     2.615991673607    -1.664357608485     1.007825032230
         H            0.351009898119     1.269441673607    -2.579727608485     1.007825032230

  Running in c1 symmetry.

  Rotational constants: A =      0.21084  B =      0.03948  C =      0.03587 [cm^-1]
  Rotational constants: A =   6320.67466  B =   1183.52410  C =   1075.35659 [MHz]
  Nuclear repulsion =  232.612023756853660

  Charge       = 0
  Multiplicity = 1
  Electrons    = 50
  Nalpha       = 25
  Nbeta        = 25

  ==> Algorithm <==

  SCF Algorithm Type is PK.
  DIIS enabled.
  MOM disabled.
  Fractional occupation disabled.
  Guess Type is SAD.
  Energy threshold   = 1.00e-06
  Density threshold  = 1.00e-10
  Integral threshold = 0.00e+00

  ==> Primary Basis <==

  Basis Set: CC-PVDZ
    Blend: CC-PVDZ
    Number of shells: 63
    Number of basis function: 129
    Number of Cartesian functions: 135
    Spherical Harmonics?: true
    Max angular momentum: 2

  ==> Pre-Iterations <==

   -------------------------------------------------------
    Irrep   Nso     Nmo     Nalpha   Nbeta   Ndocc  Nsocc
   -------------------------------------------------------
     A        129     129       0       0       0       0
   -------------------------------------------------------
    Total     129     129      25      25      25       0
   -------------------------------------------------------

  ==> Integral Setup <==

  Using integral reordering PK algorithm.
  Sizing the integral batches needed.
  Building batch lookup table.
   Calculation information:
      Number of atoms:                  15
      Number of AO shells:              63
      Number of primitives:            177
      Number of atomic orbitals:       135
      Number of basis functions:       129

      Integral cutoff                 1.00e-12
      Number of threads:                 1

	Batch   1 pq = [       0,    8385] index = [             0,35158305] size =     35158305
  Task number: 4
  Buffer size: 11059200
  Buffer per thread: 2
  We computed 1628865 shell quartets total.
  Whereas there are 2033136 unique shell quartets.

  ==> DiskJK: Disk-Based J/K Matrices <==

    J tasked:                  Yes
    K tasked:                  Yes
    wK tasked:                  No
    Memory [MiB]:              375
    Schwarz Cutoff:          1E-12

    OpenMP threads:              1

  Minimum eigenvalue in the overlap matrix is 6.0736894255E-03.
  Using Symmetric Orthogonalization.

  SCF Guess: Superposition of Atomic Densities via on-the-fly atomic UHF.

  ==> Iterations <==

                        Total Energy        Delta E     RMS |[F,P]|

   @RHF iter SAD:  -321.54291401829767   -3.21543e+02   0.00000e+00
   @RHF iter   1:  -322.76689292883623   -1.22398e+00   5.28042e-03 DIIS
   @RHF iter   2:  -322.93695543831626   -1.70063e-01   3.00747e-03 DIIS
   @RHF iter   3:  -322.99003106068591   -5.30756e-02   4.80827e-04 DIIS
   @RHF iter   4:  -322.99264594411960   -2.61488e-03   1.61120e-04 DIIS
   @RHF iter   5:  -322.99294870186566   -3.02758e-04   3.28591e-05 DIIS
   @RHF iter   6:  -322.99296611015365   -1.74083e-05   1.81420e-05 DIIS
   @RHF iter   7:  -322.99296932856720   -3.21841e-06   4.78988e-06 DIIS
   @RHF iter   8:  -322.99297007363248   -7.45065e-07   2.17765e-06 DIIS
   @RHF iter   9:  -322.99297020771979   -1.34087e-07   5.70177e-07 DIIS
   @RHF iter  10:  -322.99297021627677   -8.55698e-09   1.71429e-07 DIIS
   @RHF iter  11:  -322.99297021682344   -5.46663e-10   3.98591e-08 DIIS
   @RHF iter  12:  -322.99297021686021   -3.67777e-11   1.18967e-08 DIIS
   @RHF iter  13:  -322.99297021686345   -3.24007e-12   4.92623e-09 DIIS
   @RHF iter  14:  -322.99297021686380   -3.41061e-13   2.08847e-09 DIIS
   @RHF iter  15:  -322.99297021686340    3.97904e-13   8.88679e-10 DIIS
   @RHF iter  16:  -322.99297021686357   -1.70530e-13   3.85224e-10 DIIS
   @RHF iter  17:  -322.99297021686482   -1.25056e-12   1.15154e-10 DIIS
   @RHF iter  18:  -322.99297021686414    6.82121e-13   4.89511e-11 DIIS
  Energy and wave function converged.

  ==> Post-Iterations <==

    Orbital Energies [Eh]
    ---------------------

    Doubly Occupied:

       1A    -20.419261     2A    -20.394048     3A    -15.748337
       4A    -11.360571     5A    -11.259506     6A    -11.168389
       7A     -1.363349     8A     -1.287039     9A     -1.175636
      10A     -1.026574    11A     -0.906731    12A     -0.826106
      13A     -0.816724    14A     -0.713162    15A     -0.637065
      16A     -0.633502    17A     -0.627795    18A     -0.540085
      19A     -0.527632    20A     -0.526386    21A     -0.472002
      22A     -0.440380    23A     -0.330166    24A     -0.307254
      25A     -0.306769

    Virtual:

      26A      0.089227    27A      0.148418    28A      0.154460
      29A      0.190740    30A      0.210034    31A      0.249950
      32A      0.260093    33A      0.280776    34A      0.311492
      35A      0.324862    36A      0.359978    37A      0.451273
      38A      0.501292    39A      0.514799    40A      0.553552
      41A      0.573971    42A      0.602239    43A      0.652476
      44A      0.673356    45A      0.707724    46A      0.756551
      47A      0.773715    48A      0.784704    49A      0.791796
      50A      0.813692    51A      0.829490    52A      0.847112
      53A      0.887999    54A      0.908304    55A      0.922775
      56A      0.924787    57A      0.930999    58A      0.962154
      59A      0.990140    60A      1.012641    61A      1.059751
      62A      1.082247    63A      1.091637    64A      1.185653
      65A      1.213258    66A      1.238062    67A      1.310660
      68A      1.372816    69A      1.399891    70A      1.428153
      71A      1.446151    72A      1.463054    73A      1.477538
      74A      1.523931    75A      1.558885    76A      1.587041
      77A      1.599351    78A      1.637557    79A      1.713641
      80A      1.730994    81A      1.763903    82A      1.807201
      83A      1.813063    84A      1.831569    85A      1.854468
      86A      1.881748    87A      1.904177    88A      1.955525
      89A      1.965634    90A      1.982213    91A      2.053480
      92A      2.075093    93A      2.079980    94A      2.091658
      95A      2.093838    96A      2.148898    97A      2.164553
      98A      2.201732    99A      2.264710   100A      2.285923
     101A      2.310447   102A      2.378490   103A      2.402046
     104A      2.454253   105A      2.525923   106A      2.548724
     107A      2.577426   108A      2.609612   109A      2.615204
     110A      2.631364   111A      2.654568   112A      2.803624
     113A      2.844477   114A      2.848557   115A      2.857639
     116A      2.875383   117A      2.913765   118A      3.099041
     119A      3.125969   120A      3.149958   121A      3.210177
     122A      3.221851   123A      3.262852   124A      3.479979
     125A      3.596080   126A      3.663203   127A      3.900585
     128A      3.935219   129A      4.042792

    Final Occupation by Irrep:
              A
    DOCC [    25 ]

  @RHF Final Energy:  -322.99297021686414

   => Energetics <=

    Nuclear Repulsion Energy =            232.6120237568536595
    One-Electron Energy =                -903.5810530227453228
    Two-Electron Energy =                 347.9760590490275263
    Total Energy =                       -322.9929702168641370

Computation Completed

Properties will be evaluated at   0.000000,   0.000000,   0.000000 [a0]

Properties computed using the SCF density matrix

  Nuclear Dipole Moment: [e a0]
     X:    -5.7017      Y:    -6.9044      Z:    -1.2167

  Electronic Dipole Moment: [e a0]
     X:     2.8969      Y:     2.3807      Z:     2.5585

  Dipole Moment: [e a0]
     X:    -2.8048      Y:    -4.5237      Z:     1.3418     Total:     5.4891

  Dipole Moment: [D]
     X:    -7.1291      Y:   -11.4980      Z:     3.4105     Total:    13.9520

*** tstop() called on ds3 at Tue Apr 28 09:08:35 2020
Module time:
	user time   =      12.09 seconds =       0.20 minutes
	system time =       5.48 seconds =       0.09 minutes
	total time  =         18 seconds =       0.30 minutes
Total time:
	user time   =      12.09 seconds =       0.20 minutes
	system time =       5.48 seconds =       0.09 minutes
	total time  =         18 seconds =       0.30 minutes
                                     G D M A

                                 by Anthony Stone

                           version 2.2.06, 22 June 2011

               Distributed Multipoles from Gaussian wavefunctions

Starting at 9:8:35 on 28 Apr 2020

Using SCF density matrix from file ./SSI/SSI-135LYS-157GLU-1-dimer.test.9630.fchk

                         Distributed Multipole Analysis

Standard DMA

Positions and radii in angstrom
Multipole moments in atomic units, ea_0^k for rank k

C          x = -1.630270  y = -2.660008  z =  0.270642 angstrom
           Maximum rank =  0   Radius =  0.650 angstrom
                   Q00  =  -0.133167

N          x = -0.838270  y = -1.957008  z =  1.349642 angstrom
           Maximum rank =  0   Radius =  0.650 angstrom
                   Q00  =  -0.113899

H          x = -1.456270  y = -1.498008  z =  2.010642 angstrom
           Maximum rank =  0   Radius =  0.325 angstrom
                   Q00  =   0.233929

H          x = -0.269270  y = -2.609008  z =  1.878642 angstrom
           Maximum rank =  0   Radius =  0.325 angstrom
                   Q00  =   0.232952

H          x = -0.237270  y = -1.233008  z =  0.947642 angstrom
           Maximum rank =  0   Radius =  0.325 angstrom
                   Q00  =   0.285078

H          x = -2.347270  y = -3.359008  z =  0.716642 angstrom
           Maximum rank =  0   Radius =  0.325 angstrom
                   Q00  =   0.123408

H          x = -0.960270  y = -3.226008  z = -0.386358 angstrom
           Maximum rank =  0   Radius =  0.325 angstrom
                   Q00  =   0.161048

H          x = -2.172250  y = -1.910668  z = -0.324968 angstrom
           Maximum rank =  0   Radius =  0.325 angstrom
                   Q00  =   0.163058

C          x =  0.489730  y =  1.956992  z = -1.732358 angstrom
           Maximum rank =  0   Radius =  0.650 angstrom
                   Q00  =  -0.285431

C          x =  0.671730  y =  1.177992  z = -0.395358 angstrom
           Maximum rank =  0   Radius =  0.650 angstrom
                   Q00  =   0.904837

O          x =  0.799730  y = -0.086008  z = -0.324358 angstrom
           Maximum rank =  0   Radius =  0.650 angstrom
                   Q00  =  -0.960979

O          x =  0.669730  y =  1.907992  z =  0.617642 angstrom
           Maximum rank =  0   Radius =  0.650 angstrom
                   Q00  =  -0.867505

H          x =  1.378730  y =  2.569992  z = -1.893358 angstrom
           Maximum rank =  0   Radius =  0.325 angstrom
                   Q00  =   0.109990

H          x = -0.379270  y =  2.615992  z = -1.664358 angstrom
           Maximum rank =  0   Radius =  0.325 angstrom
                   Q00  =   0.092592

H          x =  0.351010  y =  1.269442  z = -2.579728 angstrom
           Maximum rank =  0   Radius =  0.325 angstrom
                   Q00  =   0.054089

Total multipoles referred to origin at
           x =   0.000000,  y =    0.000000,  z =    0.000000 angstrom
                   Q00  =  -0.000000

Finished at 9:8:35 on 28 Apr 2020

  DMA results are available in the Python driver through the
	  variable('DMA DISTRIBUTED MULTIPOLES')
  and
	  variable('DMA TOTAL MULTIPOLES')
  commands.

    Psi4 stopped on: Tuesday, 28 April 2020 09:08AM
    Psi4 wall time for execution: 0:00:17.58

*** Psi4 exiting successfully. Buy a developer a beer!
