                               Psi4 1.3.2 release

  ==> Input File <==

--------------------------------------------------------------------------
import numpy as np
set {scf_type pk
basis cc-pvdz
d_convergence 10
gdma_switch   0
gdma_limit    0
gdma_origin   [ 0.0,  0.0,  0.0 ]
}
molecule test {
    units Angstrom
    0 1
    --
    0 1
    C                2.008667766544908     0.859112448137364     2.562719601690540
    O                1.852667766544908     1.429112448137364     1.267719601690540
    H                2.623667766544908     1.180112448137364     0.743719601690540
    H                2.843667766544908     1.352112448137364     3.062719601690540
    H                1.089107766544908     1.000802448137364     3.149519601690540
    H                2.236607766544908    -0.212057551862636     2.459569601690540
    C               -2.272332233455092     0.083112448137364    -0.674280398309460
    C               -0.989332233455092    -0.632887551862636    -1.010280398309460
    O                0.043667766544908    -0.363887551862636    -0.403280398309460
    N               -1.027332233455092    -1.533887551862636    -1.971280398309460
    H               -3.047332233455092     0.217112448137364    -1.391280398309460
    H               -1.942332233455092     1.123112448137364    -0.670280398309460
    H               -0.179332233455092    -2.026887551862635    -2.203280398309460
    H               -1.930332233455092    -1.842887551862636    -2.302280398309460
    H               -2.596612233455092    -0.068167551862636     0.365889601690540

}
e, wfn = energy('scf', return_wfn=True)
gdma(wfn)
dmavals = variable('DMA DISTRIBUTED MULTIPOLES')
charges = np.array(dmavals)
print(charges)
np.save('SSI-095THR-182ASN-1-dimer.npy', np.array(charges))--------------------------------------------------------------------------

*** tstart() called on ds3
*** at Sun Apr 26 17:46:08 2020

   => Loading Basis Set <=

    Name: CC-PVDZ
    Role: ORBITAL
    Keyword: BASIS
    atoms 1, 7-8     entry C          line   138 file /theoryfs2/ds/metcalf/miniconda2/envs/tf2gpu/share/psi4/basis/cc-pvdz.gbs
    atoms 2, 9       entry O          line   198 file /theoryfs2/ds/metcalf/miniconda2/envs/tf2gpu/share/psi4/basis/cc-pvdz.gbs
    atoms 3-6, 11-15 entry H          line    22 file /theoryfs2/ds/metcalf/miniconda2/envs/tf2gpu/share/psi4/basis/cc-pvdz.gbs
    atoms 10         entry N          line   168 file /theoryfs2/ds/metcalf/miniconda2/envs/tf2gpu/share/psi4/basis/cc-pvdz.gbs

         ---------------------------------------------------------
                                   SCF
               by Justin Turney, Rob Parrish, Andy Simmonett
                          and Daniel G. A. Smith
                              RHF Reference
                        1 Threads,    500 MiB Core
         ---------------------------------------------------------

  ==> Geometry <==

    Molecular point group: c1
    Full point group: C1

    Geometry (in Angstrom), charge = 0, multiplicity = 1:

       Center              X                  Y                   Z               Mass
    ------------   -----------------  -----------------  -----------------  -----------------
         C            2.008667766545     0.859112448137     2.562719601691    12.000000000000
         O            1.852667766545     1.429112448137     1.267719601691    15.994914619570
         H            2.623667766545     1.180112448137     0.743719601691     1.007825032230
         H            2.843667766545     1.352112448137     3.062719601691     1.007825032230
         H            1.089107766545     1.000802448137     3.149519601691     1.007825032230
         H            2.236607766545    -0.212057551863     2.459569601691     1.007825032230
         C           -2.272332233455     0.083112448137    -0.674280398309    12.000000000000
         C           -0.989332233455    -0.632887551863    -1.010280398309    12.000000000000
         O            0.043667766545    -0.363887551863    -0.403280398309    15.994914619570
         N           -1.027332233455    -1.533887551863    -1.971280398309    14.003074004430
         H           -3.047332233455     0.217112448137    -1.391280398309     1.007825032230
         H           -1.942332233455     1.123112448137    -0.670280398309     1.007825032230
         H           -0.179332233455    -2.026887551863    -2.203280398309     1.007825032230
         H           -1.930332233455    -1.842887551863    -2.302280398309     1.007825032230
         H           -2.596612233455    -0.068167551863     0.365889601691     1.007825032230

  Running in c1 symmetry.

  Rotational constants: A =      0.23674  B =      0.03409  C =      0.03159 [cm^-1]
  Rotational constants: A =   7097.17409  B =   1021.91337  C =    947.08567 [MHz]
  Nuclear repulsion =  229.456032357926915

  Charge       = 0
  Multiplicity = 1
  Electrons    = 50
  Nalpha       = 25
  Nbeta        = 25

  ==> Algorithm <==

  SCF Algorithm Type is PK.
  DIIS enabled.
  MOM disabled.
  Fractional occupation disabled.
  Guess Type is SAD.
  Energy threshold   = 1.00e-06
  Density threshold  = 1.00e-10
  Integral threshold = 0.00e+00

  ==> Primary Basis <==

  Basis Set: CC-PVDZ
    Blend: CC-PVDZ
    Number of shells: 63
    Number of basis function: 129
    Number of Cartesian functions: 135
    Spherical Harmonics?: true
    Max angular momentum: 2

  ==> Pre-Iterations <==

   -------------------------------------------------------
    Irrep   Nso     Nmo     Nalpha   Nbeta   Ndocc  Nsocc
   -------------------------------------------------------
     A        129     129       0       0       0       0
   -------------------------------------------------------
    Total     129     129      25      25      25       0
   -------------------------------------------------------

  ==> Integral Setup <==

  Using integral reordering PK algorithm.
  Sizing the integral batches needed.
  Building batch lookup table.
   Calculation information:
      Number of atoms:                  15
      Number of AO shells:              63
      Number of primitives:            177
      Number of atomic orbitals:       135
      Number of basis functions:       129

      Integral cutoff                 1.00e-12
      Number of threads:                 1

	Batch   1 pq = [       0,    8385] index = [             0,35158305] size =     35158305
  Task number: 4
  Buffer size: 11059200
  Buffer per thread: 2
  We computed 1523126 shell quartets total.
  Whereas there are 2033136 unique shell quartets.

  ==> DiskJK: Disk-Based J/K Matrices <==

    J tasked:                  Yes
    K tasked:                  Yes
    wK tasked:                  No
    Memory [MiB]:              375
    Schwarz Cutoff:          1E-12

    OpenMP threads:              1

  Minimum eigenvalue in the overlap matrix is 4.5676413412E-03.
  Using Symmetric Orthogonalization.

  SCF Guess: Superposition of Atomic Densities via on-the-fly atomic UHF.

  ==> Iterations <==

                        Total Energy        Delta E     RMS |[F,P]|

   @RHF iter SAD:  -321.69170742907562   -3.21692e+02   0.00000e+00
   @RHF iter   1:  -322.80765815470363   -1.11595e+00   5.09010e-03 DIIS
   @RHF iter   2:  -322.96925570844559   -1.61598e-01   2.99047e-03 DIIS
   @RHF iter   3:  -323.02240593164504   -5.31502e-02   5.54653e-04 DIIS
   @RHF iter   4:  -323.02540945288945   -3.00352e-03   2.22458e-04 DIIS
   @RHF iter   5:  -323.02592485315688   -5.15400e-04   4.69808e-05 DIIS
   @RHF iter   6:  -323.02596034575936   -3.54926e-05   2.07941e-05 DIIS
   @RHF iter   7:  -323.02596775381545   -7.40806e-06   7.62751e-06 DIIS
   @RHF iter   8:  -323.02596917341373   -1.41960e-06   2.65108e-06 DIIS
   @RHF iter   9:  -323.02596934387225   -1.70459e-07   7.94127e-07 DIIS
   @RHF iter  10:  -323.02596935635637   -1.24841e-08   2.77294e-07 DIIS
   @RHF iter  11:  -323.02596935765587   -1.29950e-09   4.96108e-08 DIIS
   @RHF iter  12:  -323.02596935770811   -5.22391e-11   1.36040e-08 DIIS
   @RHF iter  13:  -323.02596935771061   -2.50111e-12   4.41823e-09 DIIS
   @RHF iter  14:  -323.02596935771248   -1.87583e-12   1.95879e-09 DIIS
   @RHF iter  15:  -323.02596935771169    7.95808e-13   8.25124e-10 DIIS
   @RHF iter  16:  -323.02596935771305   -1.36424e-12   3.35660e-10 DIIS
   @RHF iter  17:  -323.02596935771345   -3.97904e-13   1.37195e-10 DIIS
   @RHF iter  18:  -323.02596935771209    1.36424e-12   3.66001e-11 DIIS
  Energy and wave function converged.

  ==> Post-Iterations <==

    Orbital Energies [Eh]
    ---------------------

    Doubly Occupied:

       1A    -20.519542     2A    -20.493658     3A    -15.584759
       4A    -11.341508     5A    -11.255271     6A    -11.229428
       7A     -1.361710     8A     -1.318948     9A     -1.214223
      10A     -0.996906    11A     -0.895560    12A     -0.796491
      13A     -0.727826    14A     -0.655136    15A     -0.652761
      16A     -0.606619    17A     -0.591471    18A     -0.567070
      19A     -0.561297    20A     -0.540080    21A     -0.503222
      22A     -0.469536    23A     -0.413685    24A     -0.404272
      25A     -0.395991

    Virtual:

      26A      0.172439    27A      0.203867    28A      0.206686
      29A      0.218466    30A      0.233165    31A      0.245992
      32A      0.263359    33A      0.282673    34A      0.288125
      35A      0.294980    36A      0.380831    37A      0.396519
      38A      0.465468    39A      0.563492    40A      0.606486
      41A      0.657208    42A      0.657931    43A      0.681793
      44A      0.695862    45A      0.722846    46A      0.748355
      47A      0.753014    48A      0.807482    49A      0.828147
      50A      0.854427    51A      0.860615    52A      0.880168
      53A      0.904285    54A      0.916355    55A      0.921174
      56A      0.937446    57A      0.946419    58A      1.009157
      59A      1.015054    60A      1.035133    61A      1.105598
      62A      1.114487    63A      1.143107    64A      1.186425
      65A      1.196977    66A      1.285589    67A      1.309009
      68A      1.332793    69A      1.377840    70A      1.390502
      71A      1.429306    72A      1.434248    73A      1.469503
      74A      1.485062    75A      1.527256    76A      1.643497
      77A      1.654433    78A      1.667579    79A      1.685438
      80A      1.689808    81A      1.740931    82A      1.804297
      83A      1.817360    84A      1.872945    85A      1.878513
      86A      1.915386    87A      1.924049    88A      1.939290
      89A      1.956992    90A      1.971561    91A      1.982094
      92A      2.024366    93A      2.038837    94A      2.060932
      95A      2.094732    96A      2.099730    97A      2.183727
      98A      2.279410    99A      2.313267   100A      2.371395
     101A      2.384587   102A      2.392858   103A      2.422267
     104A      2.439734   105A      2.468144   106A      2.529202
     107A      2.537754   108A      2.600273   109A      2.638288
     110A      2.735586   111A      2.763382   112A      2.768317
     113A      2.793398   114A      2.801668   115A      2.835645
     116A      2.914847   117A      2.965328   118A      3.103603
     119A      3.142667   120A      3.298361   121A      3.334464
     122A      3.408094   123A      3.470017   124A      3.530257
     125A      3.552683   126A      3.615813   127A      3.886332
     128A      3.926584   129A      4.116307

    Final Occupation by Irrep:
              A
    DOCC [    25 ]

  @RHF Final Energy:  -323.02596935771209

   => Energetics <=

    Nuclear Repulsion Energy =            229.4560323579269152
    One-Electron Energy =                -896.7700620822697601
    Two-Electron Energy =                 344.2880603666307593
    Total Energy =                       -323.0259693577120856

Computation Completed

Properties will be evaluated at   0.000000,   0.000000,   0.000000 [a0]

Properties computed using the SCF density matrix

  Nuclear Dipole Moment: [e a0]
     X:    -0.8343      Y:     0.6876      Z:     3.0232

  Electronic Dipole Moment: [e a0]
     X:     0.1254      Y:    -1.6665      Z:    -3.7443

  Dipole Moment: [e a0]
     X:    -0.7089      Y:    -0.9789      Z:    -0.7211     Total:     1.4074

  Dipole Moment: [D]
     X:    -1.8018      Y:    -2.4881      Z:    -1.8328     Total:     3.5772

*** tstop() called on ds3 at Sun Apr 26 17:46:25 2020
Module time:
	user time   =      11.06 seconds =       0.18 minutes
	system time =       5.86 seconds =       0.10 minutes
	total time  =         17 seconds =       0.28 minutes
Total time:
	user time   =      11.06 seconds =       0.18 minutes
	system time =       5.86 seconds =       0.10 minutes
	total time  =         17 seconds =       0.28 minutes
                                     G D M A

                                 by Anthony Stone

                           version 2.2.06, 22 June 2011

               Distributed Multipoles from Gaussian wavefunctions

Starting at 17:46:25 on 26 Apr 2020

Using SCF density matrix from file ./SSI/SSI-095THR-182ASN-1-dimer.test.10474.fchk

                         Distributed Multipole Analysis

Standard DMA

Positions and radii in angstrom
Multipole moments in atomic units, ea_0^k for rank k

C          x =  2.008668  y =  0.859112  z =  2.562720 angstrom
           Maximum rank =  0   Radius =  0.650 angstrom
                   Q00  =  -0.035789

O          x =  1.852668  y =  1.429112  z =  1.267720 angstrom
           Maximum rank =  0   Radius =  0.650 angstrom
                   Q00  =  -0.575423

H          x =  2.623668  y =  1.180112  z =  0.743720 angstrom
           Maximum rank =  0   Radius =  0.325 angstrom
                   Q00  =   0.379475

H          x =  2.843668  y =  1.352112  z =  3.062720 angstrom
           Maximum rank =  0   Radius =  0.325 angstrom
                   Q00  =   0.055108

H          x =  1.089108  y =  1.000802  z =  3.149520 angstrom
           Maximum rank =  0   Radius =  0.325 angstrom
                   Q00  =   0.111255

H          x =  2.236608  y = -0.212058  z =  2.459570 angstrom
           Maximum rank =  0   Radius =  0.325 angstrom
                   Q00  =   0.065045

C          x = -2.272332  y =  0.083112  z = -0.674280 angstrom
           Maximum rank =  0   Radius =  0.650 angstrom
                   Q00  =  -0.297013

C          x = -0.989332  y = -0.632888  z = -1.010280 angstrom
           Maximum rank =  0   Radius =  0.650 angstrom
                   Q00  =   0.844874

O          x =  0.043668  y = -0.363888  z = -0.403280 angstrom
           Maximum rank =  0   Radius =  0.650 angstrom
                   Q00  =  -0.794095

N          x = -1.027332  y = -1.533888  z = -1.971280 angstrom
           Maximum rank =  0   Radius =  0.650 angstrom
                   Q00  =  -0.515516

H          x = -3.047332  y =  0.217112  z = -1.391280 angstrom
           Maximum rank =  0   Radius =  0.325 angstrom
                   Q00  =   0.085258

H          x = -1.942332  y =  1.123112  z = -0.670280 angstrom
           Maximum rank =  0   Radius =  0.325 angstrom
                   Q00  =   0.131464

H          x = -0.179332  y = -2.026888  z = -2.203280 angstrom
           Maximum rank =  0   Radius =  0.325 angstrom
                   Q00  =   0.218017

H          x = -1.930332  y = -1.842888  z = -2.302280 angstrom
           Maximum rank =  0   Radius =  0.325 angstrom
                   Q00  =   0.202948

H          x = -2.596612  y = -0.068168  z =  0.365890 angstrom
           Maximum rank =  0   Radius =  0.325 angstrom
                   Q00  =   0.124393

Total multipoles referred to origin at
           x =   0.000000,  y =    0.000000,  z =    0.000000 angstrom
                   Q00  =  -0.000000

Finished at 17:46:25 on 26 Apr 2020

  DMA results are available in the Python driver through the
	  variable('DMA DISTRIBUTED MULTIPOLES')
  and
	  variable('DMA TOTAL MULTIPOLES')
  commands.

    Psi4 stopped on: Sunday, 26 April 2020 05:46PM
    Psi4 wall time for execution: 0:00:17.05

*** Psi4 exiting successfully. Buy a developer a beer!
