                               Psi4 1.3.2 release

  ==> Input File <==

--------------------------------------------------------------------------
import numpy as np
set {scf_type pk
basis cc-pvdz
d_convergence 10
gdma_switch   0
gdma_limit    0
gdma_origin   [ 0.0,  0.0,  0.0 ]
}
molecule test {
    units Angstrom
    1 1
    --
    1 1
    C                1.192449786206183    -1.023177537333540    -1.991059031132482
    C                2.480449786206183    -0.491177537333540    -1.284059031132482
    H                1.458449786206183    -1.497177537333540    -2.940059031132482
    H                0.691449786206183    -1.757177537333540    -1.357059031132482
    H                0.502449786206183    -0.201177537333539    -2.190059031132482
    H                2.206449786206183    -0.022177537333540    -0.339059031132482
    H                2.992949786206183     0.252222462666460    -1.912349031132482
    H                3.187079786206183    -1.311577537333539    -1.089989031132482
    C               -0.825550213793817     0.514822462666460     0.600940968867518
    C               -0.753550213793817    -0.660177537333539     1.591940968867518
    N               -1.901550213793817     1.497822462666460     0.989940968867518
    H                0.148449786206183     1.018822462666460     0.582940968867518
    H               -1.030550213793817     0.112822462666460    -0.397059031132482
    H               -0.752550213793817    -0.266177537333539     2.610940968867518
    H                0.170449786206183    -1.220177537333539     1.426940968867518
    H               -1.722550213793817     1.875822462666460     1.917940968867518
    H               -1.943550213793817     2.271822462666460     0.330940968867518
    H               -2.813550213793817     1.041822462666461     1.012940968867518
    H               -1.604680213793817    -1.347077537333540     1.474400968867518

}
e, wfn = energy('scf', return_wfn=True)
gdma(wfn)
dmavals = variable('DMA DISTRIBUTED MULTIPOLES')
charges = np.array(dmavals)
print(charges)
np.save('SSI-226LEU-233LYS-1-dimer.npy', np.array(charges))--------------------------------------------------------------------------

*** tstart() called on ds3
*** at Sun Apr 26 20:51:30 2020

   => Loading Basis Set <=

    Name: CC-PVDZ
    Role: ORBITAL
    Keyword: BASIS
    atoms 1-2, 9-10  entry C          line   138 file /theoryfs2/ds/metcalf/miniconda2/envs/tf2gpu/share/psi4/basis/cc-pvdz.gbs
    atoms 3-8, 12-19 entry H          line    22 file /theoryfs2/ds/metcalf/miniconda2/envs/tf2gpu/share/psi4/basis/cc-pvdz.gbs
    atoms 11         entry N          line   168 file /theoryfs2/ds/metcalf/miniconda2/envs/tf2gpu/share/psi4/basis/cc-pvdz.gbs

         ---------------------------------------------------------
                                   SCF
               by Justin Turney, Rob Parrish, Andy Simmonett
                          and Daniel G. A. Smith
                              RHF Reference
                        1 Threads,    500 MiB Core
         ---------------------------------------------------------

  ==> Geometry <==

    Molecular point group: c1
    Full point group: C1

    Geometry (in Angstrom), charge = 1, multiplicity = 1:

       Center              X                  Y                   Z               Mass
    ------------   -----------------  -----------------  -----------------  -----------------
         C            1.192449786206    -1.023177537334    -1.991059031132    12.000000000000
         C            2.480449786206    -0.491177537334    -1.284059031132    12.000000000000
         H            1.458449786206    -1.497177537334    -2.940059031132     1.007825032230
         H            0.691449786206    -1.757177537334    -1.357059031132     1.007825032230
         H            0.502449786206    -0.201177537334    -2.190059031132     1.007825032230
         H            2.206449786206    -0.022177537334    -0.339059031132     1.007825032230
         H            2.992949786206     0.252222462666    -1.912349031132     1.007825032230
         H            3.187079786206    -1.311577537334    -1.089989031132     1.007825032230
         C           -0.825550213794     0.514822462666     0.600940968868    12.000000000000
         C           -0.753550213794    -0.660177537334     1.591940968868    12.000000000000
         N           -1.901550213794     1.497822462666     0.989940968868    14.003074004430
         H            0.148449786206     1.018822462666     0.582940968868     1.007825032230
         H           -1.030550213794     0.112822462666    -0.397059031132     1.007825032230
         H           -0.752550213794    -0.266177537334     2.610940968868     1.007825032230
         H            0.170449786206    -1.220177537334     1.426940968868     1.007825032230
         H           -1.722550213794     1.875822462666     1.917940968868     1.007825032230
         H           -1.943550213794     2.271822462666     0.330940968868     1.007825032230
         H           -2.813550213794     1.041822462666     1.012940968868     1.007825032230
         H           -1.604680213794    -1.347077537334     1.474400968868     1.007825032230

  Running in c1 symmetry.

  Rotational constants: A =      0.21913  B =      0.04421  C =      0.04152 [cm^-1]
  Rotational constants: A =   6569.27958  B =   1325.49178  C =   1244.66058 [MHz]
  Nuclear repulsion =  190.391234590642938

  Charge       = 1
  Multiplicity = 1
  Electrons    = 44
  Nalpha       = 22
  Nbeta        = 22

  ==> Algorithm <==

  SCF Algorithm Type is PK.
  DIIS enabled.
  MOM disabled.
  Fractional occupation disabled.
  Guess Type is SAD.
  Energy threshold   = 1.00e-06
  Density threshold  = 1.00e-10
  Integral threshold = 0.00e+00

  ==> Primary Basis <==

  Basis Set: CC-PVDZ
    Blend: CC-PVDZ
    Number of shells: 72
    Number of basis function: 140
    Number of Cartesian functions: 145
    Spherical Harmonics?: true
    Max angular momentum: 2

  ==> Pre-Iterations <==

   -------------------------------------------------------
    Irrep   Nso     Nmo     Nalpha   Nbeta   Ndocc  Nsocc
   -------------------------------------------------------
     A        140     140       0       0       0       0
   -------------------------------------------------------
    Total     140     140      22      22      22       0
   -------------------------------------------------------

  ==> Integral Setup <==

  Using integral reordering PK algorithm.
  Sizing the integral batches needed.
  Building batch lookup table.
   Calculation information:
      Number of atoms:                  19
      Number of AO shells:              72
      Number of primitives:            180
      Number of atomic orbitals:       145
      Number of basis functions:       140

      Integral cutoff                 1.00e-12
      Number of threads:                 1

	Batch   1 pq = [       0,    9405] index = [             0,44231715] size =     44231715
	Batch   2 pq = [    9405,    9870] index = [      44231715,48713385] size =      4481670
  Task number: 5
  Buffer size: 11059200
  Buffer per thread: 2
  We computed 3003148 shell quartets total.
  Whereas there are 3454506 unique shell quartets.

  ==> DiskJK: Disk-Based J/K Matrices <==

    J tasked:                  Yes
    K tasked:                  Yes
    wK tasked:                  No
    Memory [MiB]:              375
    Schwarz Cutoff:          1E-12

    OpenMP threads:              1

  Minimum eigenvalue in the overlap matrix is 5.5246493072E-03.
  Using Symmetric Orthogonalization.

  SCF Guess: Superposition of Atomic Densities via on-the-fly atomic UHF.

  ==> Iterations <==

                        Total Energy        Delta E     RMS |[F,P]|

   @RHF iter SAD:  -213.06057590726644   -2.13061e+02   0.00000e+00
   @RHF iter   1:  -213.69567004954115   -6.35094e-01   3.48792e-03 DIIS
   @RHF iter   2:  -213.84233895842172   -1.46669e-01   1.30487e-03 DIIS
   @RHF iter   3:  -213.86134716305662   -1.90082e-02   3.39833e-04 DIIS
   @RHF iter   4:  -213.86345553731678   -2.10837e-03   4.72228e-05 DIIS
   @RHF iter   5:  -213.86350108420871   -4.55469e-05   1.38042e-05 DIIS
   @RHF iter   6:  -213.86350413478200   -3.05057e-06   4.12465e-06 DIIS
   @RHF iter   7:  -213.86350438698446   -2.52202e-07   9.80032e-07 DIIS
   @RHF iter   8:  -213.86350440932253   -2.23381e-08   2.75931e-07 DIIS
   @RHF iter   9:  -213.86350441070357   -1.38104e-09   7.04545e-08 DIIS
   @RHF iter  10:  -213.86350441079290   -8.93294e-11   1.16967e-08 DIIS
   @RHF iter  11:  -213.86350441079603   -3.12639e-12   2.25661e-09 DIIS
   @RHF iter  12:  -213.86350441079509    9.37916e-13   4.38639e-10 DIIS
   @RHF iter  13:  -213.86350441079549   -3.97904e-13   1.06791e-10 DIIS
   @RHF iter  14:  -213.86350441079585   -3.69482e-13   3.38418e-11 DIIS
  Energy and wave function converged.

  ==> Post-Iterations <==

    Orbital Energies [Eh]
    ---------------------

    Doubly Occupied:

       1A    -15.907997     2A    -11.485592     3A    -11.409069
       4A    -11.332835     5A    -11.329643     6A     -1.520511
       7A     -1.218142     8A     -1.120123     9A     -1.056249
      10A     -0.978984    11A     -0.969590    12A     -0.950127
      13A     -0.859077    14A     -0.798813    15A     -0.724879
      16A     -0.708684    17A     -0.702297    18A     -0.697915
      19A     -0.688883    20A     -0.604581    21A     -0.599259
      22A     -0.596724

    Virtual:

      23A     -0.051680    24A      0.014961    25A      0.016747
      26A      0.026210    27A      0.073689    28A      0.076427
      29A      0.096195    30A      0.111947    31A      0.130474
      32A      0.150968    33A      0.157964    34A      0.165704
      35A      0.175948    36A      0.189653    37A      0.197327
      38A      0.234366    39A      0.280999    40A      0.374214
      41A      0.387666    42A      0.416194    43A      0.442004
      44A      0.449496    45A      0.494171    46A      0.507603
      47A      0.546610    48A      0.578565    49A      0.592441
      50A      0.608846    51A      0.624518    52A      0.639191
      53A      0.678300    54A      0.700405    55A      0.709413
      56A      0.717008    57A      0.720418    58A      0.759468
      59A      0.769686    60A      0.772167    61A      0.787175
      62A      0.793028    63A      0.799374    64A      0.809405
      65A      0.826297    66A      0.842755    67A      0.863428
      68A      0.872562    69A      0.929831    70A      0.936902
      71A      1.014945    72A      1.029724    73A      1.035468
      74A      1.133219    75A      1.197171    76A      1.259245
      77A      1.291749    78A      1.350763    79A      1.364250
      80A      1.376731    81A      1.452159    82A      1.453393
      83A      1.483650    84A      1.508232    85A      1.572715
      86A      1.584737    87A      1.623673    88A      1.671039
      89A      1.676940    90A      1.712793    91A      1.719934
      92A      1.734014    93A      1.763482    94A      1.766750
      95A      1.768899    96A      1.774600    97A      1.794165
      98A      1.819960    99A      1.825274   100A      1.831021
     101A      1.839607   102A      1.845251   103A      1.869101
     104A      1.879701   105A      1.901755   106A      1.939530
     107A      1.947900   108A      1.990411   109A      1.995331
     110A      2.006429   111A      2.040935   112A      2.117141
     113A      2.151102   114A      2.151412   115A      2.194792
     116A      2.203212   117A      2.268304   118A      2.312606
     119A      2.336011   120A      2.345666   121A      2.375802
     122A      2.425552   123A      2.444769   124A      2.463097
     125A      2.504399   126A      2.532066   127A      2.592347
     128A      2.621198   129A      2.658176   130A      2.673640
     131A      2.679065   132A      2.723594   133A      2.738498
     134A      2.747275   135A      2.783697   136A      2.820309
     137A      2.852116   138A      2.862550   139A      3.072021
     140A      3.093988

    Final Occupation by Irrep:
              A
    DOCC [    22 ]

  @RHF Final Energy:  -213.86350441079585

   => Energetics <=

    Nuclear Repulsion Energy =            190.3912345906429380
    One-Electron Energy =                -655.9895302552416751
    Two-Electron Energy =                 251.7347912538028538
    Total Energy =                       -213.8635044107958549

Computation Completed

Properties will be evaluated at   0.000000,   0.000000,   0.000000 [a0]

Properties computed using the SCF density matrix

  Nuclear Dipole Moment: [e a0]
     X:     1.4026      Y:    -0.9881      Z:    -0.8171

  Electronic Dipole Moment: [e a0]
     X:    -4.3236      Y:     3.1157      Z:     2.5024

  Dipole Moment: [e a0]
     X:    -2.9209      Y:     2.1275      Z:     1.6853     Total:     3.9873

  Dipole Moment: [D]
     X:    -7.4243      Y:     5.4077      Z:     4.2836     Total:    10.1347

*** tstop() called on ds3 at Sun Apr 26 20:51:54 2020
Module time:
	user time   =      17.31 seconds =       0.29 minutes
	system time =       7.41 seconds =       0.12 minutes
	total time  =         24 seconds =       0.40 minutes
Total time:
	user time   =      17.31 seconds =       0.29 minutes
	system time =       7.41 seconds =       0.12 minutes
	total time  =         24 seconds =       0.40 minutes
                                     G D M A

                                 by Anthony Stone

                           version 2.2.06, 22 June 2011

               Distributed Multipoles from Gaussian wavefunctions

Starting at 20:51:54 on 26 Apr 2020

Using SCF density matrix from file ./SSI/SSI-226LEU-233LYS-1-dimer.test.10491.fchk

                         Distributed Multipole Analysis

Standard DMA

Positions and radii in angstrom
Multipole moments in atomic units, ea_0^k for rank k

C          x =  1.192450  y = -1.023178  z = -1.991059 angstrom
           Maximum rank =  0   Radius =  0.650 angstrom
                   Q00  =  -0.260237

C          x =  2.480450  y = -0.491178  z = -1.284059 angstrom
           Maximum rank =  0   Radius =  0.650 angstrom
                   Q00  =  -0.243848

H          x =  1.458450  y = -1.497178  z = -2.940059 angstrom
           Maximum rank =  0   Radius =  0.325 angstrom
                   Q00  =   0.119392

H          x =  0.691450  y = -1.757178  z = -1.357059 angstrom
           Maximum rank =  0   Radius =  0.325 angstrom
                   Q00  =   0.068537

H          x =  0.502450  y = -0.201178  z = -2.190059 angstrom
           Maximum rank =  0   Radius =  0.325 angstrom
                   Q00  =   0.057041

H          x =  2.206450  y = -0.022178  z = -0.339059 angstrom
           Maximum rank =  0   Radius =  0.325 angstrom
                   Q00  =   0.047130

H          x =  2.992950  y =  0.252222  z = -1.912349 angstrom
           Maximum rank =  0   Radius =  0.325 angstrom
                   Q00  =   0.102823

H          x =  3.187080  y = -1.311578  z = -1.089989 angstrom
           Maximum rank =  0   Radius =  0.325 angstrom
                   Q00  =   0.107979

C          x = -0.825550  y =  0.514822  z =  0.600941 angstrom
           Maximum rank =  0   Radius =  0.650 angstrom
                   Q00  =  -0.034409

C          x = -0.753550  y = -0.660178  z =  1.591941 angstrom
           Maximum rank =  0   Radius =  0.650 angstrom
                   Q00  =  -0.236822

N          x = -1.901550  y =  1.497822  z =  0.989941 angstrom
           Maximum rank =  0   Radius =  0.650 angstrom
                   Q00  =  -0.155855

H          x =  0.148450  y =  1.018822  z =  0.582941 angstrom
           Maximum rank =  0   Radius =  0.325 angstrom
                   Q00  =   0.133089

H          x = -1.030550  y =  0.112822  z = -0.397059 angstrom
           Maximum rank =  0   Radius =  0.325 angstrom
                   Q00  =   0.138689

H          x = -0.752550  y = -0.266178  z =  2.610941 angstrom
           Maximum rank =  0   Radius =  0.325 angstrom
                   Q00  =   0.096882

H          x =  0.170450  y = -1.220178  z =  1.426941 angstrom
           Maximum rank =  0   Radius =  0.325 angstrom
                   Q00  =   0.156463

H          x = -1.722550  y =  1.875822  z =  1.917941 angstrom
           Maximum rank =  0   Radius =  0.325 angstrom
                   Q00  =   0.260043

H          x = -1.943550  y =  2.271822  z =  0.330941 angstrom
           Maximum rank =  0   Radius =  0.325 angstrom
                   Q00  =   0.263870

H          x = -2.813550  y =  1.041822  z =  1.012941 angstrom
           Maximum rank =  0   Radius =  0.325 angstrom
                   Q00  =   0.261177

H          x = -1.604680  y = -1.347078  z =  1.474401 angstrom
           Maximum rank =  0   Radius =  0.325 angstrom
                   Q00  =   0.118055

Total multipoles referred to origin at
           x =   0.000000,  y =    0.000000,  z =    0.000000 angstrom
                   Q00  =   1.000000

Finished at 20:51:54 on 26 Apr 2020

  DMA results are available in the Python driver through the
	  variable('DMA DISTRIBUTED MULTIPOLES')
  and
	  variable('DMA TOTAL MULTIPOLES')
  commands.

    Psi4 stopped on: Sunday, 26 April 2020 08:51PM
    Psi4 wall time for execution: 0:00:23.93

*** Psi4 exiting successfully. Buy a developer a beer!
