                               Psi4 1.3.2 release

  ==> Input File <==

--------------------------------------------------------------------------
import numpy as np
set {scf_type pk
basis cc-pvdz
d_convergence 10
gdma_switch   0
gdma_limit    0
gdma_origin   [ 0.0,  0.0,  0.0 ]
}
molecule test {
    units Angstrom
    0 1
    --
    0 1
    C                0.620345159977973    -2.327802033506572     0.281718111876128
    C               -0.722654840022027    -2.880802033506572     0.675718111876128
    C                0.837345159977974    -2.428802033506572    -1.212281888123872
    H                0.673345159977973    -1.285802033506572     0.575718111876128
    H                1.422345159977974    -2.848802033506572     0.798718111876128
    H               -0.779654840022027    -3.936802033506572     0.403718111876128
    H               -1.489654840022027    -2.346802033506572     0.111718111876128
    H                0.793345159977973    -3.479802033506572    -1.505281888123872
    H                0.040345159977973    -1.880802033506572    -1.719281888123872
    H               -0.940214840022026    -2.764102033506572     1.747655311876128
    H                1.815025159977973    -2.009582033506572    -1.492264888123872
    C                1.513345159977973     1.589197966493428     2.426718111876128
    C               -1.441654840022026     0.758197966493428     0.162718111876128
    C               -0.692654840022026     0.997197966493428     1.306718111876128
    C               -0.823654840022026     0.794197966493428    -1.081281888123872
    C                0.665345159977973     1.302197966493428     1.207718111876128
    C                0.512345159977973     1.086197966493428    -1.194281888123872
    C                1.249345159977973     1.343197966493428    -0.057281888123872
    O               -1.532654840022027     0.526197966493428    -2.221281888123873
    H               -2.489654840022026     0.524197966493428     0.240718111876128
    H               -1.167654840022027     0.974197966493428     2.272718111876127
    H               -2.460654840022027     0.347197966493428    -2.024281888123872
    H                0.977345159977973     1.109197966493428    -2.169281888123872
    H                2.546345159977974     1.295197966493428     2.232718111876128
    H                1.144345159977974     0.963197966493428     3.239718111876128
    H                2.305345159977974     1.568197966493428    -0.150281888123872
    H                1.484645159977974     2.645917966493428     2.730892111876128

}
e, wfn = energy('scf', return_wfn=True)
gdma(wfn)
dmavals = variable('DMA DISTRIBUTED MULTIPOLES')
charges = np.array(dmavals)
print(charges)
np.save('SSI-130ARG-170TYR-2-dimer.npy', np.array(charges))--------------------------------------------------------------------------

*** tstart() called on ds3
*** at Sun Apr 26 23:37:24 2020

   => Loading Basis Set <=

    Name: CC-PVDZ
    Role: ORBITAL
    Keyword: BASIS
    atoms 1-3, 12-18  entry C          line   138 file /theoryfs2/ds/metcalf/miniconda2/envs/tf2gpu/share/psi4/basis/cc-pvdz.gbs
    atoms 4-11, 20-27 entry H          line    22 file /theoryfs2/ds/metcalf/miniconda2/envs/tf2gpu/share/psi4/basis/cc-pvdz.gbs
    atoms 19          entry O          line   198 file /theoryfs2/ds/metcalf/miniconda2/envs/tf2gpu/share/psi4/basis/cc-pvdz.gbs

         ---------------------------------------------------------
                                   SCF
               by Justin Turney, Rob Parrish, Andy Simmonett
                          and Daniel G. A. Smith
                              RHF Reference
                        1 Threads,    500 MiB Core
         ---------------------------------------------------------

  ==> Geometry <==

    Molecular point group: c1
    Full point group: C1

    Geometry (in Angstrom), charge = 0, multiplicity = 1:

       Center              X                  Y                   Z               Mass
    ------------   -----------------  -----------------  -----------------  -----------------
         C            0.620345159978    -2.327802033507     0.281718111876    12.000000000000
         C           -0.722654840022    -2.880802033507     0.675718111876    12.000000000000
         C            0.837345159978    -2.428802033507    -1.212281888124    12.000000000000
         H            0.673345159978    -1.285802033507     0.575718111876     1.007825032230
         H            1.422345159978    -2.848802033507     0.798718111876     1.007825032230
         H           -0.779654840022    -3.936802033507     0.403718111876     1.007825032230
         H           -1.489654840022    -2.346802033507     0.111718111876     1.007825032230
         H            0.793345159978    -3.479802033507    -1.505281888124     1.007825032230
         H            0.040345159978    -1.880802033507    -1.719281888124     1.007825032230
         H           -0.940214840022    -2.764102033507     1.747655311876     1.007825032230
         H            1.815025159978    -2.009582033507    -1.492264888124     1.007825032230
         C            1.513345159978     1.589197966493     2.426718111876    12.000000000000
         C           -1.441654840022     0.758197966493     0.162718111876    12.000000000000
         C           -0.692654840022     0.997197966493     1.306718111876    12.000000000000
         C           -0.823654840022     0.794197966493    -1.081281888124    12.000000000000
         C            0.665345159978     1.302197966493     1.207718111876    12.000000000000
         C            0.512345159978     1.086197966493    -1.194281888124    12.000000000000
         C            1.249345159978     1.343197966493    -0.057281888124    12.000000000000
         O           -1.532654840022     0.526197966493    -2.221281888124    15.994914619570
         H           -2.489654840022     0.524197966493     0.240718111876     1.007825032230
         H           -1.167654840022     0.974197966493     2.272718111876     1.007825032230
         H           -2.460654840022     0.347197966493    -2.024281888124     1.007825032230
         H            0.977345159978     1.109197966493    -2.169281888124     1.007825032230
         H            2.546345159978     1.295197966493     2.232718111876     1.007825032230
         H            1.144345159978     0.963197966493     3.239718111876     1.007825032230
         H            2.305345159978     1.568197966493    -0.150281888124     1.007825032230
         H            1.484645159978     2.645917966493     2.730892111876     1.007825032230

  Running in c1 symmetry.

  Rotational constants: A =      0.03707  B =      0.02847  C =      0.02187 [cm^-1]
  Rotational constants: A =   1111.38399  B =    853.53234  C =    655.57325 [MHz]
  Nuclear repulsion =  616.814703299870757

  Charge       = 0
  Multiplicity = 1
  Electrons    = 84
  Nalpha       = 42
  Nbeta        = 42

  ==> Algorithm <==

  SCF Algorithm Type is PK.
  DIIS enabled.
  MOM disabled.
  Fractional occupation disabled.
  Guess Type is SAD.
  Energy threshold   = 1.00e-06
  Density threshold  = 1.00e-10
  Integral threshold = 0.00e+00

  ==> Primary Basis <==

  Basis Set: CC-PVDZ
    Blend: CC-PVDZ
    Number of shells: 114
    Number of basis function: 234
    Number of Cartesian functions: 245
    Spherical Harmonics?: true
    Max angular momentum: 2

  ==> Pre-Iterations <==

   -------------------------------------------------------
    Irrep   Nso     Nmo     Nalpha   Nbeta   Ndocc  Nsocc
   -------------------------------------------------------
     A        234     234       0       0       0       0
   -------------------------------------------------------
    Total     234     234      42      42      42       0
   -------------------------------------------------------

  ==> Integral Setup <==

  Using integral reordering PK algorithm.
  Sizing the integral batches needed.
  Building batch lookup table.
   Calculation information:
      Number of atoms:                  27
      Number of AO shells:             114
      Number of primitives:            322
      Number of atomic orbitals:       245
      Number of basis functions:       234

      Integral cutoff                 1.00e-12
      Number of threads:                 1

	Batch   1 pq = [       0,    9405] index = [             0,44231715] size =     44231715
	Batch   2 pq = [    9405,   13301] index = [      44231715,88464951] size =     44233236
	Batch   3 pq = [   13301,   16290] index = [      88464951,132690195] size =     44225244
	Batch   4 pq = [   16290,   18810] index = [     132690195,176917455] size =     44227260
	Batch   5 pq = [   18810,   21030] index = [     176917455,221140965] size =     44223510
	Batch   6 pq = [   21030,   23037] index = [     221140965,265363203] size =     44222238
	Batch   7 pq = [   23037,   24883] index = [     265363203,309594286] size =     44231083
	Batch   8 pq = [   24883,   26601] index = [     309594286,353819901] size =     44225615
	Batch   9 pq = [   26601,   27495] index = [     353819901,378001260] size =     24181359
  Task number: 35
  Buffer size: 11059200
  Buffer per thread: 2
  We computed 24618793 shell quartets total.
  Whereas there are 21487290 unique shell quartets.
    14.57 percent of shell quartets recomputed by reordering.

  ==> DiskJK: Disk-Based J/K Matrices <==

    J tasked:                  Yes
    K tasked:                  Yes
    wK tasked:                  No
    Memory [MiB]:              375
    Schwarz Cutoff:          1E-12

    OpenMP threads:              1

  Minimum eigenvalue in the overlap matrix is 3.0393619803E-04.
  Using Symmetric Orthogonalization.

  SCF Guess: Superposition of Atomic Densities via on-the-fly atomic UHF.

  ==> Iterations <==

                        Total Energy        Delta E     RMS |[F,P]|

   @RHF iter SAD:  -461.88601115271842   -4.61886e+02   0.00000e+00
   @RHF iter   1:  -462.59839839563637   -7.12387e-01   2.86023e-03 DIIS
   @RHF iter   2:  -462.84527879075324   -2.46880e-01   1.23334e-03 DIIS
   @RHF iter   3:  -462.88720913191651   -4.19303e-02   2.64656e-04 DIIS
   @RHF iter   4:  -462.89048167785427   -3.27255e-03   9.21663e-05 DIIS
   @RHF iter   5:  -462.89075300826460   -2.71330e-04   2.15097e-05 DIIS
   @RHF iter   6:  -462.89077299697237   -1.99887e-05   6.70098e-06 DIIS
   @RHF iter   7:  -462.89077507965112   -2.08268e-06   1.77814e-06 DIIS
   @RHF iter   8:  -462.89077529508643   -2.15435e-07   6.57583e-07 DIIS
   @RHF iter   9:  -462.89077532368043   -2.85940e-08   2.62504e-07 DIIS
   @RHF iter  10:  -462.89077532834517   -4.66474e-09   9.35440e-08 DIIS
   @RHF iter  11:  -462.89077532950262   -1.15745e-09   4.30274e-08 DIIS
   @RHF iter  12:  -462.89077532979297   -2.90356e-10   2.20366e-08 DIIS
   @RHF iter  13:  -462.89077532986050   -6.75300e-11   8.01389e-09 DIIS
   @RHF iter  14:  -462.89077532986761   -7.10543e-12   1.90025e-09 DIIS
   @RHF iter  15:  -462.89077532986948   -1.87583e-12   7.33190e-10 DIIS
   @RHF iter  16:  -462.89077532986653    2.95586e-12   2.34413e-10 DIIS
   @RHF iter  17:  -462.89077532986749   -9.66338e-13   1.04917e-10 DIIS
   @RHF iter  18:  -462.89077532986772   -2.27374e-13   5.63513e-11 DIIS
  Energy and wave function converged.

  ==> Post-Iterations <==

    Orbital Energies [Eh]
    ---------------------

    Doubly Occupied:

       1A    -20.585206     2A    -11.298090     3A    -11.240597
       4A    -11.237339     5A    -11.235372     6A    -11.234998
       7A    -11.229915     8A    -11.228036     9A    -11.206629
      10A    -11.202774    11A    -11.200373    12A     -1.399148
      13A     -1.157149    14A     -1.050417    15A     -1.040198
      16A     -1.023897    17A     -0.928136    18A     -0.913315
      19A     -0.848201    20A     -0.803997    21A     -0.785828
      22A     -0.732992    23A     -0.670493    24A     -0.642948
      25A     -0.624574    26A     -0.609103    27A     -0.591847
      28A     -0.590821    29A     -0.584702    30A     -0.572623
      31A     -0.568018    32A     -0.536601    33A     -0.528282
      34A     -0.519253    35A     -0.500255    36A     -0.486532
      37A     -0.477934    38A     -0.464634    39A     -0.459123
      40A     -0.447575    41A     -0.343329    42A     -0.304964

    Virtual:

      43A      0.128128    44A      0.152754    45A      0.168253
      46A      0.180183    47A      0.205482    48A      0.209757
      49A      0.214208    50A      0.250473    51A      0.252693
      52A      0.255376    53A      0.260502    54A      0.272509
      55A      0.279703    56A      0.287256    57A      0.290958
      58A      0.307386    59A      0.327735    60A      0.336204
      61A      0.368253    62A      0.374967    63A      0.388511
      64A      0.433453    65A      0.444032    66A      0.455067
      67A      0.480605    68A      0.497855    69A      0.506270
      70A      0.579654    71A      0.581401    72A      0.598964
      73A      0.613446    74A      0.615724    75A      0.618943
      76A      0.656802    77A      0.661724    78A      0.674404
      79A      0.681142    80A      0.693531    81A      0.727929
      82A      0.733505    83A      0.765746    84A      0.767222
      85A      0.776741    86A      0.784827    87A      0.800145
      88A      0.822647    89A      0.827922    90A      0.847002
      91A      0.850762    92A      0.862975    93A      0.871130
      94A      0.874604    95A      0.884602    96A      0.887187
      97A      0.893496    98A      0.901542    99A      0.914787
     100A      0.915083   101A      0.925202   102A      0.930465
     103A      0.932006   104A      0.941254   105A      0.947632
     106A      0.957730   107A      0.968943   108A      0.973359
     109A      0.989410   110A      1.009494   111A      1.010980
     112A      1.023664   113A      1.062548   114A      1.130973
     115A      1.135029   116A      1.143285   117A      1.146842
     118A      1.156200   119A      1.172269   120A      1.182408
     121A      1.212588   122A      1.253631   123A      1.257748
     124A      1.267825   125A      1.290101   126A      1.305996
     127A      1.312243   128A      1.316771   129A      1.332960
     130A      1.357004   131A      1.368278   132A      1.399237
     133A      1.427681   134A      1.472067   135A      1.484672
     136A      1.508477   137A      1.522305   138A      1.531183
     139A      1.545811   140A      1.571615   141A      1.615639
     142A      1.643067   143A      1.659567   144A      1.675553
     145A      1.694324   146A      1.697540   147A      1.705772
     148A      1.711991   149A      1.744239   150A      1.771109
     151A      1.786812   152A      1.810197   153A      1.827319
     154A      1.859870   155A      1.880371   156A      1.888835
     157A      1.894278   158A      1.899982   159A      1.910242
     160A      1.916439   161A      1.924018   162A      1.932209
     163A      1.941638   164A      1.947575   165A      1.959827
     166A      1.973046   167A      1.977007   168A      1.982536
     169A      1.992444   170A      2.003740   171A      2.009890
     172A      2.012954   173A      2.025368   174A      2.044294
     175A      2.050419   176A      2.058767   177A      2.081838
     178A      2.085955   179A      2.098136   180A      2.106110
     181A      2.148426   182A      2.155645   183A      2.157465
     184A      2.164596   185A      2.189416   186A      2.218654
     187A      2.234634   188A      2.264178   189A      2.283083
     190A      2.294091   191A      2.305014   192A      2.321868
     193A      2.332421   194A      2.345043   195A      2.360123
     196A      2.421691   197A      2.433080   198A      2.453872
     199A      2.471051   200A      2.491630   201A      2.532368
     202A      2.540493   203A      2.559098   204A      2.581064
     205A      2.605883   206A      2.616784   207A      2.651371
     208A      2.655760   209A      2.668675   210A      2.764124
     211A      2.774401   212A      2.775229   213A      2.793121
     214A      2.800504   215A      2.808716   216A      2.822938
     217A      2.837867   218A      2.845612   219A      2.910384
     220A      2.969030   221A      2.978936   222A      2.995629
     223A      3.002089   224A      3.042732   225A      3.101819
     226A      3.110714   227A      3.135932   228A      3.251471
     229A      3.296874   230A      3.342165   231A      3.580874
     232A      3.689702   233A      3.974413   234A      4.200174

    Final Occupation by Irrep:
              A
    DOCC [    42 ]

  @RHF Final Energy:  -462.89077532986772

   => Energetics <=

    Nuclear Repulsion Energy =            616.8147032998707573
    One-Electron Energy =               -1851.1985180166300324
    Two-Electron Energy =                 771.4930393868917236
    Total Energy =                       -462.8907753298676653

Computation Completed

Properties will be evaluated at   0.000000,   0.000000,   0.000000 [a0]

Properties computed using the SCF density matrix

  Nuclear Dipole Moment: [e a0]
     X:     3.6253      Y:   -10.4270      Z:     4.9519

  Electronic Dipole Moment: [e a0]
     X:    -3.9400      Y:    10.5613      Z:    -4.4821

  Dipole Moment: [e a0]
     X:    -0.3147      Y:     0.1343      Z:     0.4698     Total:     0.5812

  Dipole Moment: [D]
     X:    -0.7998      Y:     0.3412      Z:     1.1941     Total:     1.4772

*** tstop() called on ds3 at Sun Apr 26 23:45:51 2020
Module time:
	user time   =     180.38 seconds =       3.01 minutes
	system time =      52.97 seconds =       0.88 minutes
	total time  =        507 seconds =       8.45 minutes
Total time:
	user time   =     180.38 seconds =       3.01 minutes
	system time =      52.97 seconds =       0.88 minutes
	total time  =        507 seconds =       8.45 minutes
                                     G D M A

                                 by Anthony Stone

                           version 2.2.06, 22 June 2011

               Distributed Multipoles from Gaussian wavefunctions

Starting at 23:45:51 on 26 Apr 2020

Using SCF density matrix from file ./SSI/SSI-130ARG-170TYR-2-dimer.test.1965.fchk

                         Distributed Multipole Analysis

Standard DMA

Positions and radii in angstrom
Multipole moments in atomic units, ea_0^k for rank k

C          x =  0.620345  y = -2.327802  z =  0.281718 angstrom
           Maximum rank =  0   Radius =  0.650 angstrom
                   Q00  =  -0.078115

C          x = -0.722655  y = -2.880802  z =  0.675718 angstrom
           Maximum rank =  0   Radius =  0.650 angstrom
                   Q00  =  -0.234938

C          x =  0.837345  y = -2.428802  z = -1.212282 angstrom
           Maximum rank =  0   Radius =  0.650 angstrom
                   Q00  =  -0.230602

H          x =  0.673345  y = -1.285802  z =  0.575718 angstrom
           Maximum rank =  0   Radius =  0.325 angstrom
                   Q00  =   0.061810

H          x =  1.422345  y = -2.848802  z =  0.798718 angstrom
           Maximum rank =  0   Radius =  0.325 angstrom
                   Q00  =   0.036680

H          x = -0.779655  y = -3.936802  z =  0.403718 angstrom
           Maximum rank =  0   Radius =  0.325 angstrom
                   Q00  =   0.069164

H          x = -1.489655  y = -2.346802  z =  0.111718 angstrom
           Maximum rank =  0   Radius =  0.325 angstrom
                   Q00  =   0.065459

H          x =  0.793345  y = -3.479802  z = -1.505282 angstrom
           Maximum rank =  0   Radius =  0.325 angstrom
                   Q00  =   0.066254

H          x =  0.040345  y = -1.880802  z = -1.719282 angstrom
           Maximum rank =  0   Radius =  0.325 angstrom
                   Q00  =   0.071517

H          x = -0.940215  y = -2.764102  z =  1.747655 angstrom
           Maximum rank =  0   Radius =  0.325 angstrom
                   Q00  =   0.077226

H          x =  1.815025  y = -2.009582  z = -1.492265 angstrom
           Maximum rank =  0   Radius =  0.325 angstrom
                   Q00  =   0.078064

C          x =  1.513345  y =  1.589198  z =  2.426718 angstrom
           Maximum rank =  0   Radius =  0.650 angstrom
                   Q00  =  -0.194044

C          x = -1.441655  y =  0.758198  z =  0.162718 angstrom
           Maximum rank =  0   Radius =  0.650 angstrom
                   Q00  =  -0.188842

C          x = -0.692655  y =  0.997198  z =  1.306718 angstrom
           Maximum rank =  0   Radius =  0.650 angstrom
                   Q00  =  -0.064007

C          x = -0.823655  y =  0.794198  z = -1.081282 angstrom
           Maximum rank =  0   Radius =  0.650 angstrom
                   Q00  =   0.398094

C          x =  0.665345  y =  1.302198  z =  1.207718 angstrom
           Maximum rank =  0   Radius =  0.650 angstrom
                   Q00  =  -0.147913

C          x =  0.512345  y =  1.086198  z = -1.194282 angstrom
           Maximum rank =  0   Radius =  0.650 angstrom
                   Q00  =  -0.095565

C          x =  1.249345  y =  1.343198  z = -0.057282 angstrom
           Maximum rank =  0   Radius =  0.650 angstrom
                   Q00  =   0.001506

O          x = -1.532655  y =  0.526198  z = -2.221282 angstrom
           Maximum rank =  0   Radius =  0.650 angstrom
                   Q00  =  -0.676484

H          x = -2.489655  y =  0.524198  z =  0.240718 angstrom
           Maximum rank =  0   Radius =  0.325 angstrom
                   Q00  =   0.072861

H          x = -1.167655  y =  0.974198  z =  2.272718 angstrom
           Maximum rank =  0   Radius =  0.325 angstrom
                   Q00  =   0.069167

H          x = -2.460655  y =  0.347198  z = -2.024282 angstrom
           Maximum rank =  0   Radius =  0.325 angstrom
                   Q00  =   0.405996

H          x =  0.977345  y =  1.109198  z = -2.169282 angstrom
           Maximum rank =  0   Radius =  0.325 angstrom
                   Q00  =   0.080773

H          x =  2.546345  y =  1.295198  z =  2.232718 angstrom
           Maximum rank =  0   Radius =  0.325 angstrom
                   Q00  =   0.097905

H          x =  1.144345  y =  0.963198  z =  3.239718 angstrom
           Maximum rank =  0   Radius =  0.325 angstrom
                   Q00  =   0.095625

H          x =  2.305345  y =  1.568198  z = -0.150282 angstrom
           Maximum rank =  0   Radius =  0.325 angstrom
                   Q00  =   0.061022

H          x =  1.484645  y =  2.645918  z =  2.730892 angstrom
           Maximum rank =  0   Radius =  0.325 angstrom
                   Q00  =   0.101389

Total multipoles referred to origin at
           x =   0.000000,  y =    0.000000,  z =    0.000000 angstrom
                   Q00  =  -0.000000

Finished at 23:45:51 on 26 Apr 2020

  DMA results are available in the Python driver through the
	  variable('DMA DISTRIBUTED MULTIPOLES')
  and
	  variable('DMA TOTAL MULTIPOLES')
  commands.

    Psi4 stopped on: Sunday, 26 April 2020 11:45PM
    Psi4 wall time for execution: 0:08:26.98

*** Psi4 exiting successfully. Buy a developer a beer!
