                               Psi4 1.3.2 release

  ==> Input File <==

--------------------------------------------------------------------------
import numpy as np
set {scf_type pk
basis cc-pvdz
d_convergence 10
gdma_switch   0
gdma_limit    0
gdma_origin   [ 0.0,  0.0,  0.0 ]
}
molecule test {
    units Angstrom
    0 1
    --
    0 1
    C                2.026570367409529    -1.871491101901847     1.430024743702321
    C                3.275570367409529    -1.001491101901846     1.729024743702321
    H                2.149570367409528    -2.376491101901847     0.471024743702321
    H                1.895570367409529    -2.618491101901847     2.213024743702320
    H                1.140570367409529    -1.242491101901847     1.388024743702321
    H                4.161570367409529    -1.636491101901846     1.752024743702321
    H                3.398680367409529    -0.249191101901846     0.935964743702321
    H                3.154313367409529    -0.518591101901846     2.709914743702321
    C               -1.617429632590471    -0.922491101901846     1.748024743702321
    C               -3.152429632590471    -0.922491101901846     1.978024743702321
    C               -0.988429632590471     0.172508898098154     0.902024743702321
    C               -0.628429632590471     1.414508898098153     1.317024743702321
    C               -0.505429632590471     0.050508898098154    -0.463975256297679
    C                0.170570367409529     1.264508898098154    -0.800975256297679
    C               -0.549429632590471    -0.968491101901846    -1.432975256297679
    C                0.787570367409529     1.487508898098153    -2.051975256297679
    C                0.057570367409529    -0.746491101901846    -2.681975256297679
    C                0.722570367409529     0.460508898098154    -2.989975256297679
    N                0.065570367409529     2.068508898098154     0.315024743702321
    H               -1.042429632590471    -0.974491101901846     2.679024743702321
    H               -1.471429632590471    -1.854491101901847     1.203024743702321
    H               -3.411429632590472    -0.133491101901846     2.683024743702321
    H               -0.889429632590471     1.741508898098153     2.319024743702321
    H                0.445570367409529     3.004508898098154     0.392024743702321
    H               -1.022429632590471    -1.925491101901846    -1.233975256297679
    H                1.287570367409529     2.428508898098154    -2.254975256297679
    H                0.008570367409529    -1.533491101901846    -3.422975256297679
    H                1.182570367409529     0.583508898098154    -3.957975256297679
    H               -3.418605632590471    -1.911991101901847     2.378044743702321
    H               -3.703369632590471    -0.676191101901846     1.058354743702321

}
e, wfn = energy('scf', return_wfn=True)
gdma(wfn)
dmavals = variable('DMA DISTRIBUTED MULTIPOLES')
charges = np.array(dmavals)
print(charges)
np.save('SSI-234LEU-286TRP-1-dimer.npy', np.array(charges))--------------------------------------------------------------------------

*** tstart() called on ds3
*** at Tue Apr 28 21:42:35 2020

   => Loading Basis Set <=

    Name: CC-PVDZ
    Role: ORBITAL
    Keyword: BASIS
    atoms 1-2, 9-18  entry C          line   138 file /theoryfs2/ds/metcalf/miniconda2/envs/tf2gpu/share/psi4/basis/cc-pvdz.gbs
    atoms 3-8, 20-30 entry H          line    22 file /theoryfs2/ds/metcalf/miniconda2/envs/tf2gpu/share/psi4/basis/cc-pvdz.gbs
    atoms 19         entry N          line   168 file /theoryfs2/ds/metcalf/miniconda2/envs/tf2gpu/share/psi4/basis/cc-pvdz.gbs

         ---------------------------------------------------------
                                   SCF
               by Justin Turney, Rob Parrish, Andy Simmonett
                          and Daniel G. A. Smith
                              RHF Reference
                        1 Threads,    500 MiB Core
         ---------------------------------------------------------

  ==> Geometry <==

    Molecular point group: c1
    Full point group: C1

    Geometry (in Angstrom), charge = 0, multiplicity = 1:

       Center              X                  Y                   Z               Mass
    ------------   -----------------  -----------------  -----------------  -----------------
         C            2.026570367410    -1.871491101902     1.430024743702    12.000000000000
         C            3.275570367410    -1.001491101902     1.729024743702    12.000000000000
         H            2.149570367410    -2.376491101902     0.471024743702     1.007825032230
         H            1.895570367410    -2.618491101902     2.213024743702     1.007825032230
         H            1.140570367410    -1.242491101902     1.388024743702     1.007825032230
         H            4.161570367410    -1.636491101902     1.752024743702     1.007825032230
         H            3.398680367410    -0.249191101902     0.935964743702     1.007825032230
         H            3.154313367410    -0.518591101902     2.709914743702     1.007825032230
         C           -1.617429632590    -0.922491101902     1.748024743702    12.000000000000
         C           -3.152429632590    -0.922491101902     1.978024743702    12.000000000000
         C           -0.988429632590     0.172508898098     0.902024743702    12.000000000000
         C           -0.628429632590     1.414508898098     1.317024743702    12.000000000000
         C           -0.505429632590     0.050508898098    -0.463975256298    12.000000000000
         C            0.170570367410     1.264508898098    -0.800975256298    12.000000000000
         C           -0.549429632590    -0.968491101902    -1.432975256298    12.000000000000
         C            0.787570367410     1.487508898098    -2.051975256298    12.000000000000
         C            0.057570367410    -0.746491101902    -2.681975256298    12.000000000000
         C            0.722570367410     0.460508898098    -2.989975256298    12.000000000000
         N            0.065570367410     2.068508898098     0.315024743702    14.003074004430
         H           -1.042429632590    -0.974491101902     2.679024743702     1.007825032230
         H           -1.471429632590    -1.854491101902     1.203024743702     1.007825032230
         H           -3.411429632590    -0.133491101902     2.683024743702     1.007825032230
         H           -0.889429632590     1.741508898098     2.319024743702     1.007825032230
         H            0.445570367410     3.004508898098     0.392024743702     1.007825032230
         H           -1.022429632590    -1.925491101902    -1.233975256298     1.007825032230
         H            1.287570367410     2.428508898098    -2.254975256298     1.007825032230
         H            0.008570367410    -1.533491101902    -3.422975256298     1.007825032230
         H            1.182570367410     0.583508898098    -3.957975256298     1.007825032230
         H           -3.418605632590    -1.911991101902     2.378044743702     1.007825032230
         H           -3.703369632590    -0.676191101902     1.058354743702     1.007825032230

  Running in c1 symmetry.

  Rotational constants: A =      0.02510  B =      0.02028  C =      0.01619 [cm^-1]
  Rotational constants: A =    752.44102  B =    607.99637  C =    485.48392 [MHz]
  Nuclear repulsion =  764.588118938056937

  Charge       = 0
  Multiplicity = 1
  Electrons    = 96
  Nalpha       = 48
  Nbeta        = 48

  ==> Algorithm <==

  SCF Algorithm Type is PK.
  DIIS enabled.
  MOM disabled.
  Fractional occupation disabled.
  Guess Type is SAD.
  Energy threshold   = 1.00e-06
  Density threshold  = 1.00e-10
  Integral threshold = 0.00e+00

  ==> Primary Basis <==

  Basis Set: CC-PVDZ
    Blend: CC-PVDZ
    Number of shells: 129
    Number of basis function: 267
    Number of Cartesian functions: 280
    Spherical Harmonics?: true
    Max angular momentum: 2

  ==> Pre-Iterations <==

   -------------------------------------------------------
    Irrep   Nso     Nmo     Nalpha   Nbeta   Ndocc  Nsocc
   -------------------------------------------------------
     A        267     267       0       0       0       0
   -------------------------------------------------------
    Total     267     267      48      48      48       0
   -------------------------------------------------------

  ==> Integral Setup <==

  Using integral reordering PK algorithm.
  Sizing the integral batches needed.
  Building batch lookup table.
   Calculation information:
      Number of atoms:                  30
      Number of AO shells:             129
      Number of primitives:            371
      Number of atomic orbitals:       280
      Number of basis functions:       267

      Integral cutoff                 1.00e-12
      Number of threads:                 1

	Batch   1 pq = [       0,    9405] index = [             0,44231715] size =     44231715
	Batch   2 pq = [    9405,   13301] index = [      44231715,88464951] size =     44233236
	Batch   3 pq = [   13301,   16290] index = [      88464951,132690195] size =     44225244
	Batch   4 pq = [   16290,   18810] index = [     132690195,176917455] size =     44227260
	Batch   5 pq = [   18810,   21030] index = [     176917455,221140965] size =     44223510
	Batch   6 pq = [   21030,   23037] index = [     221140965,265363203] size =     44222238
	Batch   7 pq = [   23037,   24883] index = [     265363203,309594286] size =     44231083
	Batch   8 pq = [   24883,   26601] index = [     309594286,353819901] size =     44225615
	Batch   9 pq = [   26601,   28214] index = [     353819901,398029005] size =     44209104
	Batch  10 pq = [   28214,   29740] index = [     398029005,442248670] size =     44219665
	Batch  11 pq = [   29740,   31191] index = [     442248670,486454836] size =     44206166
	Batch  12 pq = [   31191,   32578] index = [     486454836,530679331] size =     44224495
	Batch  13 pq = [   32578,   33908] index = [     530679331,574893186] size =     44213855
	Batch  14 pq = [   33908,   35188] index = [     574893186,619115266] size =     44222080
	Batch  15 pq = [   35188,   35778] index = [     619115266,640050531] size =     20935265
  Task number: 58
  Buffer size: 11059200
  Buffer per thread: 2
  We computed 38604839 shell quartets total.
  Whereas there are 35158305 unique shell quartets.
     9.80 percent of shell quartets recomputed by reordering.

  ==> DiskJK: Disk-Based J/K Matrices <==

    J tasked:                  Yes
    K tasked:                  Yes
    wK tasked:                  No
    Memory [MiB]:              375
    Schwarz Cutoff:          1E-12

    OpenMP threads:              1

  Minimum eigenvalue in the overlap matrix is 2.5511316556E-04.
  Using Symmetric Orthogonalization.

  SCF Guess: Superposition of Atomic Densities via on-the-fly atomic UHF.

  ==> Iterations <==

                        Total Energy        Delta E     RMS |[F,P]|

   @RHF iter SAD:  -517.75366845039525   -5.17754e+02   0.00000e+00
   @RHF iter   1:  -518.49433447192621   -7.40666e-01   2.44045e-03 DIIS
   @RHF iter   2:  -518.74391840288229   -2.49584e-01   1.07189e-03 DIIS
   @RHF iter   3:  -518.78759716482591   -4.36788e-02   2.85957e-04 DIIS
   @RHF iter   4:  -518.79172999265199   -4.13283e-03   1.35306e-04 DIIS
   @RHF iter   5:  -518.79246348830088   -7.33496e-04   1.88290e-05 DIIS
   @RHF iter   6:  -518.79249578301642   -3.22947e-05   8.46641e-06 DIIS
   @RHF iter   7:  -518.79250184563944   -6.06262e-06   3.66614e-06 DIIS
   @RHF iter   8:  -518.79250364891277   -1.80327e-06   1.42273e-06 DIIS
   @RHF iter   9:  -518.79250402973594   -3.80823e-07   6.50521e-07 DIIS
   @RHF iter  10:  -518.79250410508632   -7.53504e-08   3.11928e-07 DIIS
   @RHF iter  11:  -518.79250412445720   -1.93709e-08   1.18773e-07 DIIS
   @RHF iter  12:  -518.79250412734314   -2.88594e-09   4.89488e-08 DIIS
   @RHF iter  13:  -518.79250412763542   -2.92289e-10   1.51822e-08 DIIS
   @RHF iter  14:  -518.79250412765305   -1.76215e-11   4.79131e-09 DIIS
   @RHF iter  15:  -518.79250412765793   -4.88853e-12   2.10359e-09 DIIS
   @RHF iter  16:  -518.79250412766055   -2.61480e-12   9.55871e-10 DIIS
   @RHF iter  17:  -518.79250412764770    1.28466e-11   4.50528e-10 DIIS
   @RHF iter  18:  -518.79250412765907   -1.13687e-11   1.83705e-10 DIIS
   @RHF iter  19:  -518.79250412765805    1.02318e-12   6.64797e-11 DIIS
  Energy and wave function converged.

  ==> Post-Iterations <==

    Orbital Energies [Eh]
    ---------------------

    Doubly Occupied:

       1A    -15.604552     2A    -11.270294     3A    -11.266262
       4A    -11.236762     5A    -11.234967     6A    -11.233950
       7A    -11.231403     8A    -11.225750     9A    -11.224403
      10A    -11.223073    11A    -11.218347    12A    -11.211284
      13A    -11.203586    14A     -1.290138    15A     -1.122170
      16A     -1.077640    17A     -1.011695    18A     -1.001196
      19A     -0.987329    20A     -0.969701    21A     -0.858559
      22A     -0.836623    23A     -0.826472    24A     -0.802144
      25A     -0.742355    26A     -0.717318    27A     -0.667698
      28A     -0.639980    29A     -0.611910    30A     -0.594084
      31A     -0.589428    32A     -0.585459    33A     -0.585199
      34A     -0.580629    35A     -0.572647    36A     -0.545211
      37A     -0.516300    38A     -0.505901    39A     -0.502529
      40A     -0.482163    41A     -0.478251    42A     -0.477059
      43A     -0.472589    44A     -0.461249    45A     -0.457977
      46A     -0.370635    47A     -0.292882    48A     -0.278005

    Virtual:

      49A      0.121739    50A      0.165743    51A      0.172487
      52A      0.180526    53A      0.197715    54A      0.200090
      55A      0.217396    56A      0.221156    57A      0.235349
      58A      0.238213    59A      0.256708    60A      0.259916
      61A      0.262935    62A      0.265364    63A      0.273189
      64A      0.283746    65A      0.288867    66A      0.296319
      67A      0.321513    68A      0.329356    69A      0.375996
      70A      0.380335    71A      0.389806    72A      0.401821
      73A      0.421876    74A      0.428796    75A      0.441982
      76A      0.470901    77A      0.474621    78A      0.510350
      79A      0.518370    80A      0.584910    81A      0.587156
      82A      0.596882    83A      0.604295    84A      0.613216
      85A      0.624466    86A      0.642707    87A      0.654775
      88A      0.661494    89A      0.664001    90A      0.681093
      91A      0.702760    92A      0.715023    93A      0.719000
      94A      0.730284    95A      0.735254    96A      0.739205
      97A      0.750162    98A      0.756003    99A      0.760395
     100A      0.774289   101A      0.786325   102A      0.799568
     103A      0.815362   104A      0.832099   105A      0.856628
     106A      0.861110   107A      0.871163   108A      0.875564
     109A      0.877098   110A      0.886975   111A      0.894313
     112A      0.900870   113A      0.903584   114A      0.911085
     115A      0.912728   116A      0.919733   117A      0.930484
     118A      0.933403   119A      0.943715   120A      0.954189
     121A      0.961396   122A      0.965505   123A      0.973688
     124A      0.981819   125A      0.995197   126A      1.001939
     127A      1.028773   128A      1.042152   129A      1.071285
     130A      1.081309   131A      1.119762   132A      1.128013
     133A      1.130053   134A      1.140135   135A      1.142861
     136A      1.155986   137A      1.164168   138A      1.170467
     139A      1.189332   140A      1.217644   141A      1.228929
     142A      1.240707   143A      1.247006   144A      1.263417
     145A      1.277377   146A      1.284243   147A      1.313753
     148A      1.324374   149A      1.346545   150A      1.357922
     151A      1.381974   152A      1.410080   153A      1.422057
     154A      1.453064   155A      1.455659   156A      1.478541
     157A      1.489642   158A      1.500076   159A      1.530875
     160A      1.571829   161A      1.588773   162A      1.603335
     163A      1.629708   164A      1.643551   165A      1.657342
     166A      1.677007   167A      1.688214   168A      1.703654
     169A      1.727177   170A      1.748738   171A      1.752809
     172A      1.766107   173A      1.774730   174A      1.785824
     175A      1.820500   176A      1.835310   177A      1.848004
     178A      1.866190   179A      1.869759   180A      1.879152
     181A      1.881614   182A      1.887871   183A      1.895323
     184A      1.904700   185A      1.919907   186A      1.925003
     187A      1.934071   188A      1.937015   189A      1.940943
     190A      1.949854   191A      1.955108   192A      1.964147
     193A      1.965003   194A      1.969019   195A      1.979832
     196A      1.982930   197A      2.001971   198A      2.005888
     199A      2.018760   200A      2.035666   201A      2.042845
     202A      2.058355   203A      2.067591   204A      2.082510
     205A      2.089539   206A      2.095446   207A      2.108801
     208A      2.126543   209A      2.128377   210A      2.133177
     211A      2.150240   212A      2.158721   213A      2.166824
     214A      2.200049   215A      2.226722   216A      2.244402
     217A      2.268584   218A      2.278796   219A      2.296830
     220A      2.306417   221A      2.319088   222A      2.323183
     223A      2.348011   224A      2.363547   225A      2.367167
     226A      2.408321   227A      2.445757   228A      2.456064
     229A      2.475854   230A      2.484299   231A      2.498837
     232A      2.521995   233A      2.552165   234A      2.566156
     235A      2.578321   236A      2.588932   237A      2.596599
     238A      2.625495   239A      2.656163   240A      2.678859
     241A      2.719118   242A      2.760593   243A      2.765157
     244A      2.771608   245A      2.776931   246A      2.783315
     247A      2.805674   248A      2.825106   249A      2.848395
     250A      2.853732   251A      2.872359   252A      2.880856
     253A      2.900039   254A      2.911668   255A      2.928558
     256A      2.960394   257A      2.975846   258A      3.013646
     259A      3.043755   260A      3.055640   261A      3.067138
     262A      3.105911   263A      3.182678   264A      3.257099
     265A      3.361105   266A      3.723778   267A      3.906188

    Final Occupation by Irrep:
              A
    DOCC [    48 ]

  @RHF Final Energy:  -518.79250412765805

   => Energetics <=

    Nuclear Repulsion Energy =            764.5881189380569367
    One-Electron Energy =               -2218.9697338474147728
    Two-Electron Energy =                 935.5891107816996737
    Total Energy =                       -518.7925041276580487

Computation Completed

Properties will be evaluated at   0.000000,   0.000000,   0.000000 [a0]

Properties computed using the SCF density matrix

  Nuclear Dipole Moment: [e a0]
     X:     3.6235      Y:    -9.2807      Z:    10.6043

  Electronic Dipole Moment: [e a0]
     X:    -3.5708      Y:     9.9158      Z:   -10.2017

  Dipole Moment: [e a0]
     X:     0.0527      Y:     0.6351      Z:     0.4026     Total:     0.7538

  Dipole Moment: [D]
     X:     0.1341      Y:     1.6142      Z:     1.0233     Total:     1.9159

*** tstop() called on ds3 at Tue Apr 28 21:51:22 2020
Module time:
	user time   =     298.50 seconds =       4.97 minutes
	system time =     103.74 seconds =       1.73 minutes
	total time  =        527 seconds =       8.78 minutes
Total time:
	user time   =     298.50 seconds =       4.97 minutes
	system time =     103.74 seconds =       1.73 minutes
	total time  =        527 seconds =       8.78 minutes
                                     G D M A

                                 by Anthony Stone

                           version 2.2.06, 22 June 2011

               Distributed Multipoles from Gaussian wavefunctions

Starting at 21:51:22 on 28 Apr 2020

Using SCF density matrix from file ./SSI/SSI-234LEU-286TRP-1-dimer.test.27098.fchk

                         Distributed Multipole Analysis

Standard DMA

Positions and radii in angstrom
Multipole moments in atomic units, ea_0^k for rank k

C          x =  2.026570  y = -1.871491  z =  1.430025 angstrom
           Maximum rank =  0   Radius =  0.650 angstrom
                   Q00  =  -0.245353

C          x =  3.275570  y = -1.001491  z =  1.729025 angstrom
           Maximum rank =  0   Radius =  0.650 angstrom
                   Q00  =  -0.245068

H          x =  2.149570  y = -2.376491  z =  0.471025 angstrom
           Maximum rank =  0   Radius =  0.325 angstrom
                   Q00  =   0.082311

H          x =  1.895570  y = -2.618491  z =  2.213025 angstrom
           Maximum rank =  0   Radius =  0.325 angstrom
                   Q00  =   0.068781

H          x =  1.140570  y = -1.242491  z =  1.388025 angstrom
           Maximum rank =  0   Radius =  0.325 angstrom
                   Q00  =   0.095749

H          x =  4.161570  y = -1.636491  z =  1.752025 angstrom
           Maximum rank =  0   Radius =  0.325 angstrom
                   Q00  =   0.076840

H          x =  3.398680  y = -0.249191  z =  0.935965 angstrom
           Maximum rank =  0   Radius =  0.325 angstrom
                   Q00  =   0.083634

H          x =  3.154313  y = -0.518591  z =  2.709915 angstrom
           Maximum rank =  0   Radius =  0.325 angstrom
                   Q00  =   0.073127

C          x = -1.617430  y = -0.922491  z =  1.748025 angstrom
           Maximum rank =  0   Radius =  0.650 angstrom
                   Q00  =  -0.085639

C          x = -3.152430  y = -0.922491  z =  1.978025 angstrom
           Maximum rank =  0   Radius =  0.650 angstrom
                   Q00  =  -0.223519

C          x = -0.988430  y =  0.172509  z =  0.902025 angstrom
           Maximum rank =  0   Radius =  0.650 angstrom
                   Q00  =  -0.138016

C          x = -0.628430  y =  1.414509  z =  1.317025 angstrom
           Maximum rank =  0   Radius =  0.650 angstrom
                   Q00  =   0.087726

C          x = -0.505430  y =  0.050509  z = -0.463975 angstrom
           Maximum rank =  0   Radius =  0.650 angstrom
                   Q00  =  -0.041004

C          x =  0.170570  y =  1.264509  z = -0.800975 angstrom
           Maximum rank =  0   Radius =  0.650 angstrom
                   Q00  =   0.252403

C          x = -0.549430  y = -0.968491  z = -1.432975 angstrom
           Maximum rank =  0   Radius =  0.650 angstrom
                   Q00  =  -0.096792

C          x =  0.787570  y =  1.487509  z = -2.051975 angstrom
           Maximum rank =  0   Radius =  0.650 angstrom
                   Q00  =  -0.118957

C          x =  0.057570  y = -0.746491  z = -2.681975 angstrom
           Maximum rank =  0   Radius =  0.650 angstrom
                   Q00  =  -0.050021

C          x =  0.722570  y =  0.460509  z = -2.989975 angstrom
           Maximum rank =  0   Radius =  0.650 angstrom
                   Q00  =  -0.080673

N          x =  0.065570  y =  2.068509  z =  0.315025 angstrom
           Maximum rank =  0   Radius =  0.650 angstrom
                   Q00  =  -0.507118

H          x = -1.042430  y = -0.974491  z =  2.679025 angstrom
           Maximum rank =  0   Radius =  0.325 angstrom
                   Q00  =   0.078719

H          x = -1.471430  y = -1.854491  z =  1.203025 angstrom
           Maximum rank =  0   Radius =  0.325 angstrom
                   Q00  =   0.074958

H          x = -3.411430  y = -0.133491  z =  2.683025 angstrom
           Maximum rank =  0   Radius =  0.325 angstrom
                   Q00  =   0.076244

H          x = -0.889430  y =  1.741509  z =  2.319025 angstrom
           Maximum rank =  0   Radius =  0.325 angstrom
                   Q00  =   0.106656

H          x =  0.445570  y =  3.004509  z =  0.392025 angstrom
           Maximum rank =  0   Radius =  0.325 angstrom
                   Q00  =   0.214112

H          x = -1.022430  y = -1.925491  z = -1.233975 angstrom
           Maximum rank =  0   Radius =  0.325 angstrom
                   Q00  =   0.072549

H          x =  1.287570  y =  2.428509  z = -2.254975 angstrom
           Maximum rank =  0   Radius =  0.325 angstrom
                   Q00  =   0.075654

H          x =  0.008570  y = -1.533491  z = -3.422975 angstrom
           Maximum rank =  0   Radius =  0.325 angstrom
                   Q00  =   0.061449

H          x =  1.182570  y =  0.583509  z = -3.957975 angstrom
           Maximum rank =  0   Radius =  0.325 angstrom
                   Q00  =   0.069090

H          x = -3.418606  y = -1.911991  z =  2.378045 angstrom
           Maximum rank =  0   Radius =  0.325 angstrom
                   Q00  =   0.088579

H          x = -3.703370  y = -0.676191  z =  1.058355 angstrom
           Maximum rank =  0   Radius =  0.325 angstrom
                   Q00  =   0.093577

Total multipoles referred to origin at
           x =   0.000000,  y =    0.000000,  z =    0.000000 angstrom
                   Q00  =  -0.000000

Finished at 21:51:22 on 28 Apr 2020

  DMA results are available in the Python driver through the
	  variable('DMA DISTRIBUTED MULTIPOLES')
  and
	  variable('DMA TOTAL MULTIPOLES')
  commands.

    Psi4 stopped on: Tuesday, 28 April 2020 09:51PM
    Psi4 wall time for execution: 0:08:46.74

*** Psi4 exiting successfully. Buy a developer a beer!
