                               Psi4 1.3.2 release

  ==> Input File <==

--------------------------------------------------------------------------
import numpy as np
set {scf_type pk
basis cc-pvdz
d_convergence 10
gdma_switch   0
gdma_limit    0
gdma_origin   [ 0.0,  0.0,  0.0 ]
}
molecule test {
    units Angstrom
    -2 1
    --
    -2 1
    C               -0.762939969393077     2.206745153624759     1.423254391272247
    C               -0.097939969393077     2.240745153624759     0.044254391272247
    O                1.052060030606923     1.760745153624759    -0.069745608727753
    O               -0.711939969393077     2.732745153624759    -0.932745608727753
    H               -0.079939969393077     2.622745153624759     2.167254391272247
    H               -0.974939969393077     1.171745153624759     1.702254391272247
    H               -1.701029969393077     2.780145153624759     1.457914391272247
    C               -1.216939969393077    -1.830254846375241    -0.168745608727753
    C                0.205060030606923    -2.263254846375241    -0.118745608727753
    O                1.055060030606923    -1.389254846375241     0.162254391272247
    O                0.479060030606923    -3.462254846375241    -0.347745608727753
    H               -1.242939969393077    -0.748254846375241    -0.329745608727753
    H               -1.676939969393077    -2.034254846375241     0.786254391272247
    H               -1.771129969393077    -2.324884846375241    -0.980055608727753

}
e, wfn = energy('scf', return_wfn=True)
gdma(wfn)
dmavals = variable('DMA DISTRIBUTED MULTIPOLES')
charges = np.array(dmavals)
print(charges)
np.save('SSI-030GLU-034ASP-1-dimer.npy', np.array(charges))--------------------------------------------------------------------------

*** tstart() called on ds3
*** at Mon Apr 27 20:02:24 2020

   => Loading Basis Set <=

    Name: CC-PVDZ
    Role: ORBITAL
    Keyword: BASIS
    atoms 1-2, 8-9   entry C          line   138 file /theoryfs2/ds/metcalf/miniconda2/envs/tf2gpu/share/psi4/basis/cc-pvdz.gbs
    atoms 3-4, 10-11 entry O          line   198 file /theoryfs2/ds/metcalf/miniconda2/envs/tf2gpu/share/psi4/basis/cc-pvdz.gbs
    atoms 5-7, 12-14 entry H          line    22 file /theoryfs2/ds/metcalf/miniconda2/envs/tf2gpu/share/psi4/basis/cc-pvdz.gbs

         ---------------------------------------------------------
                                   SCF
               by Justin Turney, Rob Parrish, Andy Simmonett
                          and Daniel G. A. Smith
                              RHF Reference
                        1 Threads,    500 MiB Core
         ---------------------------------------------------------

  ==> Geometry <==

    Molecular point group: c1
    Full point group: C1

    Geometry (in Angstrom), charge = -2, multiplicity = 1:

       Center              X                  Y                   Z               Mass
    ------------   -----------------  -----------------  -----------------  -----------------
         C           -0.762939969393     2.206745153625     1.423254391272    12.000000000000
         C           -0.097939969393     2.240745153625     0.044254391272    12.000000000000
         O            1.052060030607     1.760745153625    -0.069745608728    15.994914619570
         O           -0.711939969393     2.732745153625    -0.932745608728    15.994914619570
         H           -0.079939969393     2.622745153625     2.167254391272     1.007825032230
         H           -0.974939969393     1.171745153625     1.702254391272     1.007825032230
         H           -1.701029969393     2.780145153625     1.457914391272     1.007825032230
         C           -1.216939969393    -1.830254846375    -0.168745608728    12.000000000000
         C            0.205060030607    -2.263254846375    -0.118745608728    12.000000000000
         O            1.055060030607    -1.389254846375     0.162254391272    15.994914619570
         O            0.479060030607    -3.462254846375    -0.347745608728    15.994914619570
         H           -1.242939969393    -0.748254846375    -0.329745608728     1.007825032230
         H           -1.676939969393    -2.034254846375     0.786254391272     1.007825032230
         H           -1.771129969393    -2.324884846375    -0.980055608728     1.007825032230

  Running in c1 symmetry.

  Rotational constants: A =      0.12921  B =      0.02424  C =      0.02328 [cm^-1]
  Rotational constants: A =   3873.62228  B =    726.70846  C =    697.81462 [MHz]
  Nuclear repulsion =  337.012235964816455

  Charge       = -2
  Multiplicity = 1
  Electrons    = 64
  Nalpha       = 32
  Nbeta        = 32

  ==> Algorithm <==

  SCF Algorithm Type is PK.
  DIIS enabled.
  MOM disabled.
  Fractional occupation disabled.
  Guess Type is SAD.
  Energy threshold   = 1.00e-06
  Density threshold  = 1.00e-10
  Integral threshold = 0.00e+00

  ==> Primary Basis <==

  Basis Set: CC-PVDZ
    Blend: CC-PVDZ
    Number of shells: 66
    Number of basis function: 142
    Number of Cartesian functions: 150
    Spherical Harmonics?: true
    Max angular momentum: 2

  ==> Pre-Iterations <==

   -------------------------------------------------------
    Irrep   Nso     Nmo     Nalpha   Nbeta   Ndocc  Nsocc
   -------------------------------------------------------
     A        142     142       0       0       0       0
   -------------------------------------------------------
    Total     142     142      32      32      32       0
   -------------------------------------------------------

  ==> Integral Setup <==

  Using integral reordering PK algorithm.
  Sizing the integral batches needed.
  Building batch lookup table.
   Calculation information:
      Number of atoms:                  14
      Number of AO shells:              66
      Number of primitives:            206
      Number of atomic orbitals:       150
      Number of basis functions:       142

      Integral cutoff                 1.00e-12
      Number of threads:                 1

	Batch   1 pq = [       0,    9405] index = [             0,44231715] size =     44231715
	Batch   2 pq = [    9405,   10153] index = [      44231715,51546781] size =      7315066
  Task number: 5
  Buffer size: 11059200
  Buffer per thread: 2
  We computed 1874482 shell quartets total.
  Whereas there are 2445366 unique shell quartets.

  ==> DiskJK: Disk-Based J/K Matrices <==

    J tasked:                  Yes
    K tasked:                  Yes
    wK tasked:                  No
    Memory [MiB]:              375
    Schwarz Cutoff:          1E-12

    OpenMP threads:              1

  Minimum eigenvalue in the overlap matrix is 5.0123485898E-03.
  Using Symmetric Orthogonalization.

  SCF Guess: Superposition of Atomic Densities via on-the-fly atomic UHF.

  ==> Iterations <==

                        Total Energy        Delta E     RMS |[F,P]|

   @RHF iter SAD:  -452.37435896828083   -4.52374e+02   0.00000e+00
   @RHF iter   1:  -453.98631222764863   -1.61195e+00   6.43840e-03 DIIS
   @RHF iter   2:  -454.25514813559494   -2.68836e-01   3.86056e-03 DIIS
   @RHF iter   3:  -454.35830821461525   -1.03160e-01   4.90314e-04 DIIS
   @RHF iter   4:  -454.36133187714290   -3.02366e-03   1.79658e-04 DIIS
   @RHF iter   5:  -454.36183570035536   -5.03823e-04   4.01265e-05 DIIS
   @RHF iter   6:  -454.36185529495901   -1.95946e-05   1.92100e-05 DIIS
   @RHF iter   7:  -454.36185923259183   -3.93763e-06   2.89481e-06 DIIS
   @RHF iter   8:  -454.36185948047495   -2.47883e-07   1.17720e-06 DIIS
   @RHF iter   9:  -454.36185952025767   -3.97827e-08   5.02265e-07 DIIS
   @RHF iter  10:  -454.36185952690857   -6.65091e-09   2.11243e-07 DIIS
   @RHF iter  11:  -454.36185952815248   -1.24390e-09   5.63094e-08 DIIS
   @RHF iter  12:  -454.36185952821739   -6.49152e-11   1.59490e-08 DIIS
   @RHF iter  13:  -454.36185952822279   -5.40012e-12   4.37725e-09 DIIS
   @RHF iter  14:  -454.36185952822274    5.68434e-14   2.12680e-09 DIIS
   @RHF iter  15:  -454.36185952822234    3.97904e-13   7.15376e-10 DIIS
   @RHF iter  16:  -454.36185952822291   -5.68434e-13   3.02268e-10 DIIS
   @RHF iter  17:  -454.36185952822325   -3.41061e-13   1.36783e-10 DIIS
   @RHF iter  18:  -454.36185952822296    2.84217e-13   4.89743e-11 DIIS
  Energy and wave function converged.

  ==> Post-Iterations <==

    Orbital Energies [Eh]
    ---------------------

    Doubly Occupied:

       1A    -20.140931     2A    -20.138132     3A    -20.131133
       4A    -20.129200     5A    -10.997799     6A    -10.988754
       7A    -10.944289     8A    -10.926937     9A     -1.026280
      10A     -1.025529    11A     -0.912443    12A     -0.910107
      13A     -0.685549    14A     -0.682669    15A     -0.385145
      16A     -0.381048    17A     -0.301074    18A     -0.300077
      19A     -0.294292    20A     -0.287937    21A     -0.283530
      22A     -0.276215    23A     -0.223956    24A     -0.214918
      25A     -0.184704    26A     -0.181391    27A     -0.065989
      28A     -0.062661    29A     -0.049175    30A     -0.045339
      31A     -0.037291    32A     -0.031793

    Virtual:

      33A      0.445797    34A      0.470535    35A      0.501385
      36A      0.507872    37A      0.528805    38A      0.561533
      39A      0.607303    40A      0.622948    41A      0.680854
      42A      0.693706    43A      0.801792    44A      0.810228
      45A      0.821709    46A      0.870916    47A      0.925680
      48A      0.943841    49A      0.978459    50A      1.001349
      51A      1.063294    52A      1.078091    53A      1.091705
      54A      1.102486    55A      1.124027    56A      1.147775
      57A      1.152351    58A      1.154581    59A      1.163286
      60A      1.183962    61A      1.208069    62A      1.241487
      63A      1.255218    64A      1.279702    65A      1.336108
      66A      1.395570    67A      1.425631    68A      1.450473
      69A      1.458834    70A      1.469889    71A      1.488082
      72A      1.538450    73A      1.616881    74A      1.646815
      75A      1.680308    76A      1.682417    77A      1.703257
      78A      1.710781    79A      1.719735    80A      1.740002
      81A      1.766678    82A      1.794623    83A      1.796335
      84A      1.850454    85A      1.867451    86A      1.887780
      87A      1.951123    88A      1.960771    89A      1.965342
      90A      1.978006    91A      2.153590    92A      2.177226
      93A      2.186671    94A      2.197530    95A      2.205869
      96A      2.235069    97A      2.246151    98A      2.280091
      99A      2.328812   100A      2.335013   101A      2.381201
     102A      2.387943   103A      2.447794   104A      2.490657
     105A      2.540726   106A      2.547633   107A      2.551384
     108A      2.580362   109A      2.688768   110A      2.703992
     111A      2.759994   112A      2.807616   113A      2.833896
     114A      2.840956   115A      2.893839   116A      2.907238
     117A      3.019226   118A      3.057522   119A      3.068755
     120A      3.098092   121A      3.105052   122A      3.137839
     123A      3.365309   124A      3.365851   125A      3.397733
     126A      3.400937   127A      3.417720   128A      3.423011
     129A      3.483221   130A      3.487225   131A      3.755502
     132A      3.764207   133A      3.887611   134A      3.923503
     135A      3.940575   136A      3.971123   137A      4.170174
     138A      4.175076   139A      4.195131   140A      4.231063
     141A      4.312720   142A      4.319868

    Final Occupation by Irrep:
              A
    DOCC [    32 ]

  @RHF Final Energy:  -454.36185952822296

   => Energetics <=

    Nuclear Repulsion Energy =            337.0122359648164547
    One-Electron Energy =               -1316.2556175025870289
    Two-Electron Energy =                 524.8815220095475524
    Total Energy =                       -454.3618595282230217

Computation Completed

Properties will be evaluated at   0.000000,   0.000000,   0.000000 [a0]

Properties computed using the SCF density matrix

  Nuclear Dipole Moment: [e a0]
     X:    -6.9723      Y:     1.3738      Z:     4.4978

  Electronic Dipole Moment: [e a0]
     X:     5.1644      Y:    -0.9157      Z:    -3.1837

  Dipole Moment: [e a0]
     X:    -1.8078      Y:     0.4581      Z:     1.3141     Total:     2.2814

  Dipole Moment: [D]
     X:    -4.5951      Y:     1.1643      Z:     3.3400     Total:     5.7988

*** tstop() called on ds3 at Mon Apr 27 20:02:48 2020
Module time:
	user time   =      16.84 seconds =       0.28 minutes
	system time =       7.80 seconds =       0.13 minutes
	total time  =         24 seconds =       0.40 minutes
Total time:
	user time   =      16.84 seconds =       0.28 minutes
	system time =       7.80 seconds =       0.13 minutes
	total time  =         24 seconds =       0.40 minutes
                                     G D M A

                                 by Anthony Stone

                           version 2.2.06, 22 June 2011

               Distributed Multipoles from Gaussian wavefunctions

Starting at 20:2:48 on 27 Apr 2020

Using SCF density matrix from file ./SSI/SSI-030GLU-034ASP-1-dimer.test.12702.fchk

                         Distributed Multipole Analysis

Standard DMA

Positions and radii in angstrom
Multipole moments in atomic units, ea_0^k for rank k

C          x = -0.762940  y =  2.206745  z =  1.423254 angstrom
           Maximum rank =  0   Radius =  0.650 angstrom
                   Q00  =  -0.279632

C          x = -0.097940  y =  2.240745  z =  0.044254 angstrom
           Maximum rank =  0   Radius =  0.650 angstrom
                   Q00  =   0.991664

O          x =  1.052060  y =  1.760745  z = -0.069746 angstrom
           Maximum rank =  0   Radius =  0.650 angstrom
                   Q00  =  -0.901285

O          x = -0.711940  y =  2.732745  z = -0.932746 angstrom
           Maximum rank =  0   Radius =  0.650 angstrom
                   Q00  =  -0.958344

H          x = -0.079940  y =  2.622745  z =  2.167254 angstrom
           Maximum rank =  0   Radius =  0.325 angstrom
                   Q00  =   0.043897

H          x = -0.974940  y =  1.171745  z =  1.702254 angstrom
           Maximum rank =  0   Radius =  0.325 angstrom
                   Q00  =   0.095073

H          x = -1.701030  y =  2.780145  z =  1.457914 angstrom
           Maximum rank =  0   Radius =  0.325 angstrom
                   Q00  =   0.009908

C          x = -1.216940  y = -1.830255  z = -0.168746 angstrom
           Maximum rank =  0   Radius =  0.650 angstrom
                   Q00  =  -0.285444

C          x =  0.205060  y = -2.263255  z = -0.118746 angstrom
           Maximum rank =  0   Radius =  0.650 angstrom
                   Q00  =   1.001188

O          x =  1.055060  y = -1.389255  z =  0.162254 angstrom
           Maximum rank =  0   Radius =  0.650 angstrom
                   Q00  =  -0.916447

O          x =  0.479060  y = -3.462255  z = -0.347746 angstrom
           Maximum rank =  0   Radius =  0.650 angstrom
                   Q00  =  -0.976071

H          x = -1.242940  y = -0.748255  z = -0.329746 angstrom
           Maximum rank =  0   Radius =  0.325 angstrom
                   Q00  =   0.102102

H          x = -1.676940  y = -2.034255  z =  0.786254 angstrom
           Maximum rank =  0   Radius =  0.325 angstrom
                   Q00  =   0.053837

H          x = -1.771130  y = -2.324885  z = -0.980056 angstrom
           Maximum rank =  0   Radius =  0.325 angstrom
                   Q00  =   0.019555

Total multipoles referred to origin at
           x =   0.000000,  y =    0.000000,  z =    0.000000 angstrom
                   Q00  =  -2.000000

Finished at 20:2:48 on 27 Apr 2020

  DMA results are available in the Python driver through the
	  variable('DMA DISTRIBUTED MULTIPOLES')
  and
	  variable('DMA TOTAL MULTIPOLES')
  commands.

    Psi4 stopped on: Monday, 27 April 2020 08:02PM
    Psi4 wall time for execution: 0:00:24.55

*** Psi4 exiting successfully. Buy a developer a beer!
