                               Psi4 1.3.2 release

  ==> Input File <==

--------------------------------------------------------------------------
import numpy as np
set {scf_type pk
basis cc-pvdz
d_convergence 10
gdma_switch   0
gdma_limit    0
gdma_origin   [ 0.0,  0.0,  0.0 ]
}
molecule test {
    units Angstrom
    0 1
    --
    0 1
    C                1.214707599571757     0.973446508799731     0.649958413267054
    C                1.311707599571757     2.249446508799732     1.491958413267054
    C               -0.009292400428243     0.917446508799731    -0.205041586732946
    C               -0.136292400428243     1.373446508799732    -1.471041586732946
    C               -1.285292400428243     0.367446508799732     0.156958413267054
    C               -2.149292400428243     0.526446508799732    -0.954041586732946
    C               -1.791292400428243    -0.234553491200268     1.314958413267054
    C               -3.466292400428243     0.098446508799732    -0.938041586732946
    C               -3.100292400428243    -0.680553491200269     1.324958413267054
    C               -3.925292400428243    -0.516553491200268     0.208958413267054
    N               -1.422292400428243     1.139446508799732    -1.934041586732947
    H                2.090707599571757     0.915446508799732     0.005958413267054
    H                1.217707599571757     0.102446508799732     1.305958413267053
    H                0.411707599571757     2.322446508799731     2.105958413267054
    H                0.653707599571757     1.842446508799732    -2.049041586732946
    H               -1.748292400428243     1.381446508799732    -2.863041586732946
    H               -1.162292400428243    -0.346553491200268     2.186958413267054
    H               -4.106292400428243     0.232446508799732    -1.799041586732946
    H               -3.497292400428243    -1.161553491200269     2.210958413267054
    H               -4.947292400428243    -0.870553491200268     0.248958413267054
    H                1.360337599571757     3.117986508799731     0.818708413267054
    H                2.162017599571757     2.150556508799732     2.182748413267054
    C                3.611707599571757    -1.703553491200268    -0.198041586732946
    C                4.878707599571756    -2.210553491200268    -0.875041586732947
    O                3.720707599571757    -1.792553491200268     1.209958413267054
    H                3.456707599571757    -0.664553491200269    -0.483041586732946
    H                2.759707599571757    -2.274553491200269    -0.557041586732946
    H                4.750707599571757    -2.075553491200268    -1.950041586732946
    H                4.203707599571757    -0.990553491200268     1.484958413267053
    H                5.076247599571757    -3.272913491200268    -0.669201586732946
    H                5.736247599571757    -1.607363491200268    -0.542201586732946

}
e, wfn = energy('scf', return_wfn=True)
gdma(wfn)
dmavals = variable('DMA DISTRIBUTED MULTIPOLES')
charges = np.array(dmavals)
print(charges)
np.save('SSI-181TRP-189SER-1-dimer.npy', np.array(charges))--------------------------------------------------------------------------

*** tstart() called on ds3
*** at Mon Apr 27 16:02:21 2020

   => Loading Basis Set <=

    Name: CC-PVDZ
    Role: ORBITAL
    Keyword: BASIS
    atoms 1-10, 23-24  entry C          line   138 file /theoryfs2/ds/metcalf/miniconda2/envs/tf2gpu/share/psi4/basis/cc-pvdz.gbs
    atoms 11           entry N          line   168 file /theoryfs2/ds/metcalf/miniconda2/envs/tf2gpu/share/psi4/basis/cc-pvdz.gbs
    atoms 12-22, 26-31 entry H          line    22 file /theoryfs2/ds/metcalf/miniconda2/envs/tf2gpu/share/psi4/basis/cc-pvdz.gbs
    atoms 25           entry O          line   198 file /theoryfs2/ds/metcalf/miniconda2/envs/tf2gpu/share/psi4/basis/cc-pvdz.gbs

         ---------------------------------------------------------
                                   SCF
               by Justin Turney, Rob Parrish, Andy Simmonett
                          and Daniel G. A. Smith
                              RHF Reference
                        1 Threads,    500 MiB Core
         ---------------------------------------------------------

  ==> Geometry <==

    Molecular point group: c1
    Full point group: C1

    Geometry (in Angstrom), charge = 0, multiplicity = 1:

       Center              X                  Y                   Z               Mass
    ------------   -----------------  -----------------  -----------------  -----------------
         C            1.214707599572     0.973446508800     0.649958413267    12.000000000000
         C            1.311707599572     2.249446508800     1.491958413267    12.000000000000
         C           -0.009292400428     0.917446508800    -0.205041586733    12.000000000000
         C           -0.136292400428     1.373446508800    -1.471041586733    12.000000000000
         C           -1.285292400428     0.367446508800     0.156958413267    12.000000000000
         C           -2.149292400428     0.526446508800    -0.954041586733    12.000000000000
         C           -1.791292400428    -0.234553491200     1.314958413267    12.000000000000
         C           -3.466292400428     0.098446508800    -0.938041586733    12.000000000000
         C           -3.100292400428    -0.680553491200     1.324958413267    12.000000000000
         C           -3.925292400428    -0.516553491200     0.208958413267    12.000000000000
         N           -1.422292400428     1.139446508800    -1.934041586733    14.003074004430
         H            2.090707599572     0.915446508800     0.005958413267     1.007825032230
         H            1.217707599572     0.102446508800     1.305958413267     1.007825032230
         H            0.411707599572     2.322446508800     2.105958413267     1.007825032230
         H            0.653707599572     1.842446508800    -2.049041586733     1.007825032230
         H           -1.748292400428     1.381446508800    -2.863041586733     1.007825032230
         H           -1.162292400428    -0.346553491200     2.186958413267     1.007825032230
         H           -4.106292400428     0.232446508800    -1.799041586733     1.007825032230
         H           -3.497292400428    -1.161553491200     2.210958413267     1.007825032230
         H           -4.947292400428    -0.870553491200     0.248958413267     1.007825032230
         H            1.360337599572     3.117986508800     0.818708413267     1.007825032230
         H            2.162017599572     2.150556508800     2.182748413267     1.007825032230
         C            3.611707599572    -1.703553491200    -0.198041586733    12.000000000000
         C            4.878707599572    -2.210553491200    -0.875041586733    12.000000000000
         O            3.720707599572    -1.792553491200     1.209958413267    15.994914619570
         H            3.456707599572    -0.664553491200    -0.483041586733     1.007825032230
         H            2.759707599572    -2.274553491200    -0.557041586733     1.007825032230
         H            4.750707599572    -2.075553491200    -1.950041586733     1.007825032230
         H            4.203707599572    -0.990553491200     1.484958413267     1.007825032230
         H            5.076247599572    -3.272913491200    -0.669201586733     1.007825032230
         H            5.736247599572    -1.607363491200    -0.542201586733     1.007825032230

  Running in c1 symmetry.

  Rotational constants: A =      0.03254  B =      0.00943  C =      0.00922 [cm^-1]
  Rotational constants: A =    975.61744  B =    282.67116  C =    276.41198 [MHz]
  Nuclear repulsion =  834.306036186681013

  Charge       = 0
  Multiplicity = 1
  Electrons    = 104
  Nalpha       = 52
  Nbeta        = 52

  ==> Algorithm <==

  SCF Algorithm Type is PK.
  DIIS enabled.
  MOM disabled.
  Fractional occupation disabled.
  Guess Type is SAD.
  Energy threshold   = 1.00e-06
  Density threshold  = 1.00e-10
  Integral threshold = 0.00e+00

  ==> Primary Basis <==

  Basis Set: CC-PVDZ
    Blend: CC-PVDZ
    Number of shells: 135
    Number of basis function: 281
    Number of Cartesian functions: 295
    Spherical Harmonics?: true
    Max angular momentum: 2

  ==> Pre-Iterations <==

   -------------------------------------------------------
    Irrep   Nso     Nmo     Nalpha   Nbeta   Ndocc  Nsocc
   -------------------------------------------------------
     A        281     281       0       0       0       0
   -------------------------------------------------------
    Total     281     281      52      52      52       0
   -------------------------------------------------------

  ==> Integral Setup <==

  Using integral reordering PK algorithm.
  Sizing the integral batches needed.
  Building batch lookup table.
   Calculation information:
      Number of atoms:                  31
      Number of AO shells:             135
      Number of primitives:            393
      Number of atomic orbitals:       295
      Number of basis functions:       281

      Integral cutoff                 1.00e-12
      Number of threads:                 1

	Batch   1 pq = [       0,    9405] index = [             0,44231715] size =     44231715
	Batch   2 pq = [    9405,   13301] index = [      44231715,88464951] size =     44233236
	Batch   3 pq = [   13301,   16290] index = [      88464951,132690195] size =     44225244
	Batch   4 pq = [   16290,   18810] index = [     132690195,176917455] size =     44227260
	Batch   5 pq = [   18810,   21030] index = [     176917455,221140965] size =     44223510
	Batch   6 pq = [   21030,   23037] index = [     221140965,265363203] size =     44222238
	Batch   7 pq = [   23037,   24883] index = [     265363203,309594286] size =     44231083
	Batch   8 pq = [   24883,   26601] index = [     309594286,353819901] size =     44225615
	Batch   9 pq = [   26601,   28214] index = [     353819901,398029005] size =     44209104
	Batch  10 pq = [   28214,   29740] index = [     398029005,442248670] size =     44219665
	Batch  11 pq = [   29740,   31191] index = [     442248670,486454836] size =     44206166
	Batch  12 pq = [   31191,   32578] index = [     486454836,530679331] size =     44224495
	Batch  13 pq = [   32578,   33908] index = [     530679331,574893186] size =     44213855
	Batch  14 pq = [   33908,   35188] index = [     574893186,619115266] size =     44222080
	Batch  15 pq = [   35188,   36423] index = [     619115266,663335676] size =     44220410
	Batch  16 pq = [   36423,   37617] index = [     663335676,707538153] size =     44202477
	Batch  17 pq = [   37617,   38775] index = [     707538153,751769700] size =     44231547
	Batch  18 pq = [   38775,   39621] index = [     751769700,784931631] size =     33161931
  Task number: 71
  Buffer size: 11059200
  Buffer per thread: 2
  We computed 36259648 shell quartets total.
  Whereas there are 42140790 unique shell quartets.

  ==> DiskJK: Disk-Based J/K Matrices <==

    J tasked:                  Yes
    K tasked:                  Yes
    wK tasked:                  No
    Memory [MiB]:              375
    Schwarz Cutoff:          1E-12

    OpenMP threads:              1

  Minimum eigenvalue in the overlap matrix is 2.2957603900E-04.
  Using Symmetric Orthogonalization.

  SCF Guess: Superposition of Atomic Densities via on-the-fly atomic UHF.

  ==> Iterations <==

                        Total Energy        Delta E     RMS |[F,P]|

   @RHF iter SAD:  -592.84023632189826   -5.92840e+02   0.00000e+00
   @RHF iter   1:  -593.32516266355890   -4.84926e-01   2.54393e-03 DIIS
   @RHF iter   2:  -593.59996940384156   -2.74807e-01   1.20442e-03 DIIS
   @RHF iter   3:  -593.65443597465628   -5.44666e-02   2.95760e-04 DIIS
   @RHF iter   4:  -593.65909518691956   -4.65921e-03   1.27369e-04 DIIS
   @RHF iter   5:  -593.65982116389569   -7.25977e-04   2.16771e-05 DIIS
   @RHF iter   6:  -593.65985859071179   -3.74268e-05   1.00663e-05 DIIS
   @RHF iter   7:  -593.65986700692383   -8.41621e-06   3.70589e-06 DIIS
   @RHF iter   8:  -593.65986918562135   -2.17870e-06   1.52098e-06 DIIS
   @RHF iter   9:  -593.65986967497190   -4.89351e-07   6.67173e-07 DIIS
   @RHF iter  10:  -593.65986976157058   -8.65987e-08   3.09843e-07 DIIS
   @RHF iter  11:  -593.65986978224464   -2.06741e-08   1.14200e-07 DIIS
   @RHF iter  12:  -593.65986978504361   -2.79897e-09   4.32332e-08 DIIS
   @RHF iter  13:  -593.65986978528326   -2.39652e-10   1.36134e-08 DIIS
   @RHF iter  14:  -593.65986978530475   -2.14868e-11   4.92871e-09 DIIS
   @RHF iter  15:  -593.65986978530373    1.02318e-12   2.05377e-09 DIIS
   @RHF iter  16:  -593.65986978529997    3.75167e-12   9.04847e-10 DIIS
   @RHF iter  17:  -593.65986978529884    1.13687e-12   4.57694e-10 DIIS
   @RHF iter  18:  -593.65986978530873   -9.89075e-12   1.80013e-10 DIIS
   @RHF iter  19:  -593.65986978530361    5.11591e-12   6.89316e-11 DIIS
  Energy and wave function converged.

  ==> Post-Iterations <==

    Orbital Energies [Eh]
    ---------------------

    Doubly Occupied:

       1A    -20.550329     2A    -15.599960     3A    -11.272239
       4A    -11.263068     5A    -11.262201     6A    -11.228675
       7A    -11.228230     8A    -11.226942     9A    -11.225422
      10A    -11.219987    11A    -11.219975    12A    -11.218696
      13A    -11.218186    14A    -11.214232    15A     -1.351978
      16A     -1.293588    17A     -1.129559    18A     -1.085739
      19A     -1.015697    20A     -1.007021    21A     -0.992771
      22A     -0.968854    23A     -0.857102    24A     -0.838020
      25A     -0.835849    26A     -0.804121    27A     -0.747628
      28A     -0.717773    29A     -0.688182    30A     -0.662966
      31A     -0.643940    32A     -0.624223    33A     -0.616360
      34A     -0.597936    35A     -0.589587    36A     -0.583757
      37A     -0.580630    38A     -0.575910    39A     -0.548657
      40A     -0.544191    41A     -0.520326    42A     -0.512667
      43A     -0.506500    44A     -0.500955    45A     -0.483137
      46A     -0.473686    47A     -0.461916    48A     -0.460631
      49A     -0.431079    50A     -0.373273    51A     -0.294329
      52A     -0.276792

    Virtual:

      53A      0.126719    54A      0.161670    55A      0.172267
      56A      0.180863    57A      0.192958    58A      0.201703
      59A      0.205986    60A      0.220286    61A      0.231714
      62A      0.232525    63A      0.238123    64A      0.251185
      65A      0.259037    66A      0.267097    67A      0.271449
      68A      0.284248    69A      0.284987    70A      0.290934
      71A      0.321541    72A      0.355973    73A      0.372629
      74A      0.386305    75A      0.394402    76A      0.401095
      77A      0.411688    78A      0.423968    79A      0.433969
      80A      0.448225    81A      0.476216    82A      0.487347
      83A      0.509094    84A      0.517839    85A      0.576500
      86A      0.601430    87A      0.603295    88A      0.604551
      89A      0.626778    90A      0.642116    91A      0.657720
      92A      0.660464    93A      0.668325    94A      0.692355
      95A      0.709183    96A      0.715696    97A      0.722781
      98A      0.731471    99A      0.738138   100A      0.740403
     101A      0.746021   102A      0.755910   103A      0.758624
     104A      0.763839   105A      0.775247   106A      0.783632
     107A      0.791802   108A      0.797007   109A      0.815160
     110A      0.843558   111A      0.848349   112A      0.855749
     113A      0.877188   114A      0.878080   115A      0.886125
     116A      0.890055   117A      0.891852   118A      0.896095
     119A      0.899615   120A      0.907173   121A      0.908669
     122A      0.918505   123A      0.929486   124A      0.941104
     125A      0.948822   126A      0.955975   127A      0.960444
     128A      0.976287   129A      0.981196   130A      0.989040
     131A      0.995572   132A      1.011633   133A      1.051406
     134A      1.078356   135A      1.082041   136A      1.098236
     137A      1.130367   138A      1.134547   139A      1.137734
     140A      1.141416   141A      1.148772   142A      1.160182
     143A      1.172246   144A      1.192827   145A      1.210325
     146A      1.221953   147A      1.228963   148A      1.237745
     149A      1.256450   150A      1.271368   151A      1.278465
     152A      1.287359   153A      1.302090   154A      1.330158
     155A      1.335083   156A      1.348622   157A      1.361528
     158A      1.363728   159A      1.370452   160A      1.391446
     161A      1.432726   162A      1.439937   163A      1.465013
     164A      1.480899   165A      1.517023   166A      1.544372
     167A      1.561032   168A      1.584073   169A      1.600397
     170A      1.608315   171A      1.642069   172A      1.644179
     173A      1.654634   174A      1.665277   175A      1.677672
     176A      1.681124   177A      1.727201   178A      1.733776
     179A      1.741237   180A      1.760904   181A      1.773525
     182A      1.787762   183A      1.799967   184A      1.825390
     185A      1.833234   186A      1.858024   187A      1.867072
     188A      1.870047   189A      1.882331   190A      1.884485
     191A      1.887386   192A      1.899397   193A      1.902354
     194A      1.920389   195A      1.926894   196A      1.935355
     197A      1.942074   198A      1.958553   199A      1.960486
     200A      1.969556   201A      1.972474   202A      1.980260
     203A      1.986113   204A      1.993654   205A      2.002291
     206A      2.006855   207A      2.017543   208A      2.030977
     209A      2.041412   210A      2.061988   211A      2.068740
     212A      2.092992   213A      2.095589   214A      2.097073
     215A      2.105580   216A      2.112495   217A      2.121312
     218A      2.152147   219A      2.160060   220A      2.168604
     221A      2.174167   222A      2.177795   223A      2.206459
     224A      2.232112   225A      2.262712   226A      2.273760
     227A      2.288024   228A      2.292223   229A      2.305627
     230A      2.319039   231A      2.340918   232A      2.344962
     233A      2.347860   234A      2.366707   235A      2.376027
     236A      2.408132   237A      2.427334   238A      2.457238
     239A      2.481845   240A      2.503588   241A      2.521660
     242A      2.532798   243A      2.553406   244A      2.555103
     245A      2.581350   246A      2.598328   247A      2.611649
     248A      2.650157   249A      2.675178   250A      2.705856
     251A      2.714132   252A      2.753619   253A      2.768674
     254A      2.774571   255A      2.781461   256A      2.788343
     257A      2.803997   258A      2.805635   259A      2.816470
     260A      2.834975   261A      2.881976   262A      2.893913
     263A      2.914310   264A      2.920774   265A      2.931950
     266A      2.971149   267A      2.996508   268A      3.055164
     269A      3.069019   270A      3.107626   271A      3.141307
     272A      3.223139   273A      3.320778   274A      3.335114
     275A      3.387237   276A      3.399246   277A      3.483362
     278A      3.625911   279A      3.745467   280A      3.965931
     281A      4.084962

    Final Occupation by Irrep:
              A
    DOCC [    52 ]

  @RHF Final Energy:  -593.65986978530361

   => Energetics <=

    Nuclear Repulsion Energy =            834.3060361866810126
    One-Electron Energy =               -2461.6408601933994760
    Two-Electron Energy =                1033.6749542214147368
    Total Energy =                       -593.6598697853037265

Computation Completed

Properties will be evaluated at   0.000000,   0.000000,   0.000000 [a0]

Properties computed using the SCF density matrix

  Nuclear Dipole Moment: [e a0]
     X:    17.2884      Y:    -1.1359      Z:     1.5475

  Electronic Dipole Moment: [e a0]
     X:   -16.9405      Y:     1.9097      Z:    -2.6181

  Dipole Moment: [e a0]
     X:     0.3479      Y:     0.7738      Z:    -1.0706     Total:     1.3660

  Dipole Moment: [D]
     X:     0.8843      Y:     1.9668      Z:    -2.7212     Total:     3.4720

*** tstop() called on ds3 at Mon Apr 27 16:10:05 2020
Module time:
	user time   =     319.12 seconds =       5.32 minutes
	system time =     141.38 seconds =       2.36 minutes
	total time  =        464 seconds =       7.73 minutes
Total time:
	user time   =     319.12 seconds =       5.32 minutes
	system time =     141.38 seconds =       2.36 minutes
	total time  =        464 seconds =       7.73 minutes
                                     G D M A

                                 by Anthony Stone

                           version 2.2.06, 22 June 2011

               Distributed Multipoles from Gaussian wavefunctions

Starting at 16:10:5 on 27 Apr 2020

Using SCF density matrix from file ./SSI/SSI-181TRP-189SER-1-dimer.test.6019.fchk

                         Distributed Multipole Analysis

Standard DMA

Positions and radii in angstrom
Multipole moments in atomic units, ea_0^k for rank k

C          x =  1.214708  y =  0.973447  z =  0.649958 angstrom
           Maximum rank =  0   Radius =  0.650 angstrom
                   Q00  =  -0.055303

C          x =  1.311708  y =  2.249447  z =  1.491958 angstrom
           Maximum rank =  0   Radius =  0.650 angstrom
                   Q00  =  -0.201183

C          x = -0.009292  y =  0.917447  z = -0.205042 angstrom
           Maximum rank =  0   Radius =  0.650 angstrom
                   Q00  =  -0.113588

C          x = -0.136292  y =  1.373447  z = -1.471042 angstrom
           Maximum rank =  0   Radius =  0.650 angstrom
                   Q00  =   0.062380

C          x = -1.285292  y =  0.367447  z =  0.156958 angstrom
           Maximum rank =  0   Radius =  0.650 angstrom
                   Q00  =  -0.056222

C          x = -2.149292  y =  0.526447  z = -0.954042 angstrom
           Maximum rank =  0   Radius =  0.650 angstrom
                   Q00  =   0.248644

C          x = -1.791292  y = -0.234553  z =  1.314958 angstrom
           Maximum rank =  0   Radius =  0.650 angstrom
                   Q00  =  -0.097817

C          x = -3.466292  y =  0.098447  z = -0.938042 angstrom
           Maximum rank =  0   Radius =  0.650 angstrom
                   Q00  =  -0.121885

C          x = -3.100292  y = -0.680553  z =  1.324958 angstrom
           Maximum rank =  0   Radius =  0.650 angstrom
                   Q00  =  -0.107089

C          x = -3.925292  y = -0.516553  z =  0.208958 angstrom
           Maximum rank =  0   Radius =  0.650 angstrom
                   Q00  =   0.008688

N          x = -1.422292  y =  1.139447  z = -1.934042 angstrom
           Maximum rank =  0   Radius =  0.650 angstrom
                   Q00  =  -0.497970

H          x =  2.090708  y =  0.915447  z =  0.005958 angstrom
           Maximum rank =  0   Radius =  0.325 angstrom
                   Q00  =   0.057826

H          x =  1.217708  y =  0.102447  z =  1.305958 angstrom
           Maximum rank =  0   Radius =  0.325 angstrom
                   Q00  =   0.079445

H          x =  0.411708  y =  2.322447  z =  2.105958 angstrom
           Maximum rank =  0   Radius =  0.325 angstrom
                   Q00  =   0.086662

H          x =  0.653708  y =  1.842447  z = -2.049042 angstrom
           Maximum rank =  0   Radius =  0.325 angstrom
                   Q00  =   0.099042

H          x = -1.748292  y =  1.381447  z = -2.863042 angstrom
           Maximum rank =  0   Radius =  0.325 angstrom
                   Q00  =   0.216451

H          x = -1.162292  y = -0.346553  z =  2.186958 angstrom
           Maximum rank =  0   Radius =  0.325 angstrom
                   Q00  =   0.069758

H          x = -4.106292  y =  0.232447  z = -1.799042 angstrom
           Maximum rank =  0   Radius =  0.325 angstrom
                   Q00  =   0.072405

H          x = -3.497292  y = -1.161553  z =  2.210958 angstrom
           Maximum rank =  0   Radius =  0.325 angstrom
                   Q00  =   0.059287

H          x = -4.947292  y = -0.870553  z =  0.248958 angstrom
           Maximum rank =  0   Radius =  0.325 angstrom
                   Q00  =   0.063354

H          x =  1.360338  y =  3.117987  z =  0.818708 angstrom
           Maximum rank =  0   Radius =  0.325 angstrom
                   Q00  =   0.065834

H          x =  2.162018  y =  2.150557  z =  2.182748 angstrom
           Maximum rank =  0   Radius =  0.325 angstrom
                   Q00  =   0.062218

C          x =  3.611708  y = -1.703553  z = -0.198042 angstrom
           Maximum rank =  0   Radius =  0.650 angstrom
                   Q00  =   0.115546

C          x =  4.878708  y = -2.210553  z = -0.875042 angstrom
           Maximum rank =  0   Radius =  0.650 angstrom
                   Q00  =  -0.256711

O          x =  3.720708  y = -1.792553  z =  1.209958 angstrom
           Maximum rank =  0   Radius =  0.650 angstrom
                   Q00  =  -0.609160

H          x =  3.456708  y = -0.664553  z = -0.483042 angstrom
           Maximum rank =  0   Radius =  0.325 angstrom
                   Q00  =   0.024812

H          x =  2.759708  y = -2.274553  z = -0.557042 angstrom
           Maximum rank =  0   Radius =  0.325 angstrom
                   Q00  =   0.085155

H          x =  4.750708  y = -2.075553  z = -1.950042 angstrom
           Maximum rank =  0   Radius =  0.325 angstrom
                   Q00  =   0.075722

H          x =  4.203708  y = -0.990553  z =  1.484958 angstrom
           Maximum rank =  0   Radius =  0.325 angstrom
                   Q00  =   0.393810

H          x =  5.076248  y = -3.272913  z = -0.669202 angstrom
           Maximum rank =  0   Radius =  0.325 angstrom
                   Q00  =   0.095846

H          x =  5.736248  y = -1.607363  z = -0.542202 angstrom
           Maximum rank =  0   Radius =  0.325 angstrom
                   Q00  =   0.074045

Total multipoles referred to origin at
           x =   0.000000,  y =    0.000000,  z =    0.000000 angstrom
                   Q00  =  -0.000000

Finished at 16:10:5 on 27 Apr 2020

  DMA results are available in the Python driver through the
	  variable('DMA DISTRIBUTED MULTIPOLES')
  and
	  variable('DMA TOTAL MULTIPOLES')
  commands.

    Psi4 stopped on: Monday, 27 April 2020 04:10PM
    Psi4 wall time for execution: 0:07:44.15

*** Psi4 exiting successfully. Buy a developer a beer!
