                               Psi4 1.3.2 release

  ==> Input File <==

--------------------------------------------------------------------------
import numpy as np
set {scf_type pk
basis cc-pvdz
d_convergence 10
gdma_switch   0
gdma_limit    0
gdma_origin   [ 0.0,  0.0,  0.0 ]
}
molecule test {
    units Angstrom
    0 1
    --
    0 1
    C               -0.256159465273406     0.508917453938308     1.826188786443483
    C               -1.668159465273406    -0.091082546061692     1.915188786443483
    H               -0.279159465273406     1.392917453938308     1.189188786443483
    H                0.086840534726594     0.800917453938308     2.820188786443483
    H                0.435840534726594    -0.223082546061692     1.408188786443483
    H               -1.962159465273405    -0.425082546061692     0.919188786443483
    H               -1.687447465273406    -0.952617546061692     2.598848786443483
    H               -2.390303465273406     0.676420453938308     2.230538786443483
    C                1.256840534726594     0.405917453938308    -1.517811213556517
    C                0.669840534726594    -0.824082546061692    -2.223811213556517
    H                0.497840534726594     0.849917453938308    -0.881811213556517
    H                2.098840534726595     0.116917453938308    -0.891811213556517
    H                1.581840534726594     1.144917453938308    -2.252811213556517
    H                0.403840534726594    -1.548082546061692    -1.454811213556517
    H                1.425230534726594    -1.260271546061692    -2.893981213556517
    H               -0.239329465273406    -0.568939546061692    -2.788001213556517

}
e, wfn = energy('scf', return_wfn=True)
gdma(wfn)
dmavals = variable('DMA DISTRIBUTED MULTIPOLES')
charges = np.array(dmavals)
print(charges)
np.save('SSI-005VAL-023LEU-1-dimer.npy', np.array(charges))--------------------------------------------------------------------------

*** tstart() called on ds3
*** at Tue Apr 28 07:55:59 2020

   => Loading Basis Set <=

    Name: CC-PVDZ
    Role: ORBITAL
    Keyword: BASIS
    atoms 1-2, 9-10  entry C          line   138 file /theoryfs2/ds/metcalf/miniconda2/envs/tf2gpu/share/psi4/basis/cc-pvdz.gbs
    atoms 3-8, 11-16 entry H          line    22 file /theoryfs2/ds/metcalf/miniconda2/envs/tf2gpu/share/psi4/basis/cc-pvdz.gbs

         ---------------------------------------------------------
                                   SCF
               by Justin Turney, Rob Parrish, Andy Simmonett
                          and Daniel G. A. Smith
                              RHF Reference
                        1 Threads,    500 MiB Core
         ---------------------------------------------------------

  ==> Geometry <==

    Molecular point group: c1
    Full point group: C1

    Geometry (in Angstrom), charge = 0, multiplicity = 1:

       Center              X                  Y                   Z               Mass
    ------------   -----------------  -----------------  -----------------  -----------------
         C           -0.256159465273     0.508917453938     1.826188786443    12.000000000000
         C           -1.668159465273    -0.091082546062     1.915188786443    12.000000000000
         H           -0.279159465273     1.392917453938     1.189188786443     1.007825032230
         H            0.086840534727     0.800917453938     2.820188786443     1.007825032230
         H            0.435840534727    -0.223082546062     1.408188786443     1.007825032230
         H           -1.962159465273    -0.425082546062     0.919188786443     1.007825032230
         H           -1.687447465273    -0.952617546062     2.598848786443     1.007825032230
         H           -2.390303465273     0.676420453938     2.230538786443     1.007825032230
         C            1.256840534727     0.405917453938    -1.517811213557    12.000000000000
         C            0.669840534727    -0.824082546062    -2.223811213557    12.000000000000
         H            0.497840534727     0.849917453938    -0.881811213557     1.007825032230
         H            2.098840534727     0.116917453938    -0.891811213557     1.007825032230
         H            1.581840534727     1.144917453938    -2.252811213557     1.007825032230
         H            0.403840534727    -1.548082546062    -1.454811213557     1.007825032230
         H            1.425230534727    -1.260271546062    -2.893981213557     1.007825032230
         H           -0.239329465273    -0.568939546062    -2.788001213557     1.007825032230

  Running in c1 symmetry.

  Rotational constants: A =      0.37413  B =      0.05855  C =      0.05318 [cm^-1]
  Rotational constants: A =  11216.20236  B =   1755.25286  C =   1594.36992 [MHz]
  Nuclear repulsion =  124.194823340418466

  Charge       = 0
  Multiplicity = 1
  Electrons    = 36
  Nalpha       = 18
  Nbeta        = 18

  ==> Algorithm <==

  SCF Algorithm Type is PK.
  DIIS enabled.
  MOM disabled.
  Fractional occupation disabled.
  Guess Type is SAD.
  Energy threshold   = 1.00e-06
  Density threshold  = 1.00e-10
  Integral threshold = 0.00e+00

  ==> Primary Basis <==

  Basis Set: CC-PVDZ
    Blend: CC-PVDZ
    Number of shells: 60
    Number of basis function: 116
    Number of Cartesian functions: 120
    Spherical Harmonics?: true
    Max angular momentum: 2

  ==> Pre-Iterations <==

   -------------------------------------------------------
    Irrep   Nso     Nmo     Nalpha   Nbeta   Ndocc  Nsocc
   -------------------------------------------------------
     A        116     116       0       0       0       0
   -------------------------------------------------------
    Total     116     116      18      18      18       0
   -------------------------------------------------------

  ==> Integral Setup <==

  Using integral reordering PK algorithm.
  Sizing the integral batches needed.
  Building batch lookup table.
   Calculation information:
      Number of atoms:                  16
      Number of AO shells:              60
      Number of primitives:            148
      Number of atomic orbitals:       120
      Number of basis functions:       116

      Integral cutoff                 1.00e-12
      Number of threads:                 1

	Batch   1 pq = [       0,    6786] index = [             0,23028291] size =     23028291
  Task number: 3
  Buffer size: 11059200
  Buffer per thread: 2
  We computed 1525023 shell quartets total.
  Whereas there are 1675365 unique shell quartets.

  ==> DiskJK: Disk-Based J/K Matrices <==

    J tasked:                  Yes
    K tasked:                  Yes
    wK tasked:                  No
    Memory [MiB]:              375
    Schwarz Cutoff:          1E-12

    OpenMP threads:              1

  Minimum eigenvalue in the overlap matrix is 7.6632712494E-03.
  Using Symmetric Orthogonalization.

  SCF Guess: Superposition of Atomic Densities via on-the-fly atomic UHF.

  ==> Iterations <==

                        Total Energy        Delta E     RMS |[F,P]|

   @RHF iter SAD:  -157.33728112216622   -1.57337e+02   0.00000e+00
   @RHF iter   1:  -158.30828591398290   -9.71005e-01   4.18728e-03 DIIS
   @RHF iter   2:  -158.44067930207504   -1.32393e-01   1.77898e-03 DIIS
   @RHF iter   3:  -158.46369419420196   -2.30149e-02   3.49523e-04 DIIS
   @RHF iter   4:  -158.46552215224764   -1.82796e-03   3.91009e-05 DIIS
   @RHF iter   5:  -158.46554605862016   -2.39064e-05   6.86620e-06 DIIS
   @RHF iter   6:  -158.46554673601429   -6.77394e-07   1.26918e-06 DIIS
   @RHF iter   7:  -158.46554675138901   -1.53747e-08   3.25849e-07 DIIS
   @RHF iter   8:  -158.46554675239750   -1.00849e-09   4.08736e-08 DIIS
   @RHF iter   9:  -158.46554675242405   -2.65459e-11   8.53924e-09 DIIS
   @RHF iter  10:  -158.46554675242564   -1.59162e-12   2.31800e-09 DIIS
   @RHF iter  11:  -158.46554675242612   -4.83169e-13   4.98204e-10 DIIS
   @RHF iter  12:  -158.46554675242584    2.84217e-13   1.52396e-10 DIIS
   @RHF iter  13:  -158.46554675242604   -1.98952e-13   2.82534e-11 DIIS
  Energy and wave function converged.

  ==> Post-Iterations <==

    Orbital Energies [Eh]
    ---------------------

    Doubly Occupied:

       1A    -11.220597     2A    -11.219652     3A    -11.218139
       4A    -11.215378     5A     -1.018644     6A     -1.015194
       7A     -0.840120     8A     -0.834386     9A     -0.605450
      10A     -0.600601    11A     -0.595415    12A     -0.590248
      13A     -0.502544    14A     -0.496325    15A     -0.492585
      16A     -0.488111    17A     -0.484642    18A     -0.478322

    Virtual:

      19A      0.165097    20A      0.205377    21A      0.223036
      22A      0.229460    23A      0.248120    24A      0.256351
      25A      0.263436    26A      0.273136    27A      0.275707
      28A      0.292673    29A      0.319899    30A      0.369171
      31A      0.386102    32A      0.398488    33A      0.581599
      34A      0.590088    35A      0.598902    36A      0.604112
      37A      0.619202    38A      0.633195    39A      0.655130
      40A      0.688024    41A      0.690285    42A      0.821567
      43A      0.836015    44A      0.850834    45A      0.879908
      46A      0.885702    47A      0.888811    48A      0.897029
      49A      0.903227    50A      0.905804    51A      0.914853
      52A      0.918337    53A      0.953576    54A      0.964453
      55A      0.975610    56A      0.997429    57A      1.121011
      58A      1.125791    59A      1.126565    60A      1.166582
      61A      1.232693    62A      1.268734    63A      1.468153
      64A      1.474584    65A      1.480969    66A      1.484278
      67A      1.549118    68A      1.581918    69A      1.681435
      70A      1.682722    71A      1.698515    72A      1.720605
      73A      1.855813    74A      1.859234    75A      1.872035
      76A      1.880251    77A      1.893249    78A      1.915821
      79A      1.935847    80A      1.939286    81A      1.944357
      82A      1.945891    83A      1.951181    84A      1.959582
      85A      1.961647    86A      1.968081    87A      1.971032
      88A      2.005619    89A      2.087773    90A      2.104392
      91A      2.119857    92A      2.132141    93A      2.287628
      94A      2.295784    95A      2.311117    96A      2.313936
      97A      2.447254    98A      2.461306    99A      2.467821
     100A      2.471204   101A      2.558660   102A      2.562358
     103A      2.575240   104A      2.581806   105A      2.757123
     106A      2.760502   107A      2.791644   108A      2.800098
     109A      2.841490   110A      2.849741   111A      2.855001
     112A      2.858812   113A      2.934248   114A      2.949352
     115A      2.976485   116A      2.989577

    Final Occupation by Irrep:
              A
    DOCC [    18 ]

  @RHF Final Energy:  -158.46554675242604

   => Energetics <=

    Nuclear Repulsion Energy =            124.1948233404184663
    One-Electron Energy =                -457.4880295913750388
    Two-Electron Energy =                 174.8276594985305508
    Total Energy =                       -158.4655467524260359

Computation Completed

Properties will be evaluated at   0.000000,   0.000000,   0.000000 [a0]

Properties computed using the SCF density matrix

  Nuclear Dipole Moment: [e a0]
     X:    -0.0264      Y:     0.0037      Z:     0.0027

  Electronic Dipole Moment: [e a0]
     X:     0.0254      Y:     0.0087      Z:     0.0158

  Dipole Moment: [e a0]
     X:    -0.0010      Y:     0.0124      Z:     0.0185     Total:     0.0223

  Dipole Moment: [D]
     X:    -0.0025      Y:     0.0316      Z:     0.0471     Total:     0.0568

*** tstop() called on ds3 at Tue Apr 28 07:56:10 2020
Module time:
	user time   =       7.60 seconds =       0.13 minutes
	system time =       2.89 seconds =       0.05 minutes
	total time  =         11 seconds =       0.18 minutes
Total time:
	user time   =       7.60 seconds =       0.13 minutes
	system time =       2.89 seconds =       0.05 minutes
	total time  =         11 seconds =       0.18 minutes
                                     G D M A

                                 by Anthony Stone

                           version 2.2.06, 22 June 2011

               Distributed Multipoles from Gaussian wavefunctions

Starting at 7:56:10 on 28 Apr 2020

Using SCF density matrix from file ./SSI/SSI-005VAL-023LEU-1-dimer.test.7819.fchk

                         Distributed Multipole Analysis

Standard DMA

Positions and radii in angstrom
Multipole moments in atomic units, ea_0^k for rank k

C          x = -0.256159  y =  0.508917  z =  1.826189 angstrom
           Maximum rank =  0   Radius =  0.650 angstrom
                   Q00  =  -0.236430

C          x = -1.668159  y = -0.091083  z =  1.915189 angstrom
           Maximum rank =  0   Radius =  0.650 angstrom
                   Q00  =  -0.239809

H          x = -0.279159  y =  1.392917  z =  1.189189 angstrom
           Maximum rank =  0   Radius =  0.325 angstrom
                   Q00  =   0.079491

H          x =  0.086841  y =  0.800917  z =  2.820189 angstrom
           Maximum rank =  0   Radius =  0.325 angstrom
                   Q00  =   0.079575

H          x =  0.435841  y = -0.223083  z =  1.408189 angstrom
           Maximum rank =  0   Radius =  0.325 angstrom
                   Q00  =   0.080562

H          x = -1.962159  y = -0.425083  z =  0.919189 angstrom
           Maximum rank =  0   Radius =  0.325 angstrom
                   Q00  =   0.076730

H          x = -1.687447  y = -0.952618  z =  2.598849 angstrom
           Maximum rank =  0   Radius =  0.325 angstrom
                   Q00  =   0.081262

H          x = -2.390303  y =  0.676420  z =  2.230539 angstrom
           Maximum rank =  0   Radius =  0.325 angstrom
                   Q00  =   0.079743

C          x =  1.256841  y =  0.405917  z = -1.517811 angstrom
           Maximum rank =  0   Radius =  0.650 angstrom
                   Q00  =  -0.230846

C          x =  0.669841  y = -0.824083  z = -2.223811 angstrom
           Maximum rank =  0   Radius =  0.650 angstrom
                   Q00  =  -0.248319

H          x =  0.497841  y =  0.849917  z = -0.881811 angstrom
           Maximum rank =  0   Radius =  0.325 angstrom
                   Q00  =   0.083905

H          x =  2.098841  y =  0.116917  z = -0.891811 angstrom
           Maximum rank =  0   Radius =  0.325 angstrom
                   Q00  =   0.079700

H          x =  1.581841  y =  1.144917  z = -2.252811 angstrom
           Maximum rank =  0   Radius =  0.325 angstrom
                   Q00  =   0.078157

H          x =  0.403841  y = -1.548083  z = -1.454811 angstrom
           Maximum rank =  0   Radius =  0.325 angstrom
                   Q00  =   0.076428

H          x =  1.425231  y = -1.260272  z = -2.893981 angstrom
           Maximum rank =  0   Radius =  0.325 angstrom
                   Q00  =   0.079444

H          x = -0.239329  y = -0.568940  z = -2.788001 angstrom
           Maximum rank =  0   Radius =  0.325 angstrom
                   Q00  =   0.080406

Total multipoles referred to origin at
           x =   0.000000,  y =    0.000000,  z =    0.000000 angstrom
                   Q00  =  -0.000000

Finished at 7:56:10 on 28 Apr 2020

  DMA results are available in the Python driver through the
	  variable('DMA DISTRIBUTED MULTIPOLES')
  and
	  variable('DMA TOTAL MULTIPOLES')
  commands.

    Psi4 stopped on: Tuesday, 28 April 2020 07:56AM
    Psi4 wall time for execution: 0:00:10.80

*** Psi4 exiting successfully. Buy a developer a beer!
