                               Psi4 1.3.2 release

  ==> Input File <==

--------------------------------------------------------------------------
import numpy as np
set {scf_type pk
basis cc-pvdz
d_convergence 10
gdma_switch   0
gdma_limit    0
gdma_origin   [ 0.0,  0.0,  0.0 ]
}
molecule test {
    units Angstrom
    0 1
    --
    0 1
    C               -0.296779752917999     0.992004304190792     3.033234809305513
    C                1.653220247082001     0.270004304190792    -0.159765190694488
    C                1.055220247082001     0.944004304190792     0.894234809305512
    C                1.510220247082001    -1.092995695809208    -0.219765190694488
    C                0.278220247082001     0.257004304190792     1.841234809305512
    C                0.716220247082001    -1.789995695809208     0.701234809305512
    C                0.104220247082001    -1.115995695809208     1.708234809305512
    O                2.098220247082001    -1.743995695809208    -1.217765190694488
    H                2.241220247082001     0.804004304190792    -0.891765190694488
    H                1.198220247082001     2.012004304190792     0.992234809305512
    H                2.242220247082001    -1.157995695809208    -1.997765190694488
    H                0.555220247082001    -2.849995695809208     0.570234809305512
    H               -1.120779752917999     0.432004304190792     3.479234809305513
    H               -0.658779752917999     1.971004304190792     2.714234809305513
    H               -0.664779752917999    -1.603995695809208     2.263234809305513
    H                0.522370247082001     1.112694304190792     3.757404809305513
    C               -1.765779752917999     0.785004304190792    -1.773765190694488
    C               -2.098779752917999     1.057004304190791    -3.240765190694487
    C               -2.797779752917999     1.253004304190792    -0.773765190694488
    H               -1.659779752917999    -0.294995695809208    -1.648765190694488
    H               -0.796779752917999     1.225004304190792    -1.528765190694488
    H               -2.105779752917999     2.138004304190792    -3.407765190694488
    H               -3.799779752917999     0.929004304190792    -1.052765190694488
    H               -2.551779752917999     0.799004304190792     0.187234809305512
    H               -3.078929752917999     0.633054304190792    -3.504505190694487
    H               -1.316029752917999     0.619654304190792    -3.877965190694487
    H               -2.757729752917999     2.346764304190792    -0.663805190694488

}
e, wfn = energy('scf', return_wfn=True)
gdma(wfn)
dmavals = variable('DMA DISTRIBUTED MULTIPOLES')
charges = np.array(dmavals)
print(charges)
np.save('SSI-053TYR-094LYS-1-dimer.npy', np.array(charges))--------------------------------------------------------------------------

*** tstart() called on ds3
*** at Tue Apr 28 09:48:01 2020

   => Loading Basis Set <=

    Name: CC-PVDZ
    Role: ORBITAL
    Keyword: BASIS
    atoms 1-7, 17-19  entry C          line   138 file /theoryfs2/ds/metcalf/miniconda2/envs/tf2gpu/share/psi4/basis/cc-pvdz.gbs
    atoms 8           entry O          line   198 file /theoryfs2/ds/metcalf/miniconda2/envs/tf2gpu/share/psi4/basis/cc-pvdz.gbs
    atoms 9-16, 20-27 entry H          line    22 file /theoryfs2/ds/metcalf/miniconda2/envs/tf2gpu/share/psi4/basis/cc-pvdz.gbs

         ---------------------------------------------------------
                                   SCF
               by Justin Turney, Rob Parrish, Andy Simmonett
                          and Daniel G. A. Smith
                              RHF Reference
                        1 Threads,    500 MiB Core
         ---------------------------------------------------------

  ==> Geometry <==

    Molecular point group: c1
    Full point group: C1

    Geometry (in Angstrom), charge = 0, multiplicity = 1:

       Center              X                  Y                   Z               Mass
    ------------   -----------------  -----------------  -----------------  -----------------
         C           -0.296779752918     0.992004304191     3.033234809306    12.000000000000
         C            1.653220247082     0.270004304191    -0.159765190694    12.000000000000
         C            1.055220247082     0.944004304191     0.894234809306    12.000000000000
         C            1.510220247082    -1.092995695809    -0.219765190694    12.000000000000
         C            0.278220247082     0.257004304191     1.841234809306    12.000000000000
         C            0.716220247082    -1.789995695809     0.701234809306    12.000000000000
         C            0.104220247082    -1.115995695809     1.708234809306    12.000000000000
         O            2.098220247082    -1.743995695809    -1.217765190694    15.994914619570
         H            2.241220247082     0.804004304191    -0.891765190694     1.007825032230
         H            1.198220247082     2.012004304191     0.992234809306     1.007825032230
         H            2.242220247082    -1.157995695809    -1.997765190694     1.007825032230
         H            0.555220247082    -2.849995695809     0.570234809306     1.007825032230
         H           -1.120779752918     0.432004304191     3.479234809306     1.007825032230
         H           -0.658779752918     1.971004304191     2.714234809306     1.007825032230
         H           -0.664779752918    -1.603995695809     2.263234809306     1.007825032230
         H            0.522370247082     1.112694304191     3.757404809306     1.007825032230
         C           -1.765779752918     0.785004304191    -1.773765190694    12.000000000000
         C           -2.098779752918     1.057004304191    -3.240765190694    12.000000000000
         C           -2.797779752918     1.253004304191    -0.773765190694    12.000000000000
         H           -1.659779752918    -0.294995695809    -1.648765190694     1.007825032230
         H           -0.796779752918     1.225004304191    -1.528765190694     1.007825032230
         H           -2.105779752918     2.138004304191    -3.407765190694     1.007825032230
         H           -3.799779752918     0.929004304191    -1.052765190694     1.007825032230
         H           -2.551779752918     0.799004304191     0.187234809306     1.007825032230
         H           -3.078929752918     0.633054304191    -3.504505190694     1.007825032230
         H           -1.316029752918     0.619654304191    -3.877965190694     1.007825032230
         H           -2.757729752918     2.346764304191    -0.663805190694     1.007825032230

  Running in c1 symmetry.

  Rotational constants: A =      0.03573  B =      0.02324  C =      0.01670 [cm^-1]
  Rotational constants: A =   1071.26588  B =    696.69542  C =    500.52232 [MHz]
  Nuclear repulsion =  593.276951881890454

  Charge       = 0
  Multiplicity = 1
  Electrons    = 84
  Nalpha       = 42
  Nbeta        = 42

  ==> Algorithm <==

  SCF Algorithm Type is PK.
  DIIS enabled.
  MOM disabled.
  Fractional occupation disabled.
  Guess Type is SAD.
  Energy threshold   = 1.00e-06
  Density threshold  = 1.00e-10
  Integral threshold = 0.00e+00

  ==> Primary Basis <==

  Basis Set: CC-PVDZ
    Blend: CC-PVDZ
    Number of shells: 114
    Number of basis function: 234
    Number of Cartesian functions: 245
    Spherical Harmonics?: true
    Max angular momentum: 2

  ==> Pre-Iterations <==

   -------------------------------------------------------
    Irrep   Nso     Nmo     Nalpha   Nbeta   Ndocc  Nsocc
   -------------------------------------------------------
     A        234     234       0       0       0       0
   -------------------------------------------------------
    Total     234     234      42      42      42       0
   -------------------------------------------------------

  ==> Integral Setup <==

  Using integral reordering PK algorithm.
  Sizing the integral batches needed.
  Building batch lookup table.
   Calculation information:
      Number of atoms:                  27
      Number of AO shells:             114
      Number of primitives:            322
      Number of atomic orbitals:       245
      Number of basis functions:       234

      Integral cutoff                 1.00e-12
      Number of threads:                 1

	Batch   1 pq = [       0,    9405] index = [             0,44231715] size =     44231715
	Batch   2 pq = [    9405,   13301] index = [      44231715,88464951] size =     44233236
	Batch   3 pq = [   13301,   16290] index = [      88464951,132690195] size =     44225244
	Batch   4 pq = [   16290,   18810] index = [     132690195,176917455] size =     44227260
	Batch   5 pq = [   18810,   21030] index = [     176917455,221140965] size =     44223510
	Batch   6 pq = [   21030,   23037] index = [     221140965,265363203] size =     44222238
	Batch   7 pq = [   23037,   24883] index = [     265363203,309594286] size =     44231083
	Batch   8 pq = [   24883,   26601] index = [     309594286,353819901] size =     44225615
	Batch   9 pq = [   26601,   27495] index = [     353819901,378001260] size =     24181359
  Task number: 35
  Buffer size: 11059200
  Buffer per thread: 2
  We computed 21516730 shell quartets total.
  Whereas there are 21487290 unique shell quartets.
     0.14 percent of shell quartets recomputed by reordering.

  ==> DiskJK: Disk-Based J/K Matrices <==

    J tasked:                  Yes
    K tasked:                  Yes
    wK tasked:                  No
    Memory [MiB]:              375
    Schwarz Cutoff:          1E-12

    OpenMP threads:              1

  Minimum eigenvalue in the overlap matrix is 3.3454631800E-04.
  Using Symmetric Orthogonalization.

  SCF Guess: Superposition of Atomic Densities via on-the-fly atomic UHF.

  ==> Iterations <==

                        Total Energy        Delta E     RMS |[F,P]|

   @RHF iter SAD:  -461.84874983535326   -4.61849e+02   0.00000e+00
   @RHF iter   1:  -462.59071306780044   -7.41963e-01   2.85414e-03 DIIS
   @RHF iter   2:  -462.83926834143557   -2.48555e-01   1.21503e-03 DIIS
   @RHF iter   3:  -462.88021838098371   -4.09500e-02   2.65820e-04 DIIS
   @RHF iter   4:  -462.88349219903193   -3.27382e-03   1.00353e-04 DIIS
   @RHF iter   5:  -462.88381642514827   -3.24226e-04   2.10246e-05 DIIS
   @RHF iter   6:  -462.88383681346875   -2.03883e-05   6.59526e-06 DIIS
   @RHF iter   7:  -462.88383894407093   -2.13060e-06   1.85323e-06 DIIS
   @RHF iter   8:  -462.88383920044527   -2.56374e-07   6.79412e-07 DIIS
   @RHF iter   9:  -462.88383923912539   -3.86801e-08   2.84805e-07 DIIS
   @RHF iter  10:  -462.88383924669552   -7.57012e-09   1.12073e-07 DIIS
   @RHF iter  11:  -462.88383924899875   -2.30324e-09   5.13533e-08 DIIS
   @RHF iter  12:  -462.88383924945299   -4.54236e-10   2.22827e-08 DIIS
   @RHF iter  13:  -462.88383924952507   -7.20775e-11   7.90124e-09 DIIS
   @RHF iter  14:  -462.88383924952700   -1.93268e-12   1.85356e-09 DIIS
   @RHF iter  15:  -462.88383924953325   -6.25278e-12   7.02956e-10 DIIS
   @RHF iter  16:  -462.88383924952927    3.97904e-12   2.49629e-10 DIIS
   @RHF iter  17:  -462.88383924953155   -2.27374e-12   1.17227e-10 DIIS
   @RHF iter  18:  -462.88383924953291   -1.36424e-12   6.05919e-11 DIIS
  Energy and wave function converged.

  ==> Post-Iterations <==

    Orbital Energies [Eh]
    ---------------------

    Doubly Occupied:

       1A    -20.581918     2A    -11.293612     3A    -11.237203
       4A    -11.231989     5A    -11.230491     6A    -11.227949
       7A    -11.227739     8A    -11.225909     9A    -11.214847
      10A    -11.210916    11A    -11.209524    12A     -1.409614
      13A     -1.153435    14A     -1.049616    15A     -1.034204
      16A     -1.024777    17A     -0.922945    18A     -0.922507
      19A     -0.844541    20A     -0.805124    21A     -0.787865
      22A     -0.734661    23A     -0.670522    24A     -0.642461
      25A     -0.621208    26A     -0.615811    27A     -0.592851
      28A     -0.591056    29A     -0.585616    30A     -0.573764
      31A     -0.563091    32A     -0.546364    33A     -0.531407
      34A     -0.522304    35A     -0.495703    36A     -0.480944
      37A     -0.474217    38A     -0.466303    39A     -0.461457
      40A     -0.455109    41A     -0.343226    42A     -0.295898

    Virtual:

      43A      0.131399    44A      0.151696    45A      0.169010
      46A      0.175560    47A      0.200121    48A      0.210422
      49A      0.214428    50A      0.239094    51A      0.246923
      52A      0.249864    53A      0.257146    54A      0.263645
      55A      0.274496    56A      0.285591    57A      0.293021
      58A      0.298707    59A      0.307594    60A      0.314420
      61A      0.368054    62A      0.372770    63A      0.376016
      64A      0.433367    65A      0.435489    66A      0.458776
      67A      0.489107    68A      0.497974    69A      0.517382
      70A      0.569231    71A      0.592728    72A      0.606626
      73A      0.609177    74A      0.622328    75A      0.630862
      76A      0.644635    77A      0.662549    78A      0.671155
      79A      0.691341    80A      0.703805    81A      0.722418
      82A      0.733364    83A      0.741696    84A      0.761534
      85A      0.775143    86A      0.783758    87A      0.787509
      88A      0.801066    89A      0.808144    90A      0.813540
      91A      0.836620    92A      0.850447    93A      0.858287
      94A      0.870121    95A      0.878966    96A      0.888139
      97A      0.896659    98A      0.898461    99A      0.900667
     100A      0.904737   101A      0.906520   102A      0.912371
     103A      0.915316   104A      0.930574   105A      0.937777
     106A      0.942350   107A      0.947802   108A      0.951447
     109A      0.965926   110A      0.993251   111A      1.016748
     112A      1.025319   113A      1.047544   114A      1.056063
     115A      1.126093   116A      1.127947   117A      1.132301
     118A      1.148277   119A      1.161878   120A      1.167382
     121A      1.210449   122A      1.221188   123A      1.229547
     124A      1.248686   125A      1.271248   126A      1.277077
     127A      1.286340   128A      1.312439   129A      1.334066
     130A      1.349320   131A      1.373735   132A      1.393873
     133A      1.409080   134A      1.480573   135A      1.481877
     136A      1.487965   137A      1.507427   138A      1.525576
     139A      1.541267   140A      1.581366   141A      1.621069
     142A      1.628697   143A      1.636488   144A      1.671914
     145A      1.680318   146A      1.684637   147A      1.695703
     148A      1.703744   149A      1.736892   150A      1.750164
     151A      1.772702   152A      1.786457   153A      1.815187
     154A      1.864080   155A      1.870350   156A      1.875527
     157A      1.880673   158A      1.885855   159A      1.903277
     160A      1.907812   161A      1.910292   162A      1.926010
     163A      1.928607   164A      1.941406   165A      1.950516
     166A      1.958888   167A      1.962127   168A      1.973823
     169A      1.984594   170A      1.993575   171A      1.996848
     172A      2.003595   173A      2.012520   174A      2.024263
     175A      2.039636   176A      2.055030   177A      2.056654
     178A      2.076610   179A      2.098854   180A      2.102461
     181A      2.137122   182A      2.144122   183A      2.153973
     184A      2.168110   185A      2.171366   186A      2.209318
     187A      2.225581   188A      2.255290   189A      2.284925
     190A      2.287484   191A      2.291221   192A      2.306823
     193A      2.337431   194A      2.346001   195A      2.354505
     196A      2.370014   197A      2.416009   198A      2.427405
     199A      2.488498   200A      2.492548   201A      2.505613
     202A      2.525120   203A      2.538991   204A      2.568414
     205A      2.583311   206A      2.607180   207A      2.620233
     208A      2.632850   209A      2.647899   210A      2.756141
     211A      2.758770   212A      2.767729   213A      2.776664
     214A      2.785099   215A      2.792983   216A      2.820891
     217A      2.825439   218A      2.843772   219A      2.911866
     220A      2.927024   221A      2.960762   222A      2.981825
     223A      2.985225   224A      2.996503   225A      3.077752
     226A      3.105638   227A      3.117953   228A      3.270982
     229A      3.291876   230A      3.379611   231A      3.604886
     232A      3.698203   233A      4.004120   234A      4.145181

    Final Occupation by Irrep:
              A
    DOCC [    42 ]

  @RHF Final Energy:  -462.88383924953291

   => Energetics <=

    Nuclear Repulsion Energy =            593.2769518818904544
    One-Electron Energy =               -1804.1001825028502026
    Two-Electron Energy =                 747.9393913714268365
    Total Energy =                       -462.8838392495329117

Computation Completed

Properties will be evaluated at   0.000000,   0.000000,   0.000000 [a0]

Properties computed using the SCF density matrix

  Nuclear Dipole Moment: [e a0]
     X:   -12.8817      Y:     8.5369      Z:    -4.3276

  Electronic Dipole Moment: [e a0]
     X:    12.8709      Y:    -8.0774      Z:     4.1647

  Dipole Moment: [e a0]
     X:    -0.0108      Y:     0.4595      Z:    -0.1630     Total:     0.4876

  Dipole Moment: [D]
     X:    -0.0274      Y:     1.1679      Z:    -0.4142     Total:     1.2395

*** tstop() called on ds3 at Tue Apr 28 09:51:55 2020
Module time:
	user time   =     158.94 seconds =       2.65 minutes
	system time =      63.90 seconds =       1.06 minutes
	total time  =        234 seconds =       3.90 minutes
Total time:
	user time   =     158.94 seconds =       2.65 minutes
	system time =      63.90 seconds =       1.06 minutes
	total time  =        234 seconds =       3.90 minutes
                                     G D M A

                                 by Anthony Stone

                           version 2.2.06, 22 June 2011

               Distributed Multipoles from Gaussian wavefunctions

Starting at 9:51:55 on 28 Apr 2020

Using SCF density matrix from file ./SSI/SSI-053TYR-094LYS-1-dimer.test.29497.fchk

                         Distributed Multipole Analysis

Standard DMA

Positions and radii in angstrom
Multipole moments in atomic units, ea_0^k for rank k

C          x = -0.296780  y =  0.992004  z =  3.033235 angstrom
           Maximum rank =  0   Radius =  0.650 angstrom
                   Q00  =  -0.186601

C          x =  1.653220  y =  0.270004  z = -0.159765 angstrom
           Maximum rank =  0   Radius =  0.650 angstrom
                   Q00  =  -0.180517

C          x =  1.055220  y =  0.944004  z =  0.894235 angstrom
           Maximum rank =  0   Radius =  0.650 angstrom
                   Q00  =  -0.017527

C          x =  1.510220  y = -1.092996  z = -0.219765 angstrom
           Maximum rank =  0   Radius =  0.650 angstrom
                   Q00  =   0.339884

C          x =  0.278220  y =  0.257004  z =  1.841235 angstrom
           Maximum rank =  0   Radius =  0.650 angstrom
                   Q00  =  -0.149170

C          x =  0.716220  y = -1.789996  z =  0.701235 angstrom
           Maximum rank =  0   Radius =  0.650 angstrom
                   Q00  =  -0.104419

C          x =  0.104220  y = -1.115996  z =  1.708235 angstrom
           Maximum rank =  0   Radius =  0.650 angstrom
                   Q00  =  -0.063514

O          x =  2.098220  y = -1.743996  z = -1.217765 angstrom
           Maximum rank =  0   Radius =  0.650 angstrom
                   Q00  =  -0.619012

H          x =  2.241220  y =  0.804004  z = -0.891765 angstrom
           Maximum rank =  0   Radius =  0.325 angstrom
                   Q00  =   0.069588

H          x =  1.198220  y =  2.012004  z =  0.992235 angstrom
           Maximum rank =  0   Radius =  0.325 angstrom
                   Q00  =   0.065293

H          x =  2.242220  y = -1.157996  z = -1.997765 angstrom
           Maximum rank =  0   Radius =  0.325 angstrom
                   Q00  =   0.413207

H          x =  0.555220  y = -2.849996  z =  0.570235 angstrom
           Maximum rank =  0   Radius =  0.325 angstrom
                   Q00  =   0.078760

H          x = -1.120780  y =  0.432004  z =  3.479235 angstrom
           Maximum rank =  0   Radius =  0.325 angstrom
                   Q00  =   0.096099

H          x = -0.658780  y =  1.971004  z =  2.714235 angstrom
           Maximum rank =  0   Radius =  0.325 angstrom
                   Q00  =   0.093943

H          x = -0.664780  y = -1.603996  z =  2.263235 angstrom
           Maximum rank =  0   Radius =  0.325 angstrom
                   Q00  =   0.069252

H          x =  0.522370  y =  1.112694  z =  3.757405 angstrom
           Maximum rank =  0   Radius =  0.325 angstrom
                   Q00  =   0.098249

C          x = -1.765780  y =  0.785004  z = -1.773765 angstrom
           Maximum rank =  0   Radius =  0.650 angstrom
                   Q00  =  -0.061335

C          x = -2.098780  y =  1.057004  z = -3.240765 angstrom
           Maximum rank =  0   Radius =  0.650 angstrom
                   Q00  =  -0.256174

C          x = -2.797780  y =  1.253004  z = -0.773765 angstrom
           Maximum rank =  0   Radius =  0.650 angstrom
                   Q00  =  -0.235663

H          x = -1.659780  y = -0.294996  z = -1.648765 angstrom
           Maximum rank =  0   Radius =  0.325 angstrom
                   Q00  =   0.041189

H          x = -0.796780  y =  1.225004  z = -1.528765 angstrom
           Maximum rank =  0   Radius =  0.325 angstrom
                   Q00  =   0.049921

H          x = -2.105780  y =  2.138004  z = -3.407765 angstrom
           Maximum rank =  0   Radius =  0.325 angstrom
                   Q00  =   0.072161

H          x = -3.799780  y =  0.929004  z = -1.052765 angstrom
           Maximum rank =  0   Radius =  0.325 angstrom
                   Q00  =   0.074613

H          x = -2.551780  y =  0.799004  z =  0.187235 angstrom
           Maximum rank =  0   Radius =  0.325 angstrom
                   Q00  =   0.085918

H          x = -3.078930  y =  0.633054  z = -3.504505 angstrom
           Maximum rank =  0   Radius =  0.325 angstrom
                   Q00  =   0.078033

H          x = -1.316030  y =  0.619654  z = -3.877965 angstrom
           Maximum rank =  0   Radius =  0.325 angstrom
                   Q00  =   0.077353

H          x = -2.757730  y =  2.346764  z = -0.663805 angstrom
           Maximum rank =  0   Radius =  0.325 angstrom
                   Q00  =   0.070471

Total multipoles referred to origin at
           x =   0.000000,  y =    0.000000,  z =    0.000000 angstrom
                   Q00  =  -0.000000

Finished at 9:51:55 on 28 Apr 2020

  DMA results are available in the Python driver through the
	  variable('DMA DISTRIBUTED MULTIPOLES')
  and
	  variable('DMA TOTAL MULTIPOLES')
  commands.

    Psi4 stopped on: Tuesday, 28 April 2020 09:51AM
    Psi4 wall time for execution: 0:03:54.42

*** Psi4 exiting successfully. Buy a developer a beer!
