                               Psi4 1.3.2 release

  ==> Input File <==

--------------------------------------------------------------------------
import numpy as np
set {scf_type pk
basis cc-pvdz
d_convergence 10
gdma_switch   0
gdma_limit    0
gdma_origin   [ 0.0,  0.0,  0.0 ]
}
molecule test {
    units Angstrom
    0 1
    --
    0 1
    C               -0.915552365428954    -0.109075300650585    -3.213259688566522
    C               -2.975552365428954     0.570924699349414    -1.990259688566522
    C               -1.709552365428954     0.910924699349415    -2.458259688566522
    C               -3.722552365428954     1.436924699349414    -1.241259688566522
    C               -3.249552365428954     2.672924699349414    -0.973259688566522
    C               -1.205552365428954     2.159924699349415    -2.159259688566522
    C               -1.996552365428954     3.054924699349415    -1.410259688566522
    H               -3.370552365428954    -0.409075300650585    -2.212259688566522
    H               -4.684552365428953     1.127924699349415    -0.857259688566522
    H               -1.118552365428954    -1.094075300650585    -2.787259688566522
    H                0.145447634571046     0.093924699349415    -3.066259688566523
    H               -3.851552365428954     3.360924699349415    -0.397259688566522
    H               -0.215552365428954     2.448924699349415    -2.486259688566522
    H               -1.613552365428954     4.034924699349415    -1.157259688566522
    H               -1.145632365428954    -0.133595300650585    -4.288648688566522
    C               -0.711552365428954    -0.644075300650585     0.836740311433478
    C               -1.579552365428954    -1.810075300650585     1.313740311433478
    C                0.734447634571046    -0.831075300650585     1.171740311433478
    C                1.463447634571046    -1.860075300650585     0.604740311433478
    C                1.377447634571046     0.005924699349415     2.075740311433478
    C                2.800447634571047    -2.066075300650585     0.919740311433478
    C                2.727447634571047    -0.164075300650585     2.387740311433478
    C                3.433447634571046    -1.220075300650585     1.804740311433478
    O                4.749447634571047    -1.395075300650585     2.047740311433478
    H               -0.799552365428954    -0.562075300650585    -0.246259688566522
    H               -1.068552365428954     0.286924699349415     1.268740311433478
    H               -1.196552365428954    -2.702075300650586     0.824740311433478
    H                0.983447634571046    -2.517075300650585    -0.108259688566522
    H                0.830447634571046     0.816924699349415     2.537740311433478
    H                3.338447634571046    -2.882075300650586     0.465740311433478
    H                3.229447634571046     0.504924699349415     3.067740311433478
    H                5.140447634571045    -1.761075300650585     1.251740311433478
    H               -2.633151365428954    -1.654375300650585     1.038630311433478
    H               -1.510856365428954    -1.917095300650586     2.406360311433478

}
e, wfn = energy('scf', return_wfn=True)
gdma(wfn)
dmavals = variable('DMA DISTRIBUTED MULTIPOLES')
charges = np.array(dmavals)
print(charges)
np.save('SSI-046PHE-161TYR-1-dimer.npy', np.array(charges))--------------------------------------------------------------------------

*** tstart() called on ds3
*** at Mon Apr 27 07:03:28 2020

   => Loading Basis Set <=

    Name: CC-PVDZ
    Role: ORBITAL
    Keyword: BASIS
    atoms 1-7, 16-23  entry C          line   138 file /theoryfs2/ds/metcalf/miniconda2/envs/tf2gpu/share/psi4/basis/cc-pvdz.gbs
    atoms 8-15, 25-34 entry H          line    22 file /theoryfs2/ds/metcalf/miniconda2/envs/tf2gpu/share/psi4/basis/cc-pvdz.gbs
    atoms 24          entry O          line   198 file /theoryfs2/ds/metcalf/miniconda2/envs/tf2gpu/share/psi4/basis/cc-pvdz.gbs

         ---------------------------------------------------------
                                   SCF
               by Justin Turney, Rob Parrish, Andy Simmonett
                          and Daniel G. A. Smith
                              RHF Reference
                        1 Threads,    500 MiB Core
         ---------------------------------------------------------

  ==> Geometry <==

    Molecular point group: c1
    Full point group: C1

    Geometry (in Angstrom), charge = 0, multiplicity = 1:

       Center              X                  Y                   Z               Mass
    ------------   -----------------  -----------------  -----------------  -----------------
         C           -0.915552365429    -0.109075300651    -3.213259688567    12.000000000000
         C           -2.975552365429     0.570924699349    -1.990259688567    12.000000000000
         C           -1.709552365429     0.910924699349    -2.458259688567    12.000000000000
         C           -3.722552365429     1.436924699349    -1.241259688567    12.000000000000
         C           -3.249552365429     2.672924699349    -0.973259688567    12.000000000000
         C           -1.205552365429     2.159924699349    -2.159259688567    12.000000000000
         C           -1.996552365429     3.054924699349    -1.410259688567    12.000000000000
         H           -3.370552365429    -0.409075300651    -2.212259688567     1.007825032230
         H           -4.684552365429     1.127924699349    -0.857259688567     1.007825032230
         H           -1.118552365429    -1.094075300651    -2.787259688567     1.007825032230
         H            0.145447634571     0.093924699349    -3.066259688567     1.007825032230
         H           -3.851552365429     3.360924699349    -0.397259688567     1.007825032230
         H           -0.215552365429     2.448924699349    -2.486259688567     1.007825032230
         H           -1.613552365429     4.034924699349    -1.157259688567     1.007825032230
         H           -1.145632365429    -0.133595300651    -4.288648688567     1.007825032230
         C           -0.711552365429    -0.644075300651     0.836740311433    12.000000000000
         C           -1.579552365429    -1.810075300651     1.313740311433    12.000000000000
         C            0.734447634571    -0.831075300651     1.171740311433    12.000000000000
         C            1.463447634571    -1.860075300651     0.604740311433    12.000000000000
         C            1.377447634571     0.005924699349     2.075740311433    12.000000000000
         C            2.800447634571    -2.066075300651     0.919740311433    12.000000000000
         C            2.727447634571    -0.164075300651     2.387740311433    12.000000000000
         C            3.433447634571    -1.220075300651     1.804740311433    12.000000000000
         O            4.749447634571    -1.395075300651     2.047740311433    15.994914619570
         H           -0.799552365429    -0.562075300651    -0.246259688567     1.007825032230
         H           -1.068552365429     0.286924699349     1.268740311433     1.007825032230
         H           -1.196552365429    -2.702075300651     0.824740311433     1.007825032230
         H            0.983447634571    -2.517075300651    -0.108259688567     1.007825032230
         H            0.830447634571     0.816924699349     2.537740311433     1.007825032230
         H            3.338447634571    -2.882075300651     0.465740311433     1.007825032230
         H            3.229447634571     0.504924699349     3.067740311433     1.007825032230
         H            5.140447634571    -1.761075300651     1.251740311433     1.007825032230
         H           -2.633151365429    -1.654375300651     1.038630311433     1.007825032230
         H           -1.510856365429    -1.917095300651     2.406360311433     1.007825032230

  Running in c1 symmetry.

  Rotational constants: A =      0.03172  B =      0.00703  C =      0.00696 [cm^-1]
  Rotational constants: A =    950.79536  B =    210.64473  C =    208.78295 [MHz]
  Nuclear repulsion =  989.118982061336396

  Charge       = 0
  Multiplicity = 1
  Electrons    = 116
  Nalpha       = 58
  Nbeta        = 58

  ==> Algorithm <==

  SCF Algorithm Type is PK.
  DIIS enabled.
  MOM disabled.
  Fractional occupation disabled.
  Guess Type is SAD.
  Energy threshold   = 1.00e-06
  Density threshold  = 1.00e-10
  Integral threshold = 0.00e+00

  ==> Primary Basis <==

  Basis Set: CC-PVDZ
    Blend: CC-PVDZ
    Number of shells: 150
    Number of basis function: 314
    Number of Cartesian functions: 330
    Spherical Harmonics?: true
    Max angular momentum: 2

  ==> Pre-Iterations <==

   -------------------------------------------------------
    Irrep   Nso     Nmo     Nalpha   Nbeta   Ndocc  Nsocc
   -------------------------------------------------------
     A        314     314       0       0       0       0
   -------------------------------------------------------
    Total     314     314      58      58      58       0
   -------------------------------------------------------

  ==> Integral Setup <==

  Using integral reordering PK algorithm.
  Sizing the integral batches needed.
  Building batch lookup table.
   Calculation information:
      Number of atoms:                  34
      Number of AO shells:             150
      Number of primitives:            442
      Number of atomic orbitals:       330
      Number of basis functions:       314

      Integral cutoff                 1.00e-12
      Number of threads:                 1

	Batch   1 pq = [       0,    9405] index = [             0,44231715] size =     44231715
	Batch   2 pq = [    9405,   13301] index = [      44231715,88464951] size =     44233236
	Batch   3 pq = [   13301,   16290] index = [      88464951,132690195] size =     44225244
	Batch   4 pq = [   16290,   18810] index = [     132690195,176917455] size =     44227260
	Batch   5 pq = [   18810,   21030] index = [     176917455,221140965] size =     44223510
	Batch   6 pq = [   21030,   23037] index = [     221140965,265363203] size =     44222238
	Batch   7 pq = [   23037,   24883] index = [     265363203,309594286] size =     44231083
	Batch   8 pq = [   24883,   26601] index = [     309594286,353819901] size =     44225615
	Batch   9 pq = [   26601,   28214] index = [     353819901,398029005] size =     44209104
	Batch  10 pq = [   28214,   29740] index = [     398029005,442248670] size =     44219665
	Batch  11 pq = [   29740,   31191] index = [     442248670,486454836] size =     44206166
	Batch  12 pq = [   31191,   32578] index = [     486454836,530679331] size =     44224495
	Batch  13 pq = [   32578,   33908] index = [     530679331,574893186] size =     44213855
	Batch  14 pq = [   33908,   35188] index = [     574893186,619115266] size =     44222080
	Batch  15 pq = [   35188,   36423] index = [     619115266,663335676] size =     44220410
	Batch  16 pq = [   36423,   37617] index = [     663335676,707538153] size =     44202477
	Batch  17 pq = [   37617,   38775] index = [     707538153,751769700] size =     44231547
	Batch  18 pq = [   38775,   39899] index = [     751769700,795985050] size =     44215350
	Batch  19 pq = [   39899,   40992] index = [     795985050,840192528] size =     44207478
	Batch  20 pq = [   40992,   42057] index = [     840192528,884416653] size =     44224125
	Batch  21 pq = [   42057,   43095] index = [     884416653,928611060] size =     44194407
	Batch  22 pq = [   43095,   44109] index = [     928611060,972823995] size =     44212935
	Batch  23 pq = [   44109,   45100] index = [     972823995,1017027550] size =     44203555
	Batch  24 pq = [   45100,   46070] index = [    1017027550,1061245485] size =     44217935
	Batch  25 pq = [   46070,   47020] index = [    1061245485,1105463710] size =     44218225
	Batch  26 pq = [   47020,   47951] index = [    1105463710,1149673176] size =     44209466
	Batch  27 pq = [   47951,   48864] index = [    1149673176,1193869680] size =     44196504
	Batch  28 pq = [   48864,   49455] index = [    1193869680,1222923240] size =     29053560
  Task number: 111
  Buffer size: 11059200
  Buffer per thread: 2
  We computed 64470167 shell quartets total.
  Whereas there are 64133475 unique shell quartets.
     0.52 percent of shell quartets recomputed by reordering.

  ==> DiskJK: Disk-Based J/K Matrices <==

    J tasked:                  Yes
    K tasked:                  Yes
    wK tasked:                  No
    Memory [MiB]:              375
    Schwarz Cutoff:          1E-12

    OpenMP threads:              1

  Minimum eigenvalue in the overlap matrix is 2.8697251036E-04.
  Using Symmetric Orthogonalization.

  SCF Guess: Superposition of Atomic Densities via on-the-fly atomic UHF.

  ==> Iterations <==

                        Total Energy        Delta E     RMS |[F,P]|

   @RHF iter SAD:  -652.49744833098543   -6.52497e+02   0.00000e+00
   @RHF iter   1:  -653.05681774201457   -5.59369e-01   2.31720e-03 DIIS
   @RHF iter   2:  -653.36146701522637   -3.04649e-01   9.81148e-04 DIIS
   @RHF iter   3:  -653.40991998029801   -4.84530e-02   2.32579e-04 DIIS
   @RHF iter   4:  -653.41398673031767   -4.06675e-03   9.50244e-05 DIIS
   @RHF iter   5:  -653.41450370687801   -5.16977e-04   1.64446e-05 DIIS
   @RHF iter   6:  -653.41452667298313   -2.29661e-05   5.14964e-06 DIIS
   @RHF iter   7:  -653.41452888111303   -2.20813e-06   1.49320e-06 DIIS
   @RHF iter   8:  -653.41452914392312   -2.62810e-07   5.56667e-07 DIIS
   @RHF iter   9:  -653.41452918497112   -4.10480e-08   2.20250e-07 DIIS
   @RHF iter  10:  -653.41452919268659   -7.71547e-09   8.43919e-08 DIIS
   @RHF iter  11:  -653.41452919478888   -2.10230e-09   3.87400e-08 DIIS
   @RHF iter  12:  -653.41452919522851   -4.39627e-10   1.82298e-08 DIIS
   @RHF iter  13:  -653.41452919531037   -8.18545e-11   5.97253e-09 DIIS
   @RHF iter  14:  -653.41452919532776   -1.73941e-11   1.85690e-09 DIIS
   @RHF iter  15:  -653.41452919532458    3.18323e-12   5.98725e-10 DIIS
   @RHF iter  16:  -653.41452919532094    3.63798e-12   2.83032e-10 DIIS
   @RHF iter  17:  -653.41452919532730   -6.36646e-12   1.37076e-10 DIIS
   @RHF iter  18:  -653.41452919531912    8.18545e-12   6.16434e-11 DIIS
  Energy and wave function converged.

  ==> Post-Iterations <==

    Orbital Energies [Eh]
    ---------------------

    Doubly Occupied:

       1A    -20.579110     2A    -11.291629     3A    -11.238785
       4A    -11.236955     5A    -11.233570     6A    -11.233138
       7A    -11.232845     8A    -11.230800     9A    -11.229027
      10A    -11.227557    11A    -11.227413    12A    -11.226789
      13A    -11.226101    14A    -11.224375    15A    -11.218601
      16A    -11.217634    17A     -1.405357    18A     -1.162642
      19A     -1.151762    20A     -1.056381    21A     -1.053163
      22A     -1.014957    23A     -1.014631    24A     -0.972327
      25A     -0.935505    26A     -0.856040    27A     -0.842942
      28A     -0.830719    29A     -0.796674    30A     -0.787274
      31A     -0.728942    32A     -0.696257    33A     -0.673398
      34A     -0.642281    35A     -0.637587    36A     -0.629525
      37A     -0.616088    38A     -0.596589    39A     -0.595937
      40A     -0.584837    41A     -0.580780    42A     -0.578615
      43A     -0.565324    44A     -0.558896    45A     -0.539091
      46A     -0.537377    47A     -0.515112    48A     -0.494834
      49A     -0.491250    50A     -0.487329    51A     -0.481885
      52A     -0.475911    53A     -0.469099    54A     -0.459804
      55A     -0.336046    56A     -0.335299    57A     -0.326243
      58A     -0.301001

    Virtual:

      59A      0.131662    60A      0.133593    61A      0.143188
      62A      0.155754    63A      0.171677    64A      0.185311
      65A      0.191391    66A      0.203320    67A      0.207897
      68A      0.221064    69A      0.229836    70A      0.238399
      71A      0.250068    72A      0.255629    73A      0.257121
      74A      0.264345    75A      0.273965    76A      0.287048
      77A      0.288668    78A      0.306014    79A      0.313994
      80A      0.326047    81A      0.358724    82A      0.372147
      83A      0.378727    84A      0.388719    85A      0.418916
      86A      0.430562    87A      0.455772    88A      0.466030
      89A      0.473503    90A      0.485865    91A      0.491363
      92A      0.496597    93A      0.505431    94A      0.524638
      95A      0.563615    96A      0.591924    97A      0.598222
      98A      0.608888    99A      0.632499   100A      0.648210
     101A      0.658421   102A      0.669621   103A      0.678808
     104A      0.689367   105A      0.694874   106A      0.697429
     107A      0.708134   108A      0.711311   109A      0.719041
     110A      0.730791   111A      0.733810   112A      0.738588
     113A      0.739844   114A      0.744578   115A      0.750079
     116A      0.753311   117A      0.763743   118A      0.764091
     119A      0.771624   120A      0.780199   121A      0.796845
     122A      0.809026   123A      0.817506   124A      0.822723
     125A      0.835824   126A      0.853036   127A      0.856690
     128A      0.862651   129A      0.869095   130A      0.869565
     131A      0.874818   132A      0.889204   133A      0.890230
     134A      0.894579   135A      0.899394   136A      0.902115
     137A      0.904911   138A      0.911619   139A      0.925083
     140A      0.930382   141A      0.933671   142A      0.939632
     143A      0.953405   144A      0.964193   145A      0.968977
     146A      0.973806   147A      0.987739   148A      0.994592
     149A      1.004747   150A      1.020759   151A      1.029909
     152A      1.042257   153A      1.085471   154A      1.119478
     155A      1.129592   156A      1.138311   157A      1.143125
     158A      1.149839   159A      1.152330   160A      1.157126
     161A      1.170001   162A      1.182351   163A      1.201945
     164A      1.207795   165A      1.232198   166A      1.243020
     167A      1.249799   168A      1.258539   169A      1.262627
     170A      1.271277   171A      1.273692   172A      1.285943
     173A      1.303001   174A      1.307055   175A      1.314613
     176A      1.316780   177A      1.324523   178A      1.330715
     179A      1.336898   180A      1.341769   181A      1.379824
     182A      1.397574   183A      1.416759   184A      1.427484
     185A      1.449124   186A      1.471855   187A      1.506221
     188A      1.513493   189A      1.520037   190A      1.548488
     191A      1.555650   192A      1.592543   193A      1.608006
     194A      1.631474   195A      1.636929   196A      1.676056
     197A      1.689213   198A      1.698761   199A      1.704324
     200A      1.725311   201A      1.731705   202A      1.747461
     203A      1.754655   204A      1.769947   205A      1.783197
     206A      1.793091   207A      1.796613   208A      1.817392
     209A      1.841174   210A      1.855150   211A      1.867974
     212A      1.879213   213A      1.895739   214A      1.896079
     215A      1.900131   216A      1.905342   217A      1.910325
     218A      1.918544   219A      1.919922   220A      1.924011
     221A      1.933866   222A      1.936467   223A      1.942591
     224A      1.951460   225A      1.958000   226A      1.961631
     227A      1.969960   228A      1.975116   229A      1.986573
     230A      1.992011   231A      1.998698   232A      2.001888
     233A      2.023911   234A      2.034196   235A      2.037990
     236A      2.047613   237A      2.055771   238A      2.060716
     239A      2.073739   240A      2.075495   241A      2.089505
     242A      2.100543   243A      2.115413   244A      2.121550
     245A      2.128923   246A      2.154644   247A      2.161324
     248A      2.163709   249A      2.180188   250A      2.190105
     251A      2.192290   252A      2.204552   253A      2.209789
     254A      2.245424   255A      2.263364   256A      2.266608
     257A      2.278382   258A      2.279722   259A      2.302375
     260A      2.303300   261A      2.314121   262A      2.317023
     263A      2.323032   264A      2.328442   265A      2.334972
     266A      2.355175   267A      2.433238   268A      2.464159
     269A      2.474647   270A      2.479106   271A      2.479761
     272A      2.494984   273A      2.505688   274A      2.537226
     275A      2.553941   276A      2.559834   277A      2.575500
     278A      2.596734   279A      2.629494   280A      2.632796
     281A      2.655081   282A      2.743708   283A      2.756918
     284A      2.769867   285A      2.777643   286A      2.782697
     287A      2.800857   288A      2.807766   289A      2.816251
     290A      2.822529   291A      2.860283   292A      2.868162
     293A      2.875268   294A      2.893902   295A      2.938361
     296A      2.969479   297A      3.003908   298A      3.009555
     299A      3.030574   300A      3.041431   301A      3.050303
     302A      3.108510   303A      3.175981   304A      3.195109
     305A      3.224478   306A      3.298009   307A      3.310974
     308A      3.321080   309A      3.378540   310A      3.594057
     311A      3.697418   312A      3.985916   313A      4.013441
     314A      4.152652

    Final Occupation by Irrep:
              A
    DOCC [    58 ]

  @RHF Final Energy:  -653.41452919531912

   => Energetics <=

    Nuclear Repulsion Energy =            989.1189820613363963
    One-Electron Energy =               -2849.2869414798751677
    Two-Electron Energy =                1206.7534302232197660
    Total Energy =                       -653.4145291953191190

Computation Completed

Properties will be evaluated at   0.000000,   0.000000,   0.000000 [a0]

Properties computed using the SCF density matrix

  Nuclear Dipole Moment: [e a0]
     X:    -8.9215      Y:    -2.7790      Z:    -4.4390

  Electronic Dipole Moment: [e a0]
     X:     8.7783      Y:     2.6417      Z:     3.7735

  Dipole Moment: [e a0]
     X:    -0.1432      Y:    -0.1373      Z:    -0.6655     Total:     0.6944

  Dipole Moment: [D]
     X:    -0.3639      Y:    -0.3490      Z:    -1.6916     Total:     1.7651

*** tstop() called on ds3 at Mon Apr 27 07:23:57 2020
Module time:
	user time   =     554.44 seconds =       9.24 minutes
	system time =     199.08 seconds =       3.32 minutes
	total time  =       1229 seconds =      20.48 minutes
Total time:
	user time   =     554.44 seconds =       9.24 minutes
	system time =     199.08 seconds =       3.32 minutes
	total time  =       1229 seconds =      20.48 minutes
                                     G D M A

                                 by Anthony Stone

                           version 2.2.06, 22 June 2011

               Distributed Multipoles from Gaussian wavefunctions

Starting at 7:23:57 on 27 Apr 2020

Using SCF density matrix from file ./SSI/SSI-046PHE-161TYR-1-dimer.test.19581.fchk

                         Distributed Multipole Analysis

Standard DMA

Positions and radii in angstrom
Multipole moments in atomic units, ea_0^k for rank k

C          x = -0.915552  y = -0.109075  z = -3.213260 angstrom
           Maximum rank =  0   Radius =  0.650 angstrom
                   Q00  =  -0.206836

C          x = -2.975552  y =  0.570925  z = -1.990260 angstrom
           Maximum rank =  0   Radius =  0.650 angstrom
                   Q00  =   0.004224

C          x = -1.709552  y =  0.910925  z = -2.458260 angstrom
           Maximum rank =  0   Radius =  0.650 angstrom
                   Q00  =  -0.104100

C          x = -3.722552  y =  1.436925  z = -1.241260 angstrom
           Maximum rank =  0   Radius =  0.650 angstrom
                   Q00  =  -0.063689

C          x = -3.249552  y =  2.672925  z = -0.973260 angstrom
           Maximum rank =  0   Radius =  0.650 angstrom
                   Q00  =  -0.050116

C          x = -1.205552  y =  2.159925  z = -2.159260 angstrom
           Maximum rank =  0   Radius =  0.650 angstrom
                   Q00  =  -0.079656

C          x = -1.996552  y =  3.054925  z = -1.410260 angstrom
           Maximum rank =  0   Radius =  0.650 angstrom
                   Q00  =  -0.084462

H          x = -3.370552  y = -0.409075  z = -2.212260 angstrom
           Maximum rank =  0   Radius =  0.325 angstrom
                   Q00  =   0.049425

H          x = -4.684552  y =  1.127925  z = -0.857260 angstrom
           Maximum rank =  0   Radius =  0.325 angstrom
                   Q00  =   0.057791

H          x = -1.118552  y = -1.094075  z = -2.787260 angstrom
           Maximum rank =  0   Radius =  0.325 angstrom
                   Q00  =   0.091715

H          x =  0.145448  y =  0.093925  z = -3.066260 angstrom
           Maximum rank =  0   Radius =  0.325 angstrom
                   Q00  =   0.099390

H          x = -3.851552  y =  3.360925  z = -0.397260 angstrom
           Maximum rank =  0   Radius =  0.325 angstrom
                   Q00  =   0.054894

H          x = -0.215552  y =  2.448925  z = -2.486260 angstrom
           Maximum rank =  0   Radius =  0.325 angstrom
                   Q00  =   0.062174

H          x = -1.613552  y =  4.034925  z = -1.157260 angstrom
           Maximum rank =  0   Radius =  0.325 angstrom
                   Q00  =   0.065584

H          x = -1.145632  y = -0.133595  z = -4.288649 angstrom
           Maximum rank =  0   Radius =  0.325 angstrom
                   Q00  =   0.108570

C          x = -0.711552  y = -0.644075  z =  0.836740 angstrom
           Maximum rank =  0   Radius =  0.650 angstrom
                   Q00  =  -0.026626

C          x = -1.579552  y = -1.810075  z =  1.313740 angstrom
           Maximum rank =  0   Radius =  0.650 angstrom
                   Q00  =  -0.237818

C          x =  0.734448  y = -0.831075  z =  1.171740 angstrom
           Maximum rank =  0   Radius =  0.650 angstrom
                   Q00  =  -0.132594

C          x =  1.463448  y = -1.860075  z =  0.604740 angstrom
           Maximum rank =  0   Radius =  0.650 angstrom
                   Q00  =   0.014082

C          x =  1.377448  y =  0.005925  z =  2.075740 angstrom
           Maximum rank =  0   Radius =  0.650 angstrom
                   Q00  =  -0.014205

C          x =  2.800448  y = -2.066075  z =  0.919740 angstrom
           Maximum rank =  0   Radius =  0.650 angstrom
                   Q00  =  -0.166852

C          x =  2.727448  y = -0.164075  z =  2.387740 angstrom
           Maximum rank =  0   Radius =  0.650 angstrom
                   Q00  =  -0.125553

C          x =  3.433448  y = -1.220075  z =  1.804740 angstrom
           Maximum rank =  0   Radius =  0.650 angstrom
                   Q00  =   0.255175

O          x =  4.749448  y = -1.395075  z =  2.047740 angstrom
           Maximum rank =  0   Radius =  0.650 angstrom
                   Q00  =  -0.617504

H          x = -0.799552  y = -0.562075  z = -0.246260 angstrom
           Maximum rank =  0   Radius =  0.325 angstrom
                   Q00  =   0.066104

H          x = -1.068552  y =  0.286925  z =  1.268740 angstrom
           Maximum rank =  0   Radius =  0.325 angstrom
                   Q00  =   0.068723

H          x = -1.196552  y = -2.702075  z =  0.824740 angstrom
           Maximum rank =  0   Radius =  0.325 angstrom
                   Q00  =   0.073759

H          x =  0.983448  y = -2.517075  z = -0.108260 angstrom
           Maximum rank =  0   Radius =  0.325 angstrom
                   Q00  =   0.062657

H          x =  0.830448  y =  0.816925  z =  2.537740 angstrom
           Maximum rank =  0   Radius =  0.325 angstrom
                   Q00  =   0.063513

H          x =  3.338448  y = -2.882075  z =  0.465740 angstrom
           Maximum rank =  0   Radius =  0.325 angstrom
                   Q00  =   0.067914

H          x =  3.229448  y =  0.504925  z =  3.067740 angstrom
           Maximum rank =  0   Radius =  0.325 angstrom
                   Q00  =   0.079549

H          x =  5.140448  y = -1.761075  z =  1.251740 angstrom
           Maximum rank =  0   Radius =  0.325 angstrom
                   Q00  =   0.400582

H          x = -2.633151  y = -1.654375  z =  1.038630 angstrom
           Maximum rank =  0   Radius =  0.325 angstrom
                   Q00  =   0.081286

H          x = -1.510856  y = -1.917095  z =  2.406360 angstrom
           Maximum rank =  0   Radius =  0.325 angstrom
                   Q00  =   0.082898

Total multipoles referred to origin at
           x =   0.000000,  y =    0.000000,  z =    0.000000 angstrom
                   Q00  =  -0.000000

Finished at 7:23:58 on 27 Apr 2020

  DMA results are available in the Python driver through the
	  variable('DMA DISTRIBUTED MULTIPOLES')
  and
	  variable('DMA TOTAL MULTIPOLES')
  commands.

    Psi4 stopped on: Monday, 27 April 2020 07:23AM
    Psi4 wall time for execution: 0:20:29.74

*** Psi4 exiting successfully. Buy a developer a beer!
