                               Psi4 1.3.2 release

  ==> Input File <==

--------------------------------------------------------------------------
import numpy as np
set {scf_type pk
basis cc-pvdz
d_convergence 10
gdma_switch   0
gdma_limit    0
gdma_origin   [ 0.0,  0.0,  0.0 ]
}
molecule test {
    units Angstrom
    0 1
    --
    0 1
    C               -3.391339374841269     2.573989491716956     2.620679999703630
    C               -2.108339374841269     0.437989491716956    -0.244320000296370
    C               -2.220339374841268     1.317989491716956    -1.307320000296370
    C               -2.488339374841269     0.842989491716956     1.033679999703630
    C               -3.007339374841269     2.112989491716955     1.242679999703630
    C               -2.725339374841269     2.590989491716956    -1.106320000296370
    C               -3.111339374841268     2.991989491716956     0.166679999703630
    H               -1.733339374841269    -0.561010508283044    -0.404320000296370
    H               -1.933339374841269     1.006989491716956    -2.298320000296371
    H               -2.392339374841269     0.154989491716956     1.861679999703630
    H               -2.816339374841268     3.273989491716955    -1.941320000296370
    H               -3.381339374841269     1.744989491716956     3.319679999703629
    H               -4.406339374841268     2.956989491716956     2.574679999703629
    H               -3.503339374841268     3.988989491716956     0.316679999703630
    H               -2.716106574841268     3.345579491716955     3.019059999703629
    C                5.123660625158732    -1.760010508283044     0.170679999703630
    C                1.505660625158731    -0.713010508283044    -0.424320000296370
    C                0.921660625158731    -1.917010508283044    -0.816320000296370
    C                2.869660625158732    -0.665010508283044    -0.112320000296370
    C                3.653660625158732    -1.819010508283044    -0.161320000296370
    C                1.699660625158731    -3.074010508283044    -0.874320000296370
    C                3.060660625158731    -3.025010508283045    -0.546320000296370
    H                0.908660625158731     0.187989491716956    -0.377320000296370
    H               -0.125339374841269    -1.959010508283044    -1.077320000296370
    H                3.314660625158731     0.276989491716956     0.176679999703630
    H                1.254660625158731    -4.018010508283044    -1.153320000296370
    H                5.301660625158731    -2.358010508283045     1.061679999703630
    H                5.404660625158732    -0.730010508283044     0.400679999703630
    H                3.641660625158731    -3.935010508283045    -0.578320000296370
    H                5.774584625158731    -2.136370508283044    -0.632220000296370

}
e, wfn = energy('scf', return_wfn=True)
gdma(wfn)
dmavals = variable('DMA DISTRIBUTED MULTIPOLES')
charges = np.array(dmavals)
print(charges)
np.save('SSI-056PHE-152PHE-1-dimer.npy', np.array(charges))--------------------------------------------------------------------------

*** tstart() called on ds3
*** at Tue Apr 28 11:13:34 2020

   => Loading Basis Set <=

    Name: CC-PVDZ
    Role: ORBITAL
    Keyword: BASIS
    atoms 1-7, 16-22  entry C          line   138 file /theoryfs2/ds/metcalf/miniconda2/envs/tf2gpu/share/psi4/basis/cc-pvdz.gbs
    atoms 8-15, 23-30 entry H          line    22 file /theoryfs2/ds/metcalf/miniconda2/envs/tf2gpu/share/psi4/basis/cc-pvdz.gbs

         ---------------------------------------------------------
                                   SCF
               by Justin Turney, Rob Parrish, Andy Simmonett
                          and Daniel G. A. Smith
                              RHF Reference
                        1 Threads,    500 MiB Core
         ---------------------------------------------------------

  ==> Geometry <==

    Molecular point group: c1
    Full point group: C1

    Geometry (in Angstrom), charge = 0, multiplicity = 1:

       Center              X                  Y                   Z               Mass
    ------------   -----------------  -----------------  -----------------  -----------------
         C           -3.391339374841     2.573989491717     2.620679999704    12.000000000000
         C           -2.108339374841     0.437989491717    -0.244320000296    12.000000000000
         C           -2.220339374841     1.317989491717    -1.307320000296    12.000000000000
         C           -2.488339374841     0.842989491717     1.033679999704    12.000000000000
         C           -3.007339374841     2.112989491717     1.242679999704    12.000000000000
         C           -2.725339374841     2.590989491717    -1.106320000296    12.000000000000
         C           -3.111339374841     2.991989491717     0.166679999704    12.000000000000
         H           -1.733339374841    -0.561010508283    -0.404320000296     1.007825032230
         H           -1.933339374841     1.006989491717    -2.298320000296     1.007825032230
         H           -2.392339374841     0.154989491717     1.861679999704     1.007825032230
         H           -2.816339374841     3.273989491717    -1.941320000296     1.007825032230
         H           -3.381339374841     1.744989491717     3.319679999704     1.007825032230
         H           -4.406339374841     2.956989491717     2.574679999704     1.007825032230
         H           -3.503339374841     3.988989491717     0.316679999704     1.007825032230
         H           -2.716106574841     3.345579491717     3.019059999704     1.007825032230
         C            5.123660625159    -1.760010508283     0.170679999704    12.000000000000
         C            1.505660625159    -0.713010508283    -0.424320000296    12.000000000000
         C            0.921660625159    -1.917010508283    -0.816320000296    12.000000000000
         C            2.869660625159    -0.665010508283    -0.112320000296    12.000000000000
         C            3.653660625159    -1.819010508283    -0.161320000296    12.000000000000
         C            1.699660625159    -3.074010508283    -0.874320000296    12.000000000000
         C            3.060660625159    -3.025010508283    -0.546320000296    12.000000000000
         H            0.908660625159     0.187989491717    -0.377320000296     1.007825032230
         H           -0.125339374841    -1.959010508283    -1.077320000296     1.007825032230
         H            3.314660625159     0.276989491717     0.176679999704     1.007825032230
         H            1.254660625159    -4.018010508283    -1.153320000296     1.007825032230
         H            5.301660625159    -2.358010508283     1.061679999704     1.007825032230
         H            5.404660625159    -0.730010508283     0.400679999704     1.007825032230
         H            3.641660625159    -3.935010508283    -0.578320000296     1.007825032230
         H            5.774584625159    -2.136370508283    -0.632220000296     1.007825032230

  Running in c1 symmetry.

  Rotational constants: A =      0.04962  B =      0.00702  C =      0.00680 [cm^-1]
  Rotational constants: A =   1487.47560  B =    210.36387  C =    203.72089 [MHz]
  Nuclear repulsion =  741.801617921354591

  Charge       = 0
  Multiplicity = 1
  Electrons    = 100
  Nalpha       = 50
  Nbeta        = 50

  ==> Algorithm <==

  SCF Algorithm Type is PK.
  DIIS enabled.
  MOM disabled.
  Fractional occupation disabled.
  Guess Type is SAD.
  Energy threshold   = 1.00e-06
  Density threshold  = 1.00e-10
  Integral threshold = 0.00e+00

  ==> Primary Basis <==

  Basis Set: CC-PVDZ
    Blend: CC-PVDZ
    Number of shells: 132
    Number of basis function: 276
    Number of Cartesian functions: 290
    Spherical Harmonics?: true
    Max angular momentum: 2

  ==> Pre-Iterations <==

   -------------------------------------------------------
    Irrep   Nso     Nmo     Nalpha   Nbeta   Ndocc  Nsocc
   -------------------------------------------------------
     A        276     276       0       0       0       0
   -------------------------------------------------------
    Total     276     276      50      50      50       0
   -------------------------------------------------------

  ==> Integral Setup <==

  Using integral reordering PK algorithm.
  Sizing the integral batches needed.
  Building batch lookup table.
   Calculation information:
      Number of atoms:                  30
      Number of AO shells:             132
      Number of primitives:            388
      Number of atomic orbitals:       290
      Number of basis functions:       276

      Integral cutoff                 1.00e-12
      Number of threads:                 1

	Batch   1 pq = [       0,    9405] index = [             0,44231715] size =     44231715
	Batch   2 pq = [    9405,   13301] index = [      44231715,88464951] size =     44233236
	Batch   3 pq = [   13301,   16290] index = [      88464951,132690195] size =     44225244
	Batch   4 pq = [   16290,   18810] index = [     132690195,176917455] size =     44227260
	Batch   5 pq = [   18810,   21030] index = [     176917455,221140965] size =     44223510
	Batch   6 pq = [   21030,   23037] index = [     221140965,265363203] size =     44222238
	Batch   7 pq = [   23037,   24883] index = [     265363203,309594286] size =     44231083
	Batch   8 pq = [   24883,   26601] index = [     309594286,353819901] size =     44225615
	Batch   9 pq = [   26601,   28214] index = [     353819901,398029005] size =     44209104
	Batch  10 pq = [   28214,   29740] index = [     398029005,442248670] size =     44219665
	Batch  11 pq = [   29740,   31191] index = [     442248670,486454836] size =     44206166
	Batch  12 pq = [   31191,   32578] index = [     486454836,530679331] size =     44224495
	Batch  13 pq = [   32578,   33908] index = [     530679331,574893186] size =     44213855
	Batch  14 pq = [   33908,   35188] index = [     574893186,619115266] size =     44222080
	Batch  15 pq = [   35188,   36423] index = [     619115266,663335676] size =     44220410
	Batch  16 pq = [   36423,   37617] index = [     663335676,707538153] size =     44202477
	Batch  17 pq = [   37617,   38226] index = [     707538153,730632651] size =     23094498
  Task number: 67
  Buffer size: 11059200
  Buffer per thread: 2
  We computed 29053411 shell quartets total.
  Whereas there are 38531031 unique shell quartets.

  ==> DiskJK: Disk-Based J/K Matrices <==

    J tasked:                  Yes
    K tasked:                  Yes
    wK tasked:                  No
    Memory [MiB]:              375
    Schwarz Cutoff:          1E-12

    OpenMP threads:              1

  Minimum eigenvalue in the overlap matrix is 2.9789206827E-04.
  Using Symmetric Orthogonalization.

  SCF Guess: Superposition of Atomic Densities via on-the-fly atomic UHF.

  ==> Iterations <==

                        Total Energy        Delta E     RMS |[F,P]|

   @RHF iter SAD:  -538.38467912898193   -5.38385e+02   0.00000e+00
   @RHF iter   1:  -539.22858719779686   -8.43908e-01   2.30252e-03 DIIS
   @RHF iter   2:  -539.48023493153323   -2.51648e-01   9.35790e-04 DIIS
   @RHF iter   3:  -539.51684375718060   -3.66088e-02   2.15782e-04 DIIS
   @RHF iter   4:  -539.51998227690819   -3.13852e-03   5.20085e-05 DIIS
   @RHF iter   5:  -539.52011339136698   -1.31114e-04   1.63647e-05 DIIS
   @RHF iter   6:  -539.52012603518494   -1.26438e-05   4.50494e-06 DIIS
   @RHF iter   7:  -539.52012725968348   -1.22450e-06   1.15134e-06 DIIS
   @RHF iter   8:  -539.52012738463611   -1.24953e-07   3.81336e-07 DIIS
   @RHF iter   9:  -539.52012741248097   -2.78449e-08   1.73959e-07 DIIS
   @RHF iter  10:  -539.52012741887017   -6.38920e-09   9.35247e-08 DIIS
   @RHF iter  11:  -539.52012742093575   -2.06558e-09   2.96932e-08 DIIS
   @RHF iter  12:  -539.52012742111935   -1.83604e-10   1.16671e-08 DIIS
   @RHF iter  13:  -539.52012742113584   -1.64846e-11   3.74835e-09 DIIS
   @RHF iter  14:  -539.52012742113686   -1.02318e-12   1.00748e-09 DIIS
   @RHF iter  15:  -539.52012742113925   -2.38742e-12   4.23086e-10 DIIS
   @RHF iter  16:  -539.52012742113766    1.59162e-12   2.30182e-10 DIIS
   @RHF iter  17:  -539.52012742113948   -1.81899e-12   1.05390e-10 DIIS
   @RHF iter  18:  -539.52012742114061   -1.13687e-12   4.17016e-11 DIIS
  Energy and wave function converged.

  ==> Post-Iterations <==

    Orbital Energies [Eh]
    ---------------------

    Doubly Occupied:

       1A    -11.240746     2A    -11.239878     3A    -11.235923
       4A    -11.235029     5A    -11.234844     6A    -11.233864
       7A    -11.230863     8A    -11.230459     9A    -11.230231
      10A    -11.230088    11A    -11.229663    12A    -11.229528
      13A    -11.228619    14A    -11.227861    15A     -1.155737
      16A     -1.147894    17A     -1.046925    18A     -1.041795
      19A     -1.013100    20A     -1.006976    21A     -0.932874
      22A     -0.929685    23A     -0.827214    24A     -0.822017
      25A     -0.796457    26A     -0.793080    27A     -0.694313
      28A     -0.687692    29A     -0.633367    30A     -0.630699
      31A     -0.629319    32A     -0.626765    33A     -0.584674
      34A     -0.579278    35A     -0.578293    36A     -0.573915
      37A     -0.564201    38A     -0.561248    39A     -0.535725
      40A     -0.534347    41A     -0.490349    42A     -0.486351
      43A     -0.484307    44A     -0.483046    45A     -0.481209
      46A     -0.477755    47A     -0.333416    48A     -0.328348
      49A     -0.323770    50A     -0.320341

    Virtual:

      51A      0.132617    52A      0.136012    53A      0.142722
      54A      0.144864    55A      0.177149    56A      0.190200
      57A      0.199350    58A      0.211565    59A      0.219601
      60A      0.225451    61A      0.240997    62A      0.249591
      63A      0.260470    64A      0.265296    65A      0.267608
      66A      0.269546    67A      0.276787    68A      0.289995
      69A      0.302767    70A      0.352757    71A      0.365607
      72A      0.367921    73A      0.376507    74A      0.381410
      75A      0.448416    76A      0.453290    77A      0.462172
      78A      0.468356    79A      0.471787    80A      0.490071
      81A      0.502274    82A      0.506433    83A      0.564253
      84A      0.575736    85A      0.594545    86A      0.606510
      87A      0.626316    88A      0.628671    89A      0.669521
      90A      0.678711    91A      0.687962    92A      0.696082
      93A      0.699879    94A      0.706040    95A      0.714368
      96A      0.723310    97A      0.730418    98A      0.737825
      99A      0.738980   100A      0.743000   101A      0.744837
     102A      0.748660   103A      0.752077   104A      0.761319
     105A      0.771641   106A      0.773958   107A      0.779079
     108A      0.781037   109A      0.786839   110A      0.793330
     111A      0.822048   112A      0.837488   113A      0.855335
     114A      0.864100   115A      0.865517   116A      0.872144
     117A      0.877382   118A      0.880438   119A      0.887227
     120A      0.891734   121A      0.898995   122A      0.901744
     123A      0.912937   124A      0.923369   125A      0.924610
     126A      0.937688   127A      0.943327   128A      0.945015
     129A      0.947159   130A      0.967207   131A      0.993666
     132A      0.998663   133A      1.027083   134A      1.036575
     135A      1.050981   136A      1.069045   137A      1.116548
     138A      1.123282   139A      1.140671   140A      1.145471
     141A      1.148213   142A      1.158068   143A      1.170534
     144A      1.198712   145A      1.202403   146A      1.205257
     147A      1.215816   148A      1.226439   149A      1.245245
     150A      1.250616   151A      1.253794   152A      1.258919
     153A      1.268059   154A      1.281759   155A      1.293274
     156A      1.300565   157A      1.306922   158A      1.313815
     159A      1.321163   160A      1.326873   161A      1.328586
     162A      1.341988   163A      1.413648   164A      1.425222
     165A      1.504013   166A      1.510228   167A      1.530460
     168A      1.540273   169A      1.556430   170A      1.558730
     171A      1.601037   172A      1.626386   173A      1.675410
     174A      1.679333   175A      1.686952   176A      1.688772
     177A      1.734603   178A      1.736727   179A      1.743608
     180A      1.744779   181A      1.756982   182A      1.762008
     183A      1.790761   184A      1.792988   185A      1.815753
     186A      1.818720   187A      1.857045   188A      1.860170
     189A      1.881882   190A      1.886322   191A      1.893075
     192A      1.903006   193A      1.904792   194A      1.907306
     195A      1.917214   196A      1.920344   197A      1.925350
     198A      1.931238   199A      1.938975   200A      1.950193
     201A      1.955701   202A      1.959761   203A      1.965228
     204A      1.970016   205A      1.984254   206A      1.990474
     207A      2.010248   208A      2.019429   209A      2.032477
     210A      2.037980   211A      2.051817   212A      2.056439
     213A      2.075014   214A      2.076080   215A      2.109294
     216A      2.112866   217A      2.124034   218A      2.133598
     219A      2.152913   220A      2.162807   221A      2.171751
     222A      2.174294   223A      2.180532   224A      2.189345
     225A      2.200931   226A      2.212406   227A      2.248417
     228A      2.250137   229A      2.260935   230A      2.278540
     231A      2.283782   232A      2.292136   233A      2.302417
     234A      2.312525   235A      2.324848   236A      2.337525
     237A      2.356758   238A      2.373602   239A      2.439183
     240A      2.458840   241A      2.474133   242A      2.476221
     243A      2.515112   244A      2.518968   245A      2.534794
     246A      2.541404   247A      2.633038   248A      2.641738
     249A      2.726784   250A      2.741382   251A      2.750400
     252A      2.754920   253A      2.768807   254A      2.777444
     255A      2.797802   256A      2.800438   257A      2.811667
     258A      2.824407   259A      2.849036   260A      2.849940
     261A      2.861732   262A      2.880508   263A      2.974061
     264A      2.985264   265A      3.005499   266A      3.014762
     267A      3.028063   268A      3.046997   269A      3.158939
     270A      3.165477   271A      3.196402   272A      3.211643
     273A      3.294786   274A      3.312693   275A      3.953122
     276A      3.984677

    Final Occupation by Irrep:
              A
    DOCC [    50 ]

  @RHF Final Energy:  -539.52012742114061

   => Energetics <=

    Nuclear Repulsion Energy =            741.8016179213545911
    One-Electron Energy =               -2199.8553354060750280
    Two-Electron Energy =                 918.5335900635798225
    Total Energy =                       -539.5201274211406144

Computation Completed

Properties will be evaluated at   0.000000,   0.000000,   0.000000 [a0]

Properties computed using the SCF density matrix

  Nuclear Dipole Moment: [e a0]
     X:     2.4306      Y:     1.1625      Z:     4.0015

  Electronic Dipole Moment: [e a0]
     X:    -2.3678      Y:    -1.0749      Z:    -3.8270

  Dipole Moment: [e a0]
     X:     0.0628      Y:     0.0877      Z:     0.1744     Total:     0.2051

  Dipole Moment: [D]
     X:     0.1595      Y:     0.2228      Z:     0.4434     Total:     0.5212

*** tstop() called on ds3 at Tue Apr 28 11:23:00 2020
Module time:
	user time   =     253.76 seconds =       4.23 minutes
	system time =     118.02 seconds =       1.97 minutes
	total time  =        566 seconds =       9.43 minutes
Total time:
	user time   =     253.76 seconds =       4.23 minutes
	system time =     118.02 seconds =       1.97 minutes
	total time  =        566 seconds =       9.43 minutes
                                     G D M A

                                 by Anthony Stone

                           version 2.2.06, 22 June 2011

               Distributed Multipoles from Gaussian wavefunctions

Starting at 11:23:0 on 28 Apr 2020

Using SCF density matrix from file ./SSI/SSI-056PHE-152PHE-1-dimer.test.2846.fchk

                         Distributed Multipole Analysis

Standard DMA

Positions and radii in angstrom
Multipole moments in atomic units, ea_0^k for rank k

C          x = -3.391339  y =  2.573989  z =  2.620680 angstrom
           Maximum rank =  0   Radius =  0.650 angstrom
                   Q00  =  -0.208822

C          x = -2.108339  y =  0.437989  z = -0.244320 angstrom
           Maximum rank =  0   Radius =  0.650 angstrom
                   Q00  =  -0.067767

C          x = -2.220339  y =  1.317989  z = -1.307320 angstrom
           Maximum rank =  0   Radius =  0.650 angstrom
                   Q00  =  -0.060356

C          x = -2.488339  y =  0.842989  z =  1.033680 angstrom
           Maximum rank =  0   Radius =  0.650 angstrom
                   Q00  =  -0.045532

C          x = -3.007339  y =  2.112989  z =  1.242680 angstrom
           Maximum rank =  0   Radius =  0.650 angstrom
                   Q00  =  -0.093773

C          x = -2.725339  y =  2.590989  z = -1.106320 angstrom
           Maximum rank =  0   Radius =  0.650 angstrom
                   Q00  =  -0.067795

C          x = -3.111339  y =  2.991989  z =  0.166680 angstrom
           Maximum rank =  0   Radius =  0.650 angstrom
                   Q00  =  -0.056202

H          x = -1.733339  y = -0.561011  z = -0.404320 angstrom
           Maximum rank =  0   Radius =  0.325 angstrom
                   Q00  =   0.059205

H          x = -1.933339  y =  1.006989  z = -2.298320 angstrom
           Maximum rank =  0   Radius =  0.325 angstrom
                   Q00  =   0.058205

H          x = -2.392339  y =  0.154989  z =  1.861680 angstrom
           Maximum rank =  0   Radius =  0.325 angstrom
                   Q00  =   0.058944

H          x = -2.816339  y =  3.273989  z = -1.941320 angstrom
           Maximum rank =  0   Radius =  0.325 angstrom
                   Q00  =   0.063965

H          x = -3.381339  y =  1.744989  z =  3.319680 angstrom
           Maximum rank =  0   Radius =  0.325 angstrom
                   Q00  =   0.098914

H          x = -4.406339  y =  2.956989  z =  2.574680 angstrom
           Maximum rank =  0   Radius =  0.325 angstrom
                   Q00  =   0.100380

H          x = -3.503339  y =  3.988989  z =  0.316680 angstrom
           Maximum rank =  0   Radius =  0.325 angstrom
                   Q00  =   0.055466

H          x = -2.716107  y =  3.345579  z =  3.019060 angstrom
           Maximum rank =  0   Radius =  0.325 angstrom
                   Q00  =   0.102659

C          x =  5.123661  y = -1.760011  z =  0.170680 angstrom
           Maximum rank =  0   Radius =  0.650 angstrom
                   Q00  =  -0.207342

C          x =  1.505661  y = -0.713011  z = -0.424320 angstrom
           Maximum rank =  0   Radius =  0.650 angstrom
                   Q00  =  -0.076478

C          x =  0.921661  y = -1.917011  z = -0.816320 angstrom
           Maximum rank =  0   Radius =  0.650 angstrom
                   Q00  =  -0.095548

C          x =  2.869661  y = -0.665011  z = -0.112320 angstrom
           Maximum rank =  0   Radius =  0.650 angstrom
                   Q00  =   0.006467

C          x =  3.653661  y = -1.819011  z = -0.161320 angstrom
           Maximum rank =  0   Radius =  0.650 angstrom
                   Q00  =  -0.093737

C          x =  1.699661  y = -3.074011  z = -0.874320 angstrom
           Maximum rank =  0   Radius =  0.650 angstrom
                   Q00  =  -0.050127

C          x =  3.060661  y = -3.025011  z = -0.546320 angstrom
           Maximum rank =  0   Radius =  0.650 angstrom
                   Q00  =  -0.095905

H          x =  0.908661  y =  0.187989  z = -0.377320 angstrom
           Maximum rank =  0   Radius =  0.325 angstrom
                   Q00  =   0.076877

H          x = -0.125339  y = -1.959011  z = -1.077320 angstrom
           Maximum rank =  0   Radius =  0.325 angstrom
                   Q00  =   0.055804

H          x =  3.314661  y =  0.276989  z =  0.176680 angstrom
           Maximum rank =  0   Radius =  0.325 angstrom
                   Q00  =   0.059388

H          x =  1.254661  y = -4.018011  z = -1.153320 angstrom
           Maximum rank =  0   Radius =  0.325 angstrom
                   Q00  =   0.065132

H          x =  5.301661  y = -2.358011  z =  1.061680 angstrom
           Maximum rank =  0   Radius =  0.325 angstrom
                   Q00  =   0.102189

H          x =  5.404661  y = -0.730011  z =  0.400680 angstrom
           Maximum rank =  0   Radius =  0.325 angstrom
                   Q00  =   0.097271

H          x =  3.641661  y = -3.935011  z = -0.578320 angstrom
           Maximum rank =  0   Radius =  0.325 angstrom
                   Q00  =   0.056005

H          x =  5.774585  y = -2.136371  z = -0.632220 angstrom
           Maximum rank =  0   Radius =  0.325 angstrom
                   Q00  =   0.102514

Total multipoles referred to origin at
           x =   0.000000,  y =    0.000000,  z =    0.000000 angstrom
                   Q00  =  -0.000000

Finished at 11:23:0 on 28 Apr 2020

  DMA results are available in the Python driver through the
	  variable('DMA DISTRIBUTED MULTIPOLES')
  and
	  variable('DMA TOTAL MULTIPOLES')
  commands.

    Psi4 stopped on: Tuesday, 28 April 2020 11:23AM
    Psi4 wall time for execution: 0:09:25.42

*** Psi4 exiting successfully. Buy a developer a beer!
