                               Psi4 1.3.2 release

  ==> Input File <==

--------------------------------------------------------------------------
import numpy as np
set {scf_type pk
basis cc-pvdz
d_convergence 10
gdma_switch   0
gdma_limit    0
gdma_origin   [ 0.0,  0.0,  0.0 ]
}
molecule test {
    units Angstrom
    0 1
    --
    0 1
    C                1.256769957296508    -0.200879867618541    -1.621216139211226
    C                0.721769957296508    -1.637879867618541    -1.636216139211226
    H                2.322769957296508    -0.208879867618541    -1.851216139211226
    H                0.745769957296508     0.404120132381459    -2.369216139211225
    H                1.117769957296508     0.242120132381459    -0.638216139211226
    H                1.019769957296508    -2.076879867618541    -2.587216139211225
    H                1.153669957296508    -2.218989867618541    -0.808106139211226
    H               -0.377260042703492    -1.632869867618541    -1.590396139211226
    C               -0.983230042703492     1.196120132381459     0.917783860788774
    C               -0.995230042703492     0.644120132381459     2.345783860788774
    H               -0.028230042703492     1.677120132381459     0.721783860788774
    H               -1.132230042703492     0.392120132381459     0.212783860788774
    H               -1.788230042703492     1.908120132381459     0.752783860788774
    H               -1.970230042703492     0.195120132381459     2.533783860788775
    H               -0.825650042703492     1.446010132381459     3.079413860788774
    H               -0.238870042703492    -0.144739867618541     2.470763860788774

}
e, wfn = energy('scf', return_wfn=True)
gdma(wfn)
dmavals = variable('DMA DISTRIBUTED MULTIPOLES')
charges = np.array(dmavals)
print(charges)
np.save('SSI-075LEU-111LEU-2-dimer.npy', np.array(charges))--------------------------------------------------------------------------

*** tstart() called on ds3
*** at Tue Apr 28 19:54:50 2020

   => Loading Basis Set <=

    Name: CC-PVDZ
    Role: ORBITAL
    Keyword: BASIS
    atoms 1-2, 9-10  entry C          line   138 file /theoryfs2/ds/metcalf/miniconda2/envs/tf2gpu/share/psi4/basis/cc-pvdz.gbs
    atoms 3-8, 11-16 entry H          line    22 file /theoryfs2/ds/metcalf/miniconda2/envs/tf2gpu/share/psi4/basis/cc-pvdz.gbs

         ---------------------------------------------------------
                                   SCF
               by Justin Turney, Rob Parrish, Andy Simmonett
                          and Daniel G. A. Smith
                              RHF Reference
                        1 Threads,    500 MiB Core
         ---------------------------------------------------------

  ==> Geometry <==

    Molecular point group: c1
    Full point group: C1

    Geometry (in Angstrom), charge = 0, multiplicity = 1:

       Center              X                  Y                   Z               Mass
    ------------   -----------------  -----------------  -----------------  -----------------
         C            1.256769957297    -0.200879867619    -1.621216139211    12.000000000000
         C            0.721769957297    -1.637879867619    -1.636216139211    12.000000000000
         H            2.322769957297    -0.208879867619    -1.851216139211     1.007825032230
         H            0.745769957297     0.404120132381    -2.369216139211     1.007825032230
         H            1.117769957297     0.242120132381    -0.638216139211     1.007825032230
         H            1.019769957297    -2.076879867619    -2.587216139211     1.007825032230
         H            1.153669957297    -2.218989867619    -0.808106139211     1.007825032230
         H           -0.377260042703    -1.632869867619    -1.590396139211     1.007825032230
         C           -0.983230042703     1.196120132381     0.917783860789    12.000000000000
         C           -0.995230042703     0.644120132381     2.345783860789    12.000000000000
         H           -0.028230042703     1.677120132381     0.721783860789     1.007825032230
         H           -1.132230042703     0.392120132381     0.212783860789     1.007825032230
         H           -1.788230042703     1.908120132381     0.752783860789     1.007825032230
         H           -1.970230042703     0.195120132381     2.533783860789     1.007825032230
         H           -0.825650042703     1.446010132381     3.079413860789     1.007825032230
         H           -0.238870042703    -0.144739867619     2.470763860789     1.007825032230

  Running in c1 symmetry.

  Rotational constants: A =      0.39263  B =      0.05705  C =      0.05370 [cm^-1]
  Rotational constants: A =  11770.84358  B =   1710.18282  C =   1610.02510 [MHz]
  Nuclear repulsion =  124.361488278437307

  Charge       = 0
  Multiplicity = 1
  Electrons    = 36
  Nalpha       = 18
  Nbeta        = 18

  ==> Algorithm <==

  SCF Algorithm Type is PK.
  DIIS enabled.
  MOM disabled.
  Fractional occupation disabled.
  Guess Type is SAD.
  Energy threshold   = 1.00e-06
  Density threshold  = 1.00e-10
  Integral threshold = 0.00e+00

  ==> Primary Basis <==

  Basis Set: CC-PVDZ
    Blend: CC-PVDZ
    Number of shells: 60
    Number of basis function: 116
    Number of Cartesian functions: 120
    Spherical Harmonics?: true
    Max angular momentum: 2

  ==> Pre-Iterations <==

   -------------------------------------------------------
    Irrep   Nso     Nmo     Nalpha   Nbeta   Ndocc  Nsocc
   -------------------------------------------------------
     A        116     116       0       0       0       0
   -------------------------------------------------------
    Total     116     116      18      18      18       0
   -------------------------------------------------------

  ==> Integral Setup <==

  Using integral reordering PK algorithm.
  Sizing the integral batches needed.
  Building batch lookup table.
   Calculation information:
      Number of atoms:                  16
      Number of AO shells:              60
      Number of primitives:            148
      Number of atomic orbitals:       120
      Number of basis functions:       116

      Integral cutoff                 1.00e-12
      Number of threads:                 1

	Batch   1 pq = [       0,    6786] index = [             0,23028291] size =     23028291
  Task number: 3
  Buffer size: 11059200
  Buffer per thread: 2
  We computed 1526255 shell quartets total.
  Whereas there are 1675365 unique shell quartets.

  ==> DiskJK: Disk-Based J/K Matrices <==

    J tasked:                  Yes
    K tasked:                  Yes
    wK tasked:                  No
    Memory [MiB]:              375
    Schwarz Cutoff:          1E-12

    OpenMP threads:              1

  Minimum eigenvalue in the overlap matrix is 7.7836389325E-03.
  Using Symmetric Orthogonalization.

  SCF Guess: Superposition of Atomic Densities via on-the-fly atomic UHF.

  ==> Iterations <==

                        Total Energy        Delta E     RMS |[F,P]|

   @RHF iter SAD:  -157.36072323806604   -1.57361e+02   0.00000e+00
   @RHF iter   1:  -158.30686852155370   -9.46145e-01   4.20121e-03 DIIS
   @RHF iter   2:  -158.43995618172022   -1.33088e-01   1.78219e-03 DIIS
   @RHF iter   3:  -158.46304011853331   -2.30839e-02   3.49887e-04 DIIS
   @RHF iter   4:  -158.46487259343402   -1.83247e-03   3.91688e-05 DIIS
   @RHF iter   5:  -158.46489657361880   -2.39802e-05   6.90224e-06 DIIS
   @RHF iter   6:  -158.46489724774551   -6.74127e-07   1.35290e-06 DIIS
   @RHF iter   7:  -158.46489726509998   -1.73545e-08   3.24758e-07 DIIS
   @RHF iter   8:  -158.46489726612788   -1.02790e-09   4.18918e-08 DIIS
   @RHF iter   9:  -158.46489726615656   -2.86775e-11   8.86369e-09 DIIS
   @RHF iter  10:  -158.46489726615800   -1.44951e-12   2.27758e-09 DIIS
   @RHF iter  11:  -158.46489726615778    2.27374e-13   4.23596e-10 DIIS
   @RHF iter  12:  -158.46489726615786   -8.52651e-14   1.03424e-10 DIIS
   @RHF iter  13:  -158.46489726615854   -6.82121e-13   2.90206e-11 DIIS
  Energy and wave function converged.

  ==> Post-Iterations <==

    Orbital Energies [Eh]
    ---------------------

    Doubly Occupied:

       1A    -11.219949     2A    -11.219469     3A    -11.215431
       4A    -11.214605     5A     -1.019717     6A     -1.015762
       7A     -0.840985     8A     -0.834611     9A     -0.605172
      10A     -0.600949    11A     -0.597422    12A     -0.588913
      13A     -0.503593    14A     -0.497179    15A     -0.492200
      16A     -0.488129    17A     -0.486404    18A     -0.475520

    Virtual:

      19A      0.169677    20A      0.202650    21A      0.226403
      22A      0.227848    23A      0.249566    24A      0.256757
      25A      0.264250    26A      0.275159    27A      0.279234
      28A      0.287504    29A      0.329758    30A      0.350922
      31A      0.392214    32A      0.400585    33A      0.576067
      34A      0.594130    35A      0.600843    36A      0.608907
      37A      0.619125    38A      0.635741    39A      0.675513
      40A      0.682972    41A      0.690017    42A      0.817605
      43A      0.840095    44A      0.852889    45A      0.883838
      46A      0.885407    47A      0.893081    48A      0.897305
      49A      0.905960    50A      0.909425    51A      0.916094
      52A      0.923522    53A      0.947650    54A      0.955741
      55A      0.976278    56A      1.020743    57A      1.119020
      58A      1.122168    59A      1.126435    60A      1.173563
      61A      1.246698    62A      1.268258    63A      1.467848
      64A      1.472623    65A      1.479043    66A      1.490358
      67A      1.555166    68A      1.582566    69A      1.680808
      70A      1.684737    71A      1.701252    72A      1.709401
      73A      1.856046    74A      1.860236    75A      1.868390
      76A      1.886706    77A      1.895700    78A      1.905917
      79A      1.939042    80A      1.940515    81A      1.945404
      82A      1.946855    83A      1.954102    84A      1.958114
      85A      1.964572    86A      1.978594    87A      1.982537
      88A      2.013597    89A      2.087693    90A      2.104525
      91A      2.118263    92A      2.147945    93A      2.287005
      94A      2.304600    95A      2.316371    96A      2.326085
      97A      2.445550    98A      2.452527    99A      2.468361
     100A      2.480649   101A      2.555737   102A      2.570909
     103A      2.575306   104A      2.589922   105A      2.757512
     106A      2.768890   107A      2.792708   108A      2.806343
     109A      2.840353   110A      2.851706   111A      2.867910
     112A      2.870335   113A      2.935238   114A      2.959219
     115A      2.981250   116A      2.995270

    Final Occupation by Irrep:
              A
    DOCC [    18 ]

  @RHF Final Energy:  -158.46489726615854

   => Energetics <=

    Nuclear Repulsion Energy =            124.3614882784373066
    One-Electron Energy =                -457.8207552074007936
    Two-Electron Energy =                 174.9943696628049281
    Total Energy =                       -158.4648972661585447

Computation Completed

Properties will be evaluated at   0.000000,   0.000000,   0.000000 [a0]

Properties computed using the SCF density matrix

  Nuclear Dipole Moment: [e a0]
     X:    -0.0009      Y:    -0.0165      Z:    -0.0685

  Electronic Dipole Moment: [e a0]
     X:    -0.0102      Y:     0.0282      Z:     0.0588

  Dipole Moment: [e a0]
     X:    -0.0111      Y:     0.0117      Z:    -0.0097     Total:     0.0188

  Dipole Moment: [D]
     X:    -0.0281      Y:     0.0297      Z:    -0.0247     Total:     0.0478

*** tstop() called on ds3 at Tue Apr 28 19:55:01 2020
Module time:
	user time   =       8.29 seconds =       0.14 minutes
	system time =       3.12 seconds =       0.05 minutes
	total time  =         11 seconds =       0.18 minutes
Total time:
	user time   =       8.29 seconds =       0.14 minutes
	system time =       3.12 seconds =       0.05 minutes
	total time  =         11 seconds =       0.18 minutes
                                     G D M A

                                 by Anthony Stone

                           version 2.2.06, 22 June 2011

               Distributed Multipoles from Gaussian wavefunctions

Starting at 19:55:1 on 28 Apr 2020

Using SCF density matrix from file ./SSI/SSI-075LEU-111LEU-2-dimer.test.12881.fchk

                         Distributed Multipole Analysis

Standard DMA

Positions and radii in angstrom
Multipole moments in atomic units, ea_0^k for rank k

C          x =  1.256770  y = -0.200880  z = -1.621216 angstrom
           Maximum rank =  0   Radius =  0.650 angstrom
                   Q00  =  -0.234231

C          x =  0.721770  y = -1.637880  z = -1.636216 angstrom
           Maximum rank =  0   Radius =  0.650 angstrom
                   Q00  =  -0.243339

H          x =  2.322770  y = -0.208880  z = -1.851216 angstrom
           Maximum rank =  0   Radius =  0.325 angstrom
                   Q00  =   0.076404

H          x =  0.745770  y =  0.404120  z = -2.369216 angstrom
           Maximum rank =  0   Radius =  0.325 angstrom
                   Q00  =   0.079382

H          x =  1.117770  y =  0.242120  z = -0.638216 angstrom
           Maximum rank =  0   Radius =  0.325 angstrom
                   Q00  =   0.084657

H          x =  1.019770  y = -2.076880  z = -2.587216 angstrom
           Maximum rank =  0   Radius =  0.325 angstrom
                   Q00  =   0.077770

H          x =  1.153670  y = -2.218990  z = -0.808106 angstrom
           Maximum rank =  0   Radius =  0.325 angstrom
                   Q00  =   0.080714

H          x = -0.377260  y = -1.632870  z = -1.590396 angstrom
           Maximum rank =  0   Radius =  0.325 angstrom
                   Q00  =   0.077940

C          x = -0.983230  y =  1.196120  z =  0.917784 angstrom
           Maximum rank =  0   Radius =  0.650 angstrom
                   Q00  =  -0.241743

C          x = -0.995230  y =  0.644120  z =  2.345784 angstrom
           Maximum rank =  0   Radius =  0.650 angstrom
                   Q00  =  -0.234457

H          x = -0.028230  y =  1.677120  z =  0.721784 angstrom
           Maximum rank =  0   Radius =  0.325 angstrom
                   Q00  =   0.078261

H          x = -1.132230  y =  0.392120  z =  0.212784 angstrom
           Maximum rank =  0   Radius =  0.325 angstrom
                   Q00  =   0.080848

H          x = -1.788230  y =  1.908120  z =  0.752784 angstrom
           Maximum rank =  0   Radius =  0.325 angstrom
                   Q00  =   0.080923

H          x = -1.970230  y =  0.195120  z =  2.533784 angstrom
           Maximum rank =  0   Radius =  0.325 angstrom
                   Q00  =   0.077811

H          x = -0.825650  y =  1.446010  z =  3.079414 angstrom
           Maximum rank =  0   Radius =  0.325 angstrom
                   Q00  =   0.080133

H          x = -0.238870  y = -0.144740  z =  2.470764 angstrom
           Maximum rank =  0   Radius =  0.325 angstrom
                   Q00  =   0.078926

Total multipoles referred to origin at
           x =   0.000000,  y =    0.000000,  z =    0.000000 angstrom
                   Q00  =  -0.000000

Finished at 19:55:1 on 28 Apr 2020

  DMA results are available in the Python driver through the
	  variable('DMA DISTRIBUTED MULTIPOLES')
  and
	  variable('DMA TOTAL MULTIPOLES')
  commands.

    Psi4 stopped on: Tuesday, 28 April 2020 07:55PM
    Psi4 wall time for execution: 0:00:11.22

*** Psi4 exiting successfully. Buy a developer a beer!
