                               Psi4 1.3.2 release

  ==> Input File <==

--------------------------------------------------------------------------
import numpy as np
set {scf_type pk
basis cc-pvdz
d_convergence 10
gdma_switch   0
gdma_limit    0
gdma_origin   [ 0.0,  0.0,  0.0 ]
}
molecule test {
    units Angstrom
    1 1
    --
    1 1
    C                3.292281501167143    -1.253220864044220    -1.543190014630418
    C                2.204281501167143    -0.240220864044220    -1.842190014630418
    O                1.300281501167142    -0.028220864044220    -1.043190014630418
    N                2.282281501167143     0.402779135955780    -2.995190014630418
    H                3.804281501167143    -0.881220864044220    -0.661190014630418
    H                4.015281501167142    -1.282220864044220    -2.361190014630418
    H                1.566281501167142     1.078779135955780    -3.217190014630418
    H                3.026281501167143     0.203779135955780    -3.649190014630418
    H                2.900611501167143    -2.268260864044220    -1.381070014630418
    C               -3.470718498832857     0.179779135955780     2.582809985369582
    C               -1.397718498832857     0.219779135955780     1.232809985369582
    N               -0.099718498832857     0.418779135955780     1.168809985369582
    N               -2.028718498832857     0.373779135955780     2.384809985369582
    N               -2.063718498832857    -0.126220864044220     0.148809985369582
    H                0.415281501167143     0.676779135955780     2.003809985369582
    H                0.383281501167143     0.319779135955780     0.286809985369582
    H               -1.491718498832858     0.721779135955780     3.165809985369582
    H               -3.063718498832857    -0.229220864044220     0.177809985369582
    H               -1.580718498832858    -0.198220864044220    -0.732190014630418
    H               -4.028718498832857     0.034779135955780     1.656809985369582
    H               -3.860718498832857     1.091779135955780     3.039809985369581
    H               -3.664649498832857    -0.650420864044220     3.277909985369582

}
e, wfn = energy('scf', return_wfn=True)
gdma(wfn)
dmavals = variable('DMA DISTRIBUTED MULTIPOLES')
charges = np.array(dmavals)
print(charges)
np.save('SSI-121GLN-144ARG-1-dimer.npy', np.array(charges))--------------------------------------------------------------------------

*** tstart() called on ds3
*** at Mon Apr 27 13:28:30 2020

   => Loading Basis Set <=

    Name: CC-PVDZ
    Role: ORBITAL
    Keyword: BASIS
    atoms 1-2, 10-11 entry C          line   138 file /theoryfs2/ds/metcalf/miniconda2/envs/tf2gpu/share/psi4/basis/cc-pvdz.gbs
    atoms 3          entry O          line   198 file /theoryfs2/ds/metcalf/miniconda2/envs/tf2gpu/share/psi4/basis/cc-pvdz.gbs
    atoms 4, 12-14   entry N          line   168 file /theoryfs2/ds/metcalf/miniconda2/envs/tf2gpu/share/psi4/basis/cc-pvdz.gbs
    atoms 5-9, 15-22 entry H          line    22 file /theoryfs2/ds/metcalf/miniconda2/envs/tf2gpu/share/psi4/basis/cc-pvdz.gbs

         ---------------------------------------------------------
                                   SCF
               by Justin Turney, Rob Parrish, Andy Simmonett
                          and Daniel G. A. Smith
                              RHF Reference
                        1 Threads,    500 MiB Core
         ---------------------------------------------------------

  ==> Geometry <==

    Molecular point group: c1
    Full point group: C1

    Geometry (in Angstrom), charge = 1, multiplicity = 1:

       Center              X                  Y                   Z               Mass
    ------------   -----------------  -----------------  -----------------  -----------------
         C            3.292281501167    -1.253220864044    -1.543190014630    12.000000000000
         C            2.204281501167    -0.240220864044    -1.842190014630    12.000000000000
         O            1.300281501167    -0.028220864044    -1.043190014630    15.994914619570
         N            2.282281501167     0.402779135956    -2.995190014630    14.003074004430
         H            3.804281501167    -0.881220864044    -0.661190014630     1.007825032230
         H            4.015281501167    -1.282220864044    -2.361190014630     1.007825032230
         H            1.566281501167     1.078779135956    -3.217190014630     1.007825032230
         H            3.026281501167     0.203779135956    -3.649190014630     1.007825032230
         H            2.900611501167    -2.268260864044    -1.381070014630     1.007825032230
         C           -3.470718498833     0.179779135956     2.582809985370    12.000000000000
         C           -1.397718498833     0.219779135956     1.232809985370    12.000000000000
         N           -0.099718498833     0.418779135956     1.168809985370    14.003074004430
         N           -2.028718498833     0.373779135956     2.384809985370    14.003074004430
         N           -2.063718498833    -0.126220864044     0.148809985370    14.003074004430
         H            0.415281501167     0.676779135956     2.003809985370     1.007825032230
         H            0.383281501167     0.319779135956     0.286809985370     1.007825032230
         H           -1.491718498833     0.721779135956     3.165809985370     1.007825032230
         H           -3.063718498833    -0.229220864044     0.177809985370     1.007825032230
         H           -1.580718498833    -0.198220864044    -0.732190014630     1.007825032230
         H           -4.028718498833     0.034779135956     1.656809985370     1.007825032230
         H           -3.860718498833     1.091779135956     3.039809985370     1.007825032230
         H           -3.664649498833    -0.650420864044     3.277909985370     1.007825032230

  Running in c1 symmetry.

  Rotational constants: A =      0.15685  B =      0.01500  C =      0.01436 [cm^-1]
  Rotational constants: A =   4702.36436  B =    449.72552  C =    430.51655 [MHz]
  Nuclear repulsion =  453.681264898859126

  Charge       = 1
  Multiplicity = 1
  Electrons    = 72
  Nalpha       = 36
  Nbeta        = 36

  ==> Algorithm <==

  SCF Algorithm Type is PK.
  DIIS enabled.
  MOM disabled.
  Fractional occupation disabled.
  Guess Type is SAD.
  Energy threshold   = 1.00e-06
  Density threshold  = 1.00e-10
  Integral threshold = 0.00e+00

  ==> Primary Basis <==

  Basis Set: CC-PVDZ
    Blend: CC-PVDZ
    Number of shells: 93
    Number of basis function: 191
    Number of Cartesian functions: 200
    Spherical Harmonics?: true
    Max angular momentum: 2

  ==> Pre-Iterations <==

   -------------------------------------------------------
    Irrep   Nso     Nmo     Nalpha   Nbeta   Ndocc  Nsocc
   -------------------------------------------------------
     A        191     191       0       0       0       0
   -------------------------------------------------------
    Total     191     191      36      36      36       0
   -------------------------------------------------------

  ==> Integral Setup <==

  Using integral reordering PK algorithm.
  Sizing the integral batches needed.
  Building batch lookup table.
   Calculation information:
      Number of atoms:                  22
      Number of AO shells:              93
      Number of primitives:            263
      Number of atomic orbitals:       200
      Number of basis functions:       191

      Integral cutoff                 1.00e-12
      Number of threads:                 1

	Batch   1 pq = [       0,    9405] index = [             0,44231715] size =     44231715
	Batch   2 pq = [    9405,   13301] index = [      44231715,88464951] size =     44233236
	Batch   3 pq = [   13301,   16290] index = [      88464951,132690195] size =     44225244
	Batch   4 pq = [   16290,   18336] index = [     132690195,168113616] size =     35423421
  Task number: 16
  Buffer size: 11059200
  Buffer per thread: 2
  We computed 6498614 shell quartets total.
  Whereas there are 9555006 unique shell quartets.

  ==> DiskJK: Disk-Based J/K Matrices <==

    J tasked:                  Yes
    K tasked:                  Yes
    wK tasked:                  No
    Memory [MiB]:              375
    Schwarz Cutoff:          1E-12

    OpenMP threads:              1

  Minimum eigenvalue in the overlap matrix is 3.6982759077E-03.
  Using Symmetric Orthogonalization.

  SCF Guess: Superposition of Atomic Densities via on-the-fly atomic UHF.

  ==> Iterations <==

                        Total Energy        Delta E     RMS |[F,P]|

   @RHF iter SAD:  -450.85210322549648   -4.50852e+02   0.00000e+00
   @RHF iter   1:  -451.36158626162950   -5.09483e-01   3.57288e-03 DIIS
   @RHF iter   2:  -451.56374379671342   -2.02158e-01   1.67208e-03 DIIS
   @RHF iter   3:  -451.60349955154032   -3.97558e-02   4.12438e-04 DIIS
   @RHF iter   4:  -451.60703849425846   -3.53894e-03   1.54449e-04 DIIS
   @RHF iter   5:  -451.60750518271726   -4.66688e-04   2.63202e-05 DIIS
   @RHF iter   6:  -451.60753202930601   -2.68466e-05   1.06856e-05 DIIS
   @RHF iter   7:  -451.60753527518011   -3.24587e-06   3.00473e-06 DIIS
   @RHF iter   8:  -451.60753576307809   -4.87898e-07   9.24506e-07 DIIS
   @RHF iter   9:  -451.60753580269892   -3.96208e-08   3.44334e-07 DIIS
   @RHF iter  10:  -451.60753580844545   -5.74653e-09   1.33680e-07 DIIS
   @RHF iter  11:  -451.60753580925109   -8.05642e-10   3.06319e-08 DIIS
   @RHF iter  12:  -451.60753580928696   -3.58682e-11   1.12278e-08 DIIS
   @RHF iter  13:  -451.60753580929355   -6.59384e-12   2.80759e-09 DIIS
   @RHF iter  14:  -451.60753580929423   -6.82121e-13   7.89389e-10 DIIS
   @RHF iter  15:  -451.60753580929247    1.76215e-12   2.57079e-10 DIIS
   @RHF iter  16:  -451.60753580929054    1.93268e-12   8.62613e-11 DIIS
  Energy and wave function converged.

  ==> Post-Iterations <==

    Orbital Energies [Eh]
    ---------------------

    Doubly Occupied:

       1A    -20.642234     2A    -15.756740     3A    -15.753018
       4A    -15.729836     5A    -15.709754     6A    -11.550516
       7A    -11.481375     8A    -11.422982     9A    -11.350728
      10A     -1.513636    11A     -1.508686    12A     -1.370068
      13A     -1.351377    14A     -1.340705    15A     -1.117193
      16A     -1.112833    17A     -1.005437    18A     -0.945066
      19A     -0.932750    20A     -0.898649    21A     -0.847857
      22A     -0.829369    23A     -0.822010    24A     -0.793463
      25A     -0.787238    26A     -0.758913    27A     -0.733566
      28A     -0.716679    29A     -0.707424    30A     -0.696803
      31A     -0.663574    32A     -0.645122    33A     -0.577966
      34A     -0.555738    35A     -0.547225    36A     -0.539316

    Virtual:

      37A      0.025377    38A      0.046196    39A      0.063313
      40A      0.067532    41A      0.073333    42A      0.083787
      43A      0.097015    44A      0.116356    45A      0.120499
      46A      0.131431    47A      0.139246    48A      0.174296
      49A      0.176607    50A      0.183622    51A      0.201785
      52A      0.261663    53A      0.275296    54A      0.304383
      55A      0.357789    56A      0.374898    57A      0.391771
      58A      0.443653    59A      0.452062    60A      0.459127
      61A      0.528087    62A      0.539390    63A      0.555946
      64A      0.561011    65A      0.571083    66A      0.578182
      67A      0.584546    68A      0.585982    69A      0.598231
      70A      0.613927    71A      0.621804    72A      0.633434
      73A      0.685595    74A      0.703190    75A      0.710109
      76A      0.717068    77A      0.736109    78A      0.749289
      79A      0.770028    80A      0.774183    81A      0.781262
      82A      0.801633    83A      0.823994    84A      0.833322
      85A      0.851107    86A      0.856968    87A      0.879247
      88A      0.891861    89A      0.901606    90A      0.919819
      91A      0.947896    92A      0.959219    93A      1.002137
      94A      1.017307    95A      1.023954    96A      1.089335
      97A      1.130778    98A      1.158245    99A      1.173452
     100A      1.196561   101A      1.212404   102A      1.216732
     103A      1.231971   104A      1.241766   105A      1.281240
     106A      1.291218   107A      1.312444   108A      1.336481
     109A      1.366917   110A      1.379703   111A      1.394580
     112A      1.479132   113A      1.485373   114A      1.517688
     115A      1.525520   116A      1.549347   117A      1.556500
     118A      1.561066   119A      1.577348   120A      1.588168
     121A      1.660204   122A      1.707298   123A      1.719964
     124A      1.729344   125A      1.740873   126A      1.750607
     127A      1.764691   128A      1.765021   129A      1.777700
     130A      1.795029   131A      1.798052   132A      1.806109
     133A      1.813516   134A      1.826464   135A      1.829826
     136A      1.862527   137A      1.897089   138A      1.937118
     139A      1.942227   140A      1.954662   141A      1.979366
     142A      2.010632   143A      2.024240   144A      2.066357
     145A      2.100602   146A      2.117836   147A      2.133940
     148A      2.178620   149A      2.185528   150A      2.272714
     151A      2.291664   152A      2.296033   153A      2.316177
     154A      2.318803   155A      2.330570   156A      2.344122
     157A      2.365643   158A      2.382975   159A      2.429474
     160A      2.437869   161A      2.451724   162A      2.476542
     163A      2.517173   164A      2.569034   165A      2.584210
     166A      2.591414   167A      2.616996   168A      2.641739
     169A      2.660493   170A      2.676996   171A      2.695064
     172A      2.730469   173A      2.759893   174A      2.784089
     175A      2.814080   176A      2.851088   177A      2.873854
     178A      2.884648   179A      2.948385   180A      2.951985
     181A      2.986022   182A      3.082062   183A      3.127906
     184A      3.157014   185A      3.168115   186A      3.375383
     187A      3.405006   188A      3.600463   189A      3.689653
     190A      3.756262   191A      3.953135

    Final Occupation by Irrep:
              A
    DOCC [    36 ]

  @RHF Final Energy:  -451.60753580929054

   => Energetics <=

    Nuclear Repulsion Energy =            453.6812648988591263
    One-Electron Energy =               -1503.1459111882566049
    Two-Electron Energy =                 597.8571104801069396
    Total Energy =                       -451.6075358092905390

Computation Completed

Properties will be evaluated at   0.000000,   0.000000,   0.000000 [a0]

Properties computed using the SCF density matrix

  Nuclear Dipole Moment: [e a0]
     X:    -1.4684      Y:    -1.2989      Z:     1.4992

  Electronic Dipole Moment: [e a0]
     X:     0.4398      Y:     1.6287      Z:    -1.0258

  Dipole Moment: [e a0]
     X:    -1.0286      Y:     0.3298      Z:     0.4735     Total:     1.1794

  Dipole Moment: [D]
     X:    -2.6146      Y:     0.8382      Z:     1.2034     Total:     2.9978

*** tstop() called on ds3 at Mon Apr 27 13:29:51 2020
Module time:
	user time   =      55.31 seconds =       0.92 minutes
	system time =      29.57 seconds =       0.49 minutes
	total time  =         81 seconds =       1.35 minutes
Total time:
	user time   =      55.31 seconds =       0.92 minutes
	system time =      29.57 seconds =       0.49 minutes
	total time  =         81 seconds =       1.35 minutes
                                     G D M A

                                 by Anthony Stone

                           version 2.2.06, 22 June 2011

               Distributed Multipoles from Gaussian wavefunctions

Starting at 13:29:51 on 27 Apr 2020

Using SCF density matrix from file ./SSI/SSI-121GLN-144ARG-1-dimer.test.6749.fchk

                         Distributed Multipole Analysis

Standard DMA

Positions and radii in angstrom
Multipole moments in atomic units, ea_0^k for rank k

C          x =  3.292282  y = -1.253221  z = -1.543190 angstrom
           Maximum rank =  0   Radius =  0.650 angstrom
                   Q00  =  -0.255781

C          x =  2.204282  y = -0.240221  z = -1.842190 angstrom
           Maximum rank =  0   Radius =  0.650 angstrom
                   Q00  =   0.817955

O          x =  1.300282  y = -0.028221  z = -1.043190 angstrom
           Maximum rank =  0   Radius =  0.650 angstrom
                   Q00  =  -0.868711

N          x =  2.282282  y =  0.402779  z = -2.995190 angstrom
           Maximum rank =  0   Radius =  0.650 angstrom
                   Q00  =  -0.531741

H          x =  3.804282  y = -0.881221  z = -0.661190 angstrom
           Maximum rank =  0   Radius =  0.325 angstrom
                   Q00  =   0.139589

H          x =  4.015282  y = -1.282221  z = -2.361190 angstrom
           Maximum rank =  0   Radius =  0.325 angstrom
                   Q00  =   0.097226

H          x =  1.566282  y =  1.078779  z = -3.217190 angstrom
           Maximum rank =  0   Radius =  0.325 angstrom
                   Q00  =   0.230889

H          x =  3.026282  y =  0.203779  z = -3.649190 angstrom
           Maximum rank =  0   Radius =  0.325 angstrom
                   Q00  =   0.237811

H          x =  2.900612  y = -2.268261  z = -1.381070 angstrom
           Maximum rank =  0   Radius =  0.325 angstrom
                   Q00  =   0.144171

C          x = -3.470719  y =  0.179779  z =  2.582810 angstrom
           Maximum rank =  0   Radius =  0.650 angstrom
                   Q00  =  -0.120339

C          x = -1.397718  y =  0.219779  z =  1.232810 angstrom
           Maximum rank =  0   Radius =  0.650 angstrom
                   Q00  =   1.077346

N          x = -0.099718  y =  0.418779  z =  1.168810 angstrom
           Maximum rank =  0   Radius =  0.650 angstrom
                   Q00  =  -0.640082

N          x = -2.028719  y =  0.373779  z =  2.384810 angstrom
           Maximum rank =  0   Radius =  0.650 angstrom
                   Q00  =  -0.501188

N          x = -2.063718  y = -0.126221  z =  0.148810 angstrom
           Maximum rank =  0   Radius =  0.650 angstrom
                   Q00  =  -0.579029

H          x =  0.415282  y =  0.676779  z =  2.003810 angstrom
           Maximum rank =  0   Radius =  0.325 angstrom
                   Q00  =   0.246341

H          x =  0.383282  y =  0.319779  z =  0.286810 angstrom
           Maximum rank =  0   Radius =  0.325 angstrom
                   Q00  =   0.369772

H          x = -1.491719  y =  0.721779  z =  3.165810 angstrom
           Maximum rank =  0   Radius =  0.325 angstrom
                   Q00  =   0.229960

H          x = -3.063719  y = -0.229221  z =  0.177810 angstrom
           Maximum rank =  0   Radius =  0.325 angstrom
                   Q00  =   0.255163

H          x = -1.580718  y = -0.198221  z = -0.732190 angstrom
           Maximum rank =  0   Radius =  0.325 angstrom
                   Q00  =   0.266973

H          x = -4.028719  y =  0.034779  z =  1.656810 angstrom
           Maximum rank =  0   Radius =  0.325 angstrom
                   Q00  =   0.111219

H          x = -3.860719  y =  1.091779  z =  3.039810 angstrom
           Maximum rank =  0   Radius =  0.325 angstrom
                   Q00  =   0.135784

H          x = -3.664650  y = -0.650421  z =  3.277910 angstrom
           Maximum rank =  0   Radius =  0.325 angstrom
                   Q00  =   0.136671

Total multipoles referred to origin at
           x =   0.000000,  y =    0.000000,  z =    0.000000 angstrom
                   Q00  =   1.000000

Finished at 13:29:51 on 27 Apr 2020

  DMA results are available in the Python driver through the
	  variable('DMA DISTRIBUTED MULTIPOLES')
  and
	  variable('DMA TOTAL MULTIPOLES')
  commands.

    Psi4 stopped on: Monday, 27 April 2020 01:29PM
    Psi4 wall time for execution: 0:01:21.03

*** Psi4 exiting successfully. Buy a developer a beer!
