                               Psi4 1.3.2 release

  ==> Input File <==

--------------------------------------------------------------------------
import numpy as np
set {scf_type pk
basis cc-pvdz
d_convergence 10
gdma_switch   0
gdma_limit    0
gdma_origin   [ 0.0,  0.0,  0.0 ]
}
molecule test {
    units Angstrom
    0 1
    --
    0 1
    C                0.527111861485471    -1.524063622810804     0.621912333554661
    C                0.817111861485471    -3.019063622810804     0.730912333554661
    H                0.696111861485470    -1.039063622810803     1.584912333554661
    H                1.193111861485471    -1.078063622810804    -0.115087666445339
    H               -0.501888138514530    -1.351063622810803     0.306912333554661
    H                0.600111861485470    -3.500063622810803    -0.223087666445339
    H                0.211461861485470    -3.472943622810804     1.529142333554661
    H                1.884171861485471    -3.145593622810803     0.966232333554661
    C               -0.619888138514530     1.671936377189196    -0.208087666445339
    C               -0.723888138514530     2.872936377189197    -1.141087666445339
    H                0.188111861485470     1.817936377189197     0.502912333554661
    H               -1.555888138514530     1.520936377189197     0.326912333554661
    H               -0.403888138514530     0.782936377189197    -0.799087666445339
    H               -1.486888138514529     2.654936377189197    -1.890087666445339
    H                0.240141861485470     3.031596377189196    -1.646527666445339
    H               -1.069998138514529     3.757666377189196    -0.586597666445339

}
e, wfn = energy('scf', return_wfn=True)
gdma(wfn)
dmavals = variable('DMA DISTRIBUTED MULTIPOLES')
charges = np.array(dmavals)
print(charges)
np.save('SSI-023THR-085ALA-1-dimer.npy', np.array(charges))--------------------------------------------------------------------------

*** tstart() called on ds3
*** at Tue Apr 28 16:36:12 2020

   => Loading Basis Set <=

    Name: CC-PVDZ
    Role: ORBITAL
    Keyword: BASIS
    atoms 1-2, 9-10  entry C          line   138 file /theoryfs2/ds/metcalf/miniconda2/envs/tf2gpu/share/psi4/basis/cc-pvdz.gbs
    atoms 3-8, 11-16 entry H          line    22 file /theoryfs2/ds/metcalf/miniconda2/envs/tf2gpu/share/psi4/basis/cc-pvdz.gbs

         ---------------------------------------------------------
                                   SCF
               by Justin Turney, Rob Parrish, Andy Simmonett
                          and Daniel G. A. Smith
                              RHF Reference
                        1 Threads,    500 MiB Core
         ---------------------------------------------------------

  ==> Geometry <==

    Molecular point group: c1
    Full point group: C1

    Geometry (in Angstrom), charge = 0, multiplicity = 1:

       Center              X                  Y                   Z               Mass
    ------------   -----------------  -----------------  -----------------  -----------------
         C            0.527111861485    -1.524063622811     0.621912333555    12.000000000000
         C            0.817111861485    -3.019063622811     0.730912333555    12.000000000000
         H            0.696111861485    -1.039063622811     1.584912333555     1.007825032230
         H            1.193111861485    -1.078063622811    -0.115087666445     1.007825032230
         H           -0.501888138515    -1.351063622811     0.306912333555     1.007825032230
         H            0.600111861485    -3.500063622811    -0.223087666445     1.007825032230
         H            0.211461861485    -3.472943622811     1.529142333555     1.007825032230
         H            1.884171861485    -3.145593622811     0.966232333555     1.007825032230
         C           -0.619888138515     1.671936377189    -0.208087666445    12.000000000000
         C           -0.723888138515     2.872936377189    -1.141087666445    12.000000000000
         H            0.188111861485     1.817936377189     0.502912333555     1.007825032230
         H           -1.555888138515     1.520936377189     0.326912333555     1.007825032230
         H           -0.403888138515     0.782936377189    -0.799087666445     1.007825032230
         H           -1.486888138515     2.654936377189    -1.890087666445     1.007825032230
         H            0.240141861485     3.031596377189    -1.646527666445     1.007825032230
         H           -1.069998138515     3.757666377189    -0.586597666445     1.007825032230

  Running in c1 symmetry.

  Rotational constants: A =      1.00844  B =      0.04104  C =      0.04073 [cm^-1]
  Rotational constants: A =  30232.29450  B =   1230.49703  C =   1221.11187 [MHz]
  Nuclear repulsion =  121.108315431441298

  Charge       = 0
  Multiplicity = 1
  Electrons    = 36
  Nalpha       = 18
  Nbeta        = 18

  ==> Algorithm <==

  SCF Algorithm Type is PK.
  DIIS enabled.
  MOM disabled.
  Fractional occupation disabled.
  Guess Type is SAD.
  Energy threshold   = 1.00e-06
  Density threshold  = 1.00e-10
  Integral threshold = 0.00e+00

  ==> Primary Basis <==

  Basis Set: CC-PVDZ
    Blend: CC-PVDZ
    Number of shells: 60
    Number of basis function: 116
    Number of Cartesian functions: 120
    Spherical Harmonics?: true
    Max angular momentum: 2

  ==> Pre-Iterations <==

   -------------------------------------------------------
    Irrep   Nso     Nmo     Nalpha   Nbeta   Ndocc  Nsocc
   -------------------------------------------------------
     A        116     116       0       0       0       0
   -------------------------------------------------------
    Total     116     116      18      18      18       0
   -------------------------------------------------------

  ==> Integral Setup <==

  Using integral reordering PK algorithm.
  Sizing the integral batches needed.
  Building batch lookup table.
   Calculation information:
      Number of atoms:                  16
      Number of AO shells:              60
      Number of primitives:            148
      Number of atomic orbitals:       120
      Number of basis functions:       116

      Integral cutoff                 1.00e-12
      Number of threads:                 1

	Batch   1 pq = [       0,    6786] index = [             0,23028291] size =     23028291
  Task number: 3
  Buffer size: 11059200
  Buffer per thread: 2
  We computed 1362819 shell quartets total.
  Whereas there are 1675365 unique shell quartets.

  ==> DiskJK: Disk-Based J/K Matrices <==

    J tasked:                  Yes
    K tasked:                  Yes
    wK tasked:                  No
    Memory [MiB]:              375
    Schwarz Cutoff:          1E-12

    OpenMP threads:              1

  Minimum eigenvalue in the overlap matrix is 5.6151977417E-03.
  Using Symmetric Orthogonalization.

  SCF Guess: Superposition of Atomic Densities via on-the-fly atomic UHF.

  ==> Iterations <==

                        Total Energy        Delta E     RMS |[F,P]|

   @RHF iter SAD:  -157.37161396121184   -1.57372e+02   0.00000e+00
   @RHF iter   1:  -158.30555730973037   -9.33943e-01   4.22570e-03 DIIS
   @RHF iter   2:  -158.44000558045212   -1.34448e-01   1.79404e-03 DIIS
   @RHF iter   3:  -158.46337937165038   -2.33738e-02   3.51625e-04 DIIS
   @RHF iter   4:  -158.46522835559963   -1.84898e-03   3.94883e-05 DIIS
   @RHF iter   5:  -158.46525266408389   -2.43085e-05   7.19568e-06 DIIS
   @RHF iter   6:  -158.46525338716950   -7.23086e-07   1.40653e-06 DIIS
   @RHF iter   7:  -158.46525340507134   -1.79018e-08   3.20851e-07 DIIS
   @RHF iter   8:  -158.46525340608525   -1.01392e-09   3.78839e-08 DIIS
   @RHF iter   9:  -158.46525340610901   -2.37605e-11   6.27438e-09 DIIS
   @RHF iter  10:  -158.46525340610933   -3.12639e-13   1.55269e-09 DIIS
   @RHF iter  11:  -158.46525340610933    0.00000e+00   3.42044e-10 DIIS
   @RHF iter  12:  -158.46525340610941   -8.52651e-14   8.73186e-11 DIIS
  Energy and wave function converged.

  ==> Post-Iterations <==

    Orbital Energies [Eh]
    ---------------------

    Doubly Occupied:

       1A    -11.218502     2A    -11.217855     3A    -11.215347
       4A    -11.213498     5A     -1.019794     6A     -1.016960
       7A     -0.839594     8A     -0.830179     9A     -0.602259
      10A     -0.599889    11A     -0.596777    12A     -0.593512
      13A     -0.506680    14A     -0.493440    15A     -0.489028
      16A     -0.485930    17A     -0.483455    18A     -0.476455

    Virtual:

      19A      0.177217    20A      0.194388    21A      0.222805
      22A      0.240214    23A      0.243919    24A      0.261313
      25A      0.267745    26A      0.278262    27A      0.282033
      28A      0.291655    29A      0.299369    30A      0.312711
      31A      0.371126    32A      0.424075    33A      0.562824
      34A      0.594889    35A      0.599480    36A      0.605505
      37A      0.608337    38A      0.658222    39A      0.667121
      40A      0.695476    41A      0.711705    42A      0.759231
      43A      0.841794    44A      0.884592    45A      0.892291
      46A      0.893950    47A      0.895054    48A      0.897235
      49A      0.903428    50A      0.912321    51A      0.915839
      52A      0.918675    53A      0.927423    54A      0.951662
      55A      0.970436    56A      1.001485    57A      1.126633
      58A      1.129438    59A      1.135861    60A      1.157071
      61A      1.212553    62A      1.281857    63A      1.467555
      64A      1.476621    65A      1.484563    66A      1.491370
      67A      1.580328    68A      1.586171    69A      1.676338
      70A      1.678529    71A      1.692931    72A      1.697493
      73A      1.843879    74A      1.857057    75A      1.874866
      76A      1.888417    77A      1.899722    78A      1.932563
      79A      1.937064    80A      1.940506    81A      1.945752
      82A      1.949966    83A      1.953478    84A      1.959479
      85A      1.964738    86A      1.969139    87A      2.002702
      88A      2.075520    89A      2.099377    90A      2.110646
      91A      2.115038    92A      2.125448    93A      2.296235
      94A      2.305769    95A      2.309948    96A      2.370447
      97A      2.441997    98A      2.456520    99A      2.466801
     100A      2.488604   101A      2.564264   102A      2.571889
     103A      2.574017   104A      2.580654   105A      2.757777
     106A      2.768012   107A      2.786730   108A      2.803726
     109A      2.840785   110A      2.844476   111A      2.851458
     112A      2.861335   113A      2.934877   114A      2.947034
     115A      2.959754   116A      2.976798

    Final Occupation by Irrep:
              A
    DOCC [    18 ]

  @RHF Final Energy:  -158.46525340610941

   => Energetics <=

    Nuclear Repulsion Energy =            121.1083154314412980
    One-Electron Energy =                -451.3488262619432589
    Two-Electron Energy =                 171.7752574243925778
    Total Energy =                       -158.4652534061094116

Computation Completed

Properties will be evaluated at   0.000000,   0.000000,   0.000000 [a0]

Properties computed using the SCF density matrix

  Nuclear Dipole Moment: [e a0]
     X:    -0.0050      Y:    -0.0195      Z:    -0.0407

  Electronic Dipole Moment: [e a0]
     X:     0.0005      Y:     0.0074      Z:     0.0376

  Dipole Moment: [e a0]
     X:    -0.0045      Y:    -0.0121      Z:    -0.0032     Total:     0.0133

  Dipole Moment: [D]
     X:    -0.0114      Y:    -0.0308      Z:    -0.0081     Total:     0.0338

*** tstop() called on ds3 at Tue Apr 28 16:36:22 2020
Module time:
	user time   =       6.70 seconds =       0.11 minutes
	system time =       2.81 seconds =       0.05 minutes
	total time  =         10 seconds =       0.17 minutes
Total time:
	user time   =       6.70 seconds =       0.11 minutes
	system time =       2.81 seconds =       0.05 minutes
	total time  =         10 seconds =       0.17 minutes
                                     G D M A

                                 by Anthony Stone

                           version 2.2.06, 22 June 2011

               Distributed Multipoles from Gaussian wavefunctions

Starting at 16:36:22 on 28 Apr 2020

Using SCF density matrix from file ./SSI/SSI-023THR-085ALA-1-dimer.test.15199.fchk

                         Distributed Multipole Analysis

Standard DMA

Positions and radii in angstrom
Multipole moments in atomic units, ea_0^k for rank k

C          x =  0.527112  y = -1.524064  z =  0.621912 angstrom
           Maximum rank =  0   Radius =  0.650 angstrom
                   Q00  =  -0.233287

C          x =  0.817112  y = -3.019064  z =  0.730912 angstrom
           Maximum rank =  0   Radius =  0.650 angstrom
                   Q00  =  -0.236480

H          x =  0.696112  y = -1.039064  z =  1.584912 angstrom
           Maximum rank =  0   Radius =  0.325 angstrom
                   Q00  =   0.079774

H          x =  1.193112  y = -1.078064  z = -0.115088 angstrom
           Maximum rank =  0   Radius =  0.325 angstrom
                   Q00  =   0.075843

H          x = -0.501888  y = -1.351064  z =  0.306912 angstrom
           Maximum rank =  0   Radius =  0.325 angstrom
                   Q00  =   0.077611

H          x =  0.600112  y = -3.500064  z = -0.223088 angstrom
           Maximum rank =  0   Radius =  0.325 angstrom
                   Q00  =   0.080036

H          x =  0.211462  y = -3.472944  z =  1.529142 angstrom
           Maximum rank =  0   Radius =  0.325 angstrom
                   Q00  =   0.079861

H          x =  1.884172  y = -3.145594  z =  0.966232 angstrom
           Maximum rank =  0   Radius =  0.325 angstrom
                   Q00  =   0.076826

C          x = -0.619888  y =  1.671936  z = -0.208088 angstrom
           Maximum rank =  0   Radius =  0.650 angstrom
                   Q00  =  -0.234381

C          x = -0.723888  y =  2.872936  z = -1.141088 angstrom
           Maximum rank =  0   Radius =  0.650 angstrom
                   Q00  =  -0.234782

H          x =  0.188112  y =  1.817936  z =  0.502912 angstrom
           Maximum rank =  0   Radius =  0.325 angstrom
                   Q00  =   0.078259

H          x = -1.555888  y =  1.520936  z =  0.326912 angstrom
           Maximum rank =  0   Radius =  0.325 angstrom
                   Q00  =   0.078835

H          x = -0.403888  y =  0.782936  z = -0.799088 angstrom
           Maximum rank =  0   Radius =  0.325 angstrom
                   Q00  =   0.077834

H          x = -1.486888  y =  2.654936  z = -1.890088 angstrom
           Maximum rank =  0   Radius =  0.325 angstrom
                   Q00  =   0.075586

H          x =  0.240142  y =  3.031596  z = -1.646528 angstrom
           Maximum rank =  0   Radius =  0.325 angstrom
                   Q00  =   0.079992

H          x = -1.069998  y =  3.757666  z = -0.586598 angstrom
           Maximum rank =  0   Radius =  0.325 angstrom
                   Q00  =   0.078472

Total multipoles referred to origin at
           x =   0.000000,  y =    0.000000,  z =    0.000000 angstrom
                   Q00  =  -0.000000

Finished at 16:36:22 on 28 Apr 2020

  DMA results are available in the Python driver through the
	  variable('DMA DISTRIBUTED MULTIPOLES')
  and
	  variable('DMA TOTAL MULTIPOLES')
  commands.

    Psi4 stopped on: Tuesday, 28 April 2020 04:36PM
    Psi4 wall time for execution: 0:00:09.42

*** Psi4 exiting successfully. Buy a developer a beer!
