                               Psi4 1.3.2 release

  ==> Input File <==

--------------------------------------------------------------------------
import numpy as np
set {scf_type pk
basis cc-pvdz
d_convergence 10
gdma_switch   0
gdma_limit    0
gdma_origin   [ 0.0,  0.0,  0.0 ]
}
molecule test {
    units Angstrom
    0 1
    --
    0 1
    C                0.853709641744564     1.396298223307918     0.395022220240377
    C                2.152709641744563     2.036298223307918    -0.021977779759623
    C                0.671709641744563     1.412298223307918     1.917022220240377
    H                0.010709641744564     1.889298223307918    -0.085977779759623
    H                0.876709641744563     0.357298223307918     0.073022220240377
    H                2.950709641744564     1.595298223307918     0.582022220240377
    H                2.124709641744563     3.103298223307918     0.200022220240377
    H                1.555709641744564     0.973298223307918     2.383022220240377
    H                0.541709641744563     2.439298223307918     2.265022220240377
    H                2.407089641744564     1.875148223307918    -1.079957779759623
    H               -0.220360358255436     0.814578223307918     2.155662220240377
    C               -1.193290358255436    -1.253701776692082    -1.216977779759623
    C               -0.486290358255436    -2.597701776692082    -1.051977779759623
    O               -1.761290358255436    -0.835701776692082     0.000022220240377
    H               -0.480290358255436    -0.505701776692082    -1.562977779759623
    H               -1.978290358255437    -1.345701776692082    -1.966977779759623
    H               -0.099290358255436    -2.867701776692082    -2.035977779759623
    H               -2.724290358255436    -0.985701776692082    -0.070977779759623
    H               -1.187710358255436    -3.381731776692082    -0.730557779759623
    H                0.379469641744563    -2.527111776692082    -0.377087779759623

}
e, wfn = energy('scf', return_wfn=True)
gdma(wfn)
dmavals = variable('DMA DISTRIBUTED MULTIPOLES')
charges = np.array(dmavals)
print(charges)
np.save('SSI-074ARG-135SER-1-dimer.npy', np.array(charges))--------------------------------------------------------------------------

*** tstart() called on ds3
*** at Mon Apr 27 19:25:10 2020

   => Loading Basis Set <=

    Name: CC-PVDZ
    Role: ORBITAL
    Keyword: BASIS
    atoms 1-3, 12-13  entry C          line   138 file /theoryfs2/ds/metcalf/miniconda2/envs/tf2gpu/share/psi4/basis/cc-pvdz.gbs
    atoms 4-11, 15-20 entry H          line    22 file /theoryfs2/ds/metcalf/miniconda2/envs/tf2gpu/share/psi4/basis/cc-pvdz.gbs
    atoms 14          entry O          line   198 file /theoryfs2/ds/metcalf/miniconda2/envs/tf2gpu/share/psi4/basis/cc-pvdz.gbs

         ---------------------------------------------------------
                                   SCF
               by Justin Turney, Rob Parrish, Andy Simmonett
                          and Daniel G. A. Smith
                              RHF Reference
                        1 Threads,    500 MiB Core
         ---------------------------------------------------------

  ==> Geometry <==

    Molecular point group: c1
    Full point group: C1

    Geometry (in Angstrom), charge = 0, multiplicity = 1:

       Center              X                  Y                   Z               Mass
    ------------   -----------------  -----------------  -----------------  -----------------
         C            0.853709641745     1.396298223308     0.395022220240    12.000000000000
         C            2.152709641745     2.036298223308    -0.021977779760    12.000000000000
         C            0.671709641745     1.412298223308     1.917022220240    12.000000000000
         H            0.010709641745     1.889298223308    -0.085977779760     1.007825032230
         H            0.876709641745     0.357298223308     0.073022220240     1.007825032230
         H            2.950709641745     1.595298223308     0.582022220240     1.007825032230
         H            2.124709641745     3.103298223308     0.200022220240     1.007825032230
         H            1.555709641745     0.973298223308     2.383022220240     1.007825032230
         H            0.541709641745     2.439298223308     2.265022220240     1.007825032230
         H            2.407089641745     1.875148223308    -1.079957779760     1.007825032230
         H           -0.220360358255     0.814578223308     2.155662220240     1.007825032230
         C           -1.193290358255    -1.253701776692    -1.216977779760    12.000000000000
         C           -0.486290358255    -2.597701776692    -1.051977779760    12.000000000000
         O           -1.761290358255    -0.835701776692     0.000022220240    15.994914619570
         H           -0.480290358255    -0.505701776692    -1.562977779760     1.007825032230
         H           -1.978290358255    -1.345701776692    -1.966977779760     1.007825032230
         H           -0.099290358255    -2.867701776692    -2.035977779760     1.007825032230
         H           -2.724290358255    -0.985701776692    -0.070977779760     1.007825032230
         H           -1.187710358255    -3.381731776692    -0.730557779760     1.007825032230
         H            0.379469641745    -2.527111776692    -0.377087779760     1.007825032230

  Running in c1 symmetry.

  Rotational constants: A =      0.15066  B =      0.03630  C =      0.03278 [cm^-1]
  Rotational constants: A =   4516.76408  B =   1088.36686  C =    982.75242 [MHz]
  Nuclear repulsion =  245.225866187947872

  Charge       = 0
  Multiplicity = 1
  Electrons    = 52
  Nalpha       = 26
  Nbeta        = 26

  ==> Algorithm <==

  SCF Algorithm Type is PK.
  DIIS enabled.
  MOM disabled.
  Fractional occupation disabled.
  Guess Type is SAD.
  Energy threshold   = 1.00e-06
  Density threshold  = 1.00e-10
  Integral threshold = 0.00e+00

  ==> Primary Basis <==

  Basis Set: CC-PVDZ
    Blend: CC-PVDZ
    Number of shells: 78
    Number of basis function: 154
    Number of Cartesian functions: 160
    Spherical Harmonics?: true
    Max angular momentum: 2

  ==> Pre-Iterations <==

   -------------------------------------------------------
    Irrep   Nso     Nmo     Nalpha   Nbeta   Ndocc  Nsocc
   -------------------------------------------------------
     A        154     154       0       0       0       0
   -------------------------------------------------------
    Total     154     154      26      26      26       0
   -------------------------------------------------------

  ==> Integral Setup <==

  Using integral reordering PK algorithm.
  Sizing the integral batches needed.
  Building batch lookup table.
   Calculation information:
      Number of atoms:                  20
      Number of AO shells:              78
      Number of primitives:            202
      Number of atomic orbitals:       160
      Number of basis functions:       154

      Integral cutoff                 1.00e-12
      Number of threads:                 1

	Batch   1 pq = [       0,    9405] index = [             0,44231715] size =     44231715
	Batch   2 pq = [    9405,   11935] index = [      44231715,71228080] size =     26996365
  Task number: 7
  Buffer size: 11059200
  Buffer per thread: 2
  We computed 4057510 shell quartets total.
  Whereas there are 4747821 unique shell quartets.

  ==> DiskJK: Disk-Based J/K Matrices <==

    J tasked:                  Yes
    K tasked:                  Yes
    wK tasked:                  No
    Memory [MiB]:              375
    Schwarz Cutoff:          1E-12

    OpenMP threads:              1

  Minimum eigenvalue in the overlap matrix is 5.1889873349E-03.
  Using Symmetric Orthogonalization.

  SCF Guess: Superposition of Atomic Densities via on-the-fly atomic UHF.

  ==> Iterations <==

                        Total Energy        Delta E     RMS |[F,P]|

   @RHF iter SAD:  -271.14454798545421   -2.71145e+02   0.00000e+00
   @RHF iter   1:  -272.14024822828134   -9.95700e-01   3.85550e-03 DIIS
   @RHF iter   2:  -272.31948652281699   -1.79238e-01   1.81124e-03 DIIS
   @RHF iter   3:  -272.35497272805912   -3.54862e-02   3.54213e-04 DIIS
   @RHF iter   4:  -272.35749364726740   -2.52092e-03   1.10911e-04 DIIS
   @RHF iter   5:  -272.35765172758306   -1.58080e-04   2.26215e-05 DIIS
   @RHF iter   6:  -272.35766115190336   -9.42432e-06   4.79559e-06 DIIS
   @RHF iter   7:  -272.35766165954840   -5.07645e-07   1.28483e-06 DIIS
   @RHF iter   8:  -272.35766169545701   -3.59086e-08   3.83925e-07 DIIS
   @RHF iter   9:  -272.35766169976318   -4.30617e-09   9.37624e-08 DIIS
   @RHF iter  10:  -272.35766170007111   -3.07921e-10   2.30625e-08 DIIS
   @RHF iter  11:  -272.35766170008765   -1.65414e-11   6.79840e-09 DIIS
   @RHF iter  12:  -272.35766170008952   -1.87583e-12   2.35998e-09 DIIS
   @RHF iter  13:  -272.35766170009038   -8.52651e-13   6.40189e-10 DIIS
   @RHF iter  14:  -272.35766170008941    9.66338e-13   1.74103e-10 DIIS
   @RHF iter  15:  -272.35766170009026   -8.52651e-13   6.87219e-11 DIIS
  Energy and wave function converged.

  ==> Post-Iterations <==

    Orbital Energies [Eh]
    ---------------------

    Doubly Occupied:

       1A    -20.551536     2A    -11.275297     3A    -11.220623
       4A    -11.207651     5A    -11.206768     6A    -11.205349
       7A     -1.356195     8A     -1.048302     9A     -1.007070
      10A     -0.913985    11A     -0.836495    12A     -0.786645
      13A     -0.695703    14A     -0.631826    15A     -0.619861
      16A     -0.587542    17A     -0.571951    18A     -0.553110
      19A     -0.538299    20A     -0.521565    21A     -0.520128
      22A     -0.476753    23A     -0.465362    24A     -0.458471
      25A     -0.456057    26A     -0.432040

    Virtual:

      27A      0.167944    28A      0.191480    29A      0.210049
      30A      0.220051    31A      0.240744    32A      0.243382
      33A      0.254168    34A      0.268004    35A      0.274321
      36A      0.279174    37A      0.307119    38A      0.311080
      39A      0.318779    40A      0.337402    41A      0.377701
      42A      0.392111    43A      0.412634    44A      0.441129
      45A      0.587006    46A      0.607484    47A      0.614503
      48A      0.616522    49A      0.623253    50A      0.633986
      51A      0.663025    52A      0.666841    53A      0.758324
      54A      0.788709    55A      0.804529    56A      0.812070
      57A      0.820170    58A      0.857981    59A      0.864658
      60A      0.881836    61A      0.891086    62A      0.897267
      63A      0.899573    64A      0.903394    65A      0.911202
      66A      0.912237    67A      0.917838    68A      0.922307
      69A      0.934662    70A      0.943024    71A      0.964604
      72A      0.977227    73A      1.041310    74A      1.129847
      75A      1.135097    76A      1.136489    77A      1.176586
      78A      1.189739    79A      1.226827    80A      1.297130
      81A      1.334334    82A      1.356086    83A      1.421997
      84A      1.459994    85A      1.484793    86A      1.493856
      87A      1.526447    88A      1.574785    89A      1.606496
      90A      1.635343    91A      1.669619    92A      1.679467
      93A      1.690427    94A      1.701874    95A      1.719744
      96A      1.744745    97A      1.834129    98A      1.866195
      99A      1.873809   100A      1.886636   101A      1.889713
     102A      1.904754   103A      1.917154   104A      1.936410
     105A      1.942983   106A      1.944258   107A      1.965024
     108A      1.971193   109A      1.986486   110A      1.987690
     111A      1.999680   112A      2.011476   113A      2.025327
     114A      2.036787   115A      2.059116   116A      2.064408
     117A      2.087627   118A      2.147505   119A      2.165696
     120A      2.174420   121A      2.275899   122A      2.294131
     123A      2.303233   124A      2.329108   125A      2.337139
     126A      2.363235   127A      2.369056   128A      2.429028
     129A      2.497904   130A      2.524294   131A      2.529998
     132A      2.546950   133A      2.550668   134A      2.590151
     135A      2.634600   136A      2.647325   137A      2.757082
     138A      2.768549   139A      2.773770   140A      2.781104
     141A      2.795218   142A      2.820289   143A      2.827741
     144A      2.889545   145A      2.909085   146A      2.933117
     147A      2.974444   148A      2.988993   149A      3.092588
     150A      3.322396   151A      3.406877   152A      3.495192
     153A      3.632320   154A      4.091373

    Final Occupation by Irrep:
              A
    DOCC [    26 ]

  @RHF Final Energy:  -272.35766170009026

   => Energetics <=

    Nuclear Repulsion Energy =            245.2258661879478723
    One-Electron Energy =                -854.8778894167960516
    Two-Electron Energy =                 337.2943615287579178
    Total Energy =                       -272.3576617000902615

Computation Completed

Properties will be evaluated at   0.000000,   0.000000,   0.000000 [a0]

Properties computed using the SCF density matrix

  Nuclear Dipole Moment: [e a0]
     X:     3.8882      Y:     1.3402      Z:    -0.2360

  Electronic Dipole Moment: [e a0]
     X:    -4.3761      Y:    -1.6723      Z:    -0.3163

  Dipole Moment: [e a0]
     X:    -0.4879      Y:    -0.3321      Z:    -0.5522     Total:     0.8083

  Dipole Moment: [D]
     X:    -1.2401      Y:    -0.8442      Z:    -1.4037     Total:     2.0545

*** tstop() called on ds3 at Mon Apr 27 19:25:42 2020
Module time:
	user time   =      23.73 seconds =       0.40 minutes
	system time =       9.11 seconds =       0.15 minutes
	total time  =         32 seconds =       0.53 minutes
Total time:
	user time   =      23.73 seconds =       0.40 minutes
	system time =       9.11 seconds =       0.15 minutes
	total time  =         32 seconds =       0.53 minutes
                                     G D M A

                                 by Anthony Stone

                           version 2.2.06, 22 June 2011

               Distributed Multipoles from Gaussian wavefunctions

Starting at 19:25:42 on 27 Apr 2020

Using SCF density matrix from file ./SSI/SSI-074ARG-135SER-1-dimer.test.6138.fchk

                         Distributed Multipole Analysis

Standard DMA

Positions and radii in angstrom
Multipole moments in atomic units, ea_0^k for rank k

C          x =  0.853710  y =  1.396298  z =  0.395022 angstrom
           Maximum rank =  0   Radius =  0.650 angstrom
                   Q00  =  -0.068175

C          x =  2.152710  y =  2.036298  z = -0.021978 angstrom
           Maximum rank =  0   Radius =  0.650 angstrom
                   Q00  =  -0.234347

C          x =  0.671710  y =  1.412298  z =  1.917022 angstrom
           Maximum rank =  0   Radius =  0.650 angstrom
                   Q00  =  -0.240899

H          x =  0.010710  y =  1.889298  z = -0.085978 angstrom
           Maximum rank =  0   Radius =  0.325 angstrom
                   Q00  =   0.047294

H          x =  0.876710  y =  0.357298  z =  0.073022 angstrom
           Maximum rank =  0   Radius =  0.325 angstrom
                   Q00  =   0.038793

H          x =  2.950710  y =  1.595298  z =  0.582022 angstrom
           Maximum rank =  0   Radius =  0.325 angstrom
                   Q00  =   0.068224

H          x =  2.124710  y =  3.103298  z =  0.200022 angstrom
           Maximum rank =  0   Radius =  0.325 angstrom
                   Q00  =   0.072884

H          x =  1.555710  y =  0.973298  z =  2.383022 angstrom
           Maximum rank =  0   Radius =  0.325 angstrom
                   Q00  =   0.071600

H          x =  0.541710  y =  2.439298  z =  2.265022 angstrom
           Maximum rank =  0   Radius =  0.325 angstrom
                   Q00  =   0.071947

H          x =  2.407090  y =  1.875148  z = -1.079958 angstrom
           Maximum rank =  0   Radius =  0.325 angstrom
                   Q00  =   0.077867

H          x = -0.220360  y =  0.814578  z =  2.155662 angstrom
           Maximum rank =  0   Radius =  0.325 angstrom
                   Q00  =   0.092642

C          x = -1.193290  y = -1.253702  z = -1.216978 angstrom
           Maximum rank =  0   Radius =  0.650 angstrom
                   Q00  =   0.127837

C          x = -0.486290  y = -2.597702  z = -1.051978 angstrom
           Maximum rank =  0   Radius =  0.650 angstrom
                   Q00  =  -0.267283

O          x = -1.761290  y = -0.835702  z =  0.000022 angstrom
           Maximum rank =  0   Radius =  0.650 angstrom
                   Q00  =  -0.612045

H          x = -0.480290  y = -0.505702  z = -1.562978 angstrom
           Maximum rank =  0   Radius =  0.325 angstrom
                   Q00  =   0.063411

H          x = -1.978290  y = -1.345702  z = -1.966978 angstrom
           Maximum rank =  0   Radius =  0.325 angstrom
                   Q00  =   0.036429

H          x = -0.099290  y = -2.867702  z = -2.035978 angstrom
           Maximum rank =  0   Radius =  0.325 angstrom
                   Q00  =   0.073890

H          x = -2.724290  y = -0.985702  z = -0.070978 angstrom
           Maximum rank =  0   Radius =  0.325 angstrom
                   Q00  =   0.399528

H          x = -1.187710  y = -3.381732  z = -0.730558 angstrom
           Maximum rank =  0   Radius =  0.325 angstrom
                   Q00  =   0.084942

H          x =  0.379470  y = -2.527112  z = -0.377088 angstrom
           Maximum rank =  0   Radius =  0.325 angstrom
                   Q00  =   0.095461

Total multipoles referred to origin at
           x =   0.000000,  y =    0.000000,  z =    0.000000 angstrom
                   Q00  =  -0.000000

Finished at 19:25:42 on 27 Apr 2020

  DMA results are available in the Python driver through the
	  variable('DMA DISTRIBUTED MULTIPOLES')
  and
	  variable('DMA TOTAL MULTIPOLES')
  commands.

    Psi4 stopped on: Monday, 27 April 2020 07:25PM
    Psi4 wall time for execution: 0:00:33.01

*** Psi4 exiting successfully. Buy a developer a beer!
