                               Psi4 1.3.2 release

  ==> Input File <==

--------------------------------------------------------------------------
import numpy as np
set {scf_type pk
basis cc-pvdz
d_convergence 10
gdma_switch   0
gdma_limit    0
gdma_origin   [ 0.0,  0.0,  0.0 ]
}
molecule test {
    units Angstrom
    -1 1
    --
    -1 1
    C               -1.086587930493554    -4.152887030352521    -0.710891289776076
    C                0.375412069506446    -0.672887030352521    -0.557891289776075
    C               -0.387587930493554    -1.663887030352522    -1.226891289776075
    C               -0.402587930493554    -2.831887030352522    -0.392891289776075
    C                0.315412069506446    -2.496887030352522     0.740108710223925
    C                0.570412069506446     0.593112969647479    -1.093891289776075
    C                0.027412069506446     0.867112969647479    -2.348891289776075
    C               -0.714587930493554    -0.091887030352521    -3.031891289776075
    C               -0.919587930493554    -1.359887030352521    -2.496891289776075
    N                0.780412069506446    -1.204887030352521     0.639108710223924
    H                1.155412069506446     1.334112969647478    -0.570891289776075
    H                0.182412069506446     1.841112969647479    -2.796891289776075
    H                1.294412069506446    -0.712887030352521     1.366108710223925
    H               -1.127587930493554     0.147112969647479    -4.003891289776075
    H                0.481412069506446    -3.138887030352521     1.597108710223925
    H               -1.492587930493554    -2.098887030352522    -3.038891289776075
    H               -1.422587930493554    -4.097887030352521    -1.745891289776075
    H               -1.973587930493554    -4.253887030352522    -0.085891289776075
    H               -0.431797930493554    -5.030718030352522    -0.607621289776076
    C               -0.730587930493554     2.034112969647478     2.140108710223925
    C               -1.577587930493554     3.012112969647479     1.301108710223925
    C                0.797412069506446     2.246112969647479     1.964108710223925
    O                1.236412069506446     3.291112969647478     1.401108710223925
    O                1.549412069506446     1.344112969647479     2.426108710223925
    H               -0.981587930493554     2.157112969647478     3.196108710223925
    H               -0.978587930493554     1.012112969647478     1.849108710223925
    H               -1.296587930493554     2.915112969647479     0.252108710223925
    H               -1.352587930493554     4.031112969647479     1.621108710223925
    H               -2.663667930493554     2.862902969647479     1.391498710223925

}
e, wfn = energy('scf', return_wfn=True)
gdma(wfn)
dmavals = variable('DMA DISTRIBUTED MULTIPOLES')
charges = np.array(dmavals)
print(charges)
np.save('SSI-030TRP-212GLU-1-dimer.npy', np.array(charges))--------------------------------------------------------------------------

*** tstart() called on ds3
*** at Tue Apr 28 16:00:03 2020

   => Loading Basis Set <=

    Name: CC-PVDZ
    Role: ORBITAL
    Keyword: BASIS
    atoms 1-9, 20-22   entry C          line   138 file /theoryfs2/ds/metcalf/miniconda2/envs/tf2gpu/share/psi4/basis/cc-pvdz.gbs
    atoms 10           entry N          line   168 file /theoryfs2/ds/metcalf/miniconda2/envs/tf2gpu/share/psi4/basis/cc-pvdz.gbs
    atoms 11-19, 25-29 entry H          line    22 file /theoryfs2/ds/metcalf/miniconda2/envs/tf2gpu/share/psi4/basis/cc-pvdz.gbs
    atoms 23-24        entry O          line   198 file /theoryfs2/ds/metcalf/miniconda2/envs/tf2gpu/share/psi4/basis/cc-pvdz.gbs

         ---------------------------------------------------------
                                   SCF
               by Justin Turney, Rob Parrish, Andy Simmonett
                          and Daniel G. A. Smith
                              RHF Reference
                        1 Threads,    500 MiB Core
         ---------------------------------------------------------

  ==> Geometry <==

    Molecular point group: c1
    Full point group: C1

    Geometry (in Angstrom), charge = -1, multiplicity = 1:

       Center              X                  Y                   Z               Mass
    ------------   -----------------  -----------------  -----------------  -----------------
         C           -1.086587930494    -4.152887030353    -0.710891289776    12.000000000000
         C            0.375412069506    -0.672887030353    -0.557891289776    12.000000000000
         C           -0.387587930494    -1.663887030353    -1.226891289776    12.000000000000
         C           -0.402587930494    -2.831887030353    -0.392891289776    12.000000000000
         C            0.315412069506    -2.496887030353     0.740108710224    12.000000000000
         C            0.570412069506     0.593112969647    -1.093891289776    12.000000000000
         C            0.027412069506     0.867112969647    -2.348891289776    12.000000000000
         C           -0.714587930494    -0.091887030353    -3.031891289776    12.000000000000
         C           -0.919587930494    -1.359887030353    -2.496891289776    12.000000000000
         N            0.780412069506    -1.204887030353     0.639108710224    14.003074004430
         H            1.155412069506     1.334112969647    -0.570891289776     1.007825032230
         H            0.182412069506     1.841112969647    -2.796891289776     1.007825032230
         H            1.294412069506    -0.712887030353     1.366108710224     1.007825032230
         H           -1.127587930494     0.147112969647    -4.003891289776     1.007825032230
         H            0.481412069506    -3.138887030353     1.597108710224     1.007825032230
         H           -1.492587930494    -2.098887030353    -3.038891289776     1.007825032230
         H           -1.422587930494    -4.097887030353    -1.745891289776     1.007825032230
         H           -1.973587930494    -4.253887030353    -0.085891289776     1.007825032230
         H           -0.431797930494    -5.030718030353    -0.607621289776     1.007825032230
         C           -0.730587930494     2.034112969647     2.140108710224    12.000000000000
         C           -1.577587930494     3.012112969647     1.301108710224    12.000000000000
         C            0.797412069506     2.246112969647     1.964108710224    12.000000000000
         O            1.236412069506     3.291112969647     1.401108710224    15.994914619570
         O            1.549412069506     1.344112969647     2.426108710224    15.994914619570
         H           -0.981587930494     2.157112969647     3.196108710224     1.007825032230
         H           -0.978587930494     1.012112969647     1.849108710224     1.007825032230
         H           -1.296587930494     2.915112969647     0.252108710224     1.007825032230
         H           -1.352587930494     4.031112969647     1.621108710224     1.007825032230
         H           -2.663667930494     2.862902969647     1.391498710224     1.007825032230

  Running in c1 symmetry.

  Rotational constants: A =      0.03016  B =      0.01209  C =      0.01011 [cm^-1]
  Rotational constants: A =    904.24973  B =    362.45242  C =    303.16715 [MHz]
  Nuclear repulsion =  938.934857422912160

  Charge       = -1
  Multiplicity = 1
  Electrons    = 110
  Nalpha       = 55
  Nbeta        = 55

  ==> Algorithm <==

  SCF Algorithm Type is PK.
  DIIS enabled.
  MOM disabled.
  Fractional occupation disabled.
  Guess Type is SAD.
  Energy threshold   = 1.00e-06
  Density threshold  = 1.00e-10
  Integral threshold = 0.00e+00

  ==> Primary Basis <==

  Basis Set: CC-PVDZ
    Blend: CC-PVDZ
    Number of shells: 132
    Number of basis function: 280
    Number of Cartesian functions: 295
    Spherical Harmonics?: true
    Max angular momentum: 2

  ==> Pre-Iterations <==

   -------------------------------------------------------
    Irrep   Nso     Nmo     Nalpha   Nbeta   Ndocc  Nsocc
   -------------------------------------------------------
     A        280     280       0       0       0       0
   -------------------------------------------------------
    Total     280     280      55      55      55       0
   -------------------------------------------------------

  ==> Integral Setup <==

  Using integral reordering PK algorithm.
  Sizing the integral batches needed.
  Building batch lookup table.
   Calculation information:
      Number of atoms:                  29
      Number of AO shells:             132
      Number of primitives:            400
      Number of atomic orbitals:       295
      Number of basis functions:       280

      Integral cutoff                 1.00e-12
      Number of threads:                 1

	Batch   1 pq = [       0,    9405] index = [             0,44231715] size =     44231715
	Batch   2 pq = [    9405,   13301] index = [      44231715,88464951] size =     44233236
	Batch   3 pq = [   13301,   16290] index = [      88464951,132690195] size =     44225244
	Batch   4 pq = [   16290,   18810] index = [     132690195,176917455] size =     44227260
	Batch   5 pq = [   18810,   21030] index = [     176917455,221140965] size =     44223510
	Batch   6 pq = [   21030,   23037] index = [     221140965,265363203] size =     44222238
	Batch   7 pq = [   23037,   24883] index = [     265363203,309594286] size =     44231083
	Batch   8 pq = [   24883,   26601] index = [     309594286,353819901] size =     44225615
	Batch   9 pq = [   26601,   28214] index = [     353819901,398029005] size =     44209104
	Batch  10 pq = [   28214,   29740] index = [     398029005,442248670] size =     44219665
	Batch  11 pq = [   29740,   31191] index = [     442248670,486454836] size =     44206166
	Batch  12 pq = [   31191,   32578] index = [     486454836,530679331] size =     44224495
	Batch  13 pq = [   32578,   33908] index = [     530679331,574893186] size =     44213855
	Batch  14 pq = [   33908,   35188] index = [     574893186,619115266] size =     44222080
	Batch  15 pq = [   35188,   36423] index = [     619115266,663335676] size =     44220410
	Batch  16 pq = [   36423,   37617] index = [     663335676,707538153] size =     44202477
	Batch  17 pq = [   37617,   38775] index = [     707538153,751769700] size =     44231547
	Batch  18 pq = [   38775,   39340] index = [     751769700,773837470] size =     22067770
  Task number: 70
  Buffer size: 11059200
  Buffer per thread: 2
  We computed 39528191 shell quartets total.
  Whereas there are 38531031 unique shell quartets.
     2.59 percent of shell quartets recomputed by reordering.

  ==> DiskJK: Disk-Based J/K Matrices <==

    J tasked:                  Yes
    K tasked:                  Yes
    wK tasked:                  No
    Memory [MiB]:              375
    Schwarz Cutoff:          1E-12

    OpenMP threads:              1

  Minimum eigenvalue in the overlap matrix is 2.4141045447E-04.
  Using Symmetric Orthogonalization.

  SCF Guess: Superposition of Atomic Densities via on-the-fly atomic UHF.

  ==> Iterations <==

                        Total Energy        Delta E     RMS |[F,P]|

   @RHF iter SAD:  -665.34988918070485   -6.65350e+02   0.00000e+00
   @RHF iter   1:  -666.44072622042427   -1.09084e+00   2.99109e-03 DIIS
   @RHF iter   2:  -666.74936206029849   -3.08636e-01   1.61343e-03 DIIS
   @RHF iter   3:  -666.83034970379356   -8.09876e-02   3.08298e-04 DIIS
   @RHF iter   4:  -666.83511431259763   -4.76461e-03   1.20538e-04 DIIS
   @RHF iter   5:  -666.83580533868439   -6.91026e-04   2.22196e-05 DIIS
   @RHF iter   6:  -666.83583596589017   -3.06272e-05   1.08709e-05 DIIS
   @RHF iter   7:  -666.83584275547730   -6.78959e-06   2.60328e-06 DIIS
   @RHF iter   8:  -666.83584363890395   -8.83427e-07   1.02597e-06 DIIS
   @RHF iter   9:  -666.83584377646071   -1.37557e-07   3.77123e-07 DIIS
   @RHF iter  10:  -666.83584379364777   -1.71871e-08   1.07783e-07 DIIS
   @RHF iter  11:  -666.83584379499518   -1.34742e-09   4.29551e-08 DIIS
   @RHF iter  12:  -666.83584379520869   -2.13504e-10   2.07287e-08 DIIS
   @RHF iter  13:  -666.83584379528440   -7.57154e-11   9.80244e-09 DIIS
   @RHF iter  14:  -666.83584379530726   -2.28511e-11   4.67866e-09 DIIS
   @RHF iter  15:  -666.83584379531158   -4.32010e-12   1.66079e-09 DIIS
   @RHF iter  16:  -666.83584379530851    3.06954e-12   6.08431e-10 DIIS
   @RHF iter  17:  -666.83584379530964   -1.13687e-12   2.56794e-10 DIIS
   @RHF iter  18:  -666.83584379531271   -3.06954e-12   9.12640e-11 DIIS
  Energy and wave function converged.

  ==> Post-Iterations <==

    Orbital Energies [Eh]
    ---------------------

    Doubly Occupied:

       1A    -20.288459     2A    -20.288395     3A    -15.482864
       4A    -11.164512     5A    -11.150749     6A    -11.144831
       7A    -11.143284     8A    -11.129453     9A    -11.121574
      10A    -11.119998    11A    -11.119733    12A    -11.118557
      13A    -11.114861    14A    -11.076045    15A    -11.069056
      16A     -1.178967    17A     -1.166252    18A     -1.056531
      19A     -1.021133    20A     -0.965294    21A     -0.890004
      22A     -0.882537    23A     -0.873442    24A     -0.832030
      25A     -0.732502    26A     -0.709530    27A     -0.694046
      28A     -0.647243    29A     -0.607494    30A     -0.553024
      31A     -0.539650    32A     -0.521103    33A     -0.498168
      34A     -0.493468    35A     -0.481104    36A     -0.468112
      37A     -0.465735    38A     -0.451879    39A     -0.446168
      40A     -0.436899    41A     -0.424435    42A     -0.404803
      43A     -0.392935    44A     -0.375242    45A     -0.370718
      46A     -0.361516    47A     -0.354648    48A     -0.335112
      49A     -0.315906    50A     -0.265988    51A     -0.202948
      52A     -0.198380    53A     -0.190334    54A     -0.186614
      55A     -0.165762

    Virtual:

      56A      0.227642    57A      0.271256    58A      0.276598
      59A      0.297680    60A      0.310419    61A      0.312000
      62A      0.326173    63A      0.331762    64A      0.345531
      65A      0.372563    66A      0.375988    67A      0.380472
      68A      0.396189    69A      0.402178    70A      0.413864
      71A      0.421590    72A      0.429846    73A      0.459609
      74A      0.467755    75A      0.490011    76A      0.511058
      77A      0.536664    78A      0.543317    79A      0.546320
      80A      0.571302    81A      0.579584    82A      0.592863
      83A      0.620024    84A      0.636361    85A      0.695782
      86A      0.705635    87A      0.715816    88A      0.728646
      89A      0.739766    90A      0.741109    91A      0.749756
      92A      0.771059    93A      0.779443    94A      0.792367
      95A      0.807170    96A      0.811209    97A      0.829566
      98A      0.834684    99A      0.840661   100A      0.852202
     101A      0.859244   102A      0.860771   103A      0.873712
     104A      0.878065   105A      0.891464   106A      0.903410
     107A      0.920573   108A      0.933305   109A      0.951523
     110A      0.954557   111A      0.960170   112A      0.966815
     113A      0.980572   114A      0.986318   115A      0.990032
     116A      0.997250   117A      1.002634   118A      1.009386
     119A      1.023298   120A      1.034206   121A      1.038003
     122A      1.051900   123A      1.056416   124A      1.063388
     125A      1.069323   126A      1.071628   127A      1.085025
     128A      1.100580   129A      1.110665   130A      1.122122
     131A      1.133630   132A      1.159907   133A      1.163953
     134A      1.193697   135A      1.235693   136A      1.236542
     137A      1.246716   138A      1.250910   139A      1.261850
     140A      1.270920   141A      1.272996   142A      1.300828
     143A      1.312686   144A      1.319257   145A      1.321498
     146A      1.333409   147A      1.346475   148A      1.366005
     149A      1.381196   150A      1.390368   151A      1.393872
     152A      1.416837   153A      1.432440   154A      1.442110
     155A      1.453406   156A      1.469144   157A      1.471365
     158A      1.501448   159A      1.532395   160A      1.549613
     161A      1.564047   162A      1.607324   163A      1.613080
     164A      1.621630   165A      1.632018   166A      1.648723
     167A      1.659322   168A      1.679224   169A      1.707882
     170A      1.716677   171A      1.734237   172A      1.746131
     173A      1.752871   174A      1.772975   175A      1.791890
     176A      1.798937   177A      1.832987   178A      1.840611
     179A      1.856334   180A      1.876238   181A      1.878466
     182A      1.893161   183A      1.912850   184A      1.928853
     185A      1.935796   186A      1.944224   187A      1.971362
     188A      1.987214   189A      1.993292   190A      2.005615
     191A      2.014313   192A      2.019929   193A      2.028108
     194A      2.038956   195A      2.043017   196A      2.061613
     197A      2.073084   198A      2.081778   199A      2.098077
     200A      2.103746   201A      2.113490   202A      2.120789
     203A      2.133281   204A      2.138867   205A      2.148814
     206A      2.155594   207A      2.172077   208A      2.180925
     209A      2.183616   210A      2.187779   211A      2.202941
     212A      2.207532   213A      2.223187   214A      2.225185
     215A      2.250140   216A      2.257559   217A      2.272082
     218A      2.285012   219A      2.300358   220A      2.334840
     221A      2.339202   222A      2.360257   223A      2.367601
     224A      2.401822   225A      2.411214   226A      2.419034
     227A      2.435162   228A      2.466607   229A      2.484117
     230A      2.495370   231A      2.502625   232A      2.511665
     233A      2.532391   234A      2.557227   235A      2.566979
     236A      2.605401   237A      2.651509   238A      2.676552
     239A      2.684713   240A      2.709566   241A      2.711319
     242A      2.720698   243A      2.754834   244A      2.762726
     245A      2.796579   246A      2.802464   247A      2.841433
     248A      2.861252   249A      2.865522   250A      2.890747
     251A      2.903527   252A      2.909544   253A      2.916368
     254A      2.943046   255A      2.958492   256A      2.991690
     257A      3.001228   258A      3.026198   259A      3.067158
     260A      3.076468   261A      3.108344   262A      3.126932
     263A      3.163958   264A      3.177816   265A      3.221075
     266A      3.225083   267A      3.262276   268A      3.276290
     269A      3.313880   270A      3.334882   271A      3.395687
     272A      3.479680   273A      3.604082   274A      3.725381
     275A      3.790972   276A      3.855617   277A      4.024712
     278A      4.050785   279A      4.054516   280A      4.156968

    Final Occupation by Irrep:
              A
    DOCC [    55 ]

  @RHF Final Energy:  -666.83584379531271

   => Energetics <=

    Nuclear Repulsion Energy =            938.9348574229121596
    One-Electron Energy =               -2788.1613477068358407
    Two-Electron Energy =                1182.3906464886110825
    Total Energy =                       -666.8358437953127122

Computation Completed

Properties will be evaluated at   0.000000,   0.000000,   0.000000 [a0]

Properties computed using the SCF density matrix

  Nuclear Dipole Moment: [e a0]
     X:    -9.9331      Y:    -2.8171      Z:    -1.4617

  Electronic Dipole Moment: [e a0]
     X:     8.0023      Y:    -0.8139      Z:    -0.5985

  Dipole Moment: [e a0]
     X:    -1.9308      Y:    -3.6310      Z:    -2.0602     Total:     4.5996

  Dipole Moment: [D]
     X:    -4.9075      Y:    -9.2291      Z:    -5.2364     Total:    11.6911

*** tstop() called on ds3 at Tue Apr 28 16:18:35 2020
Module time:
	user time   =     349.62 seconds =       5.83 minutes
	system time =     112.28 seconds =       1.87 minutes
	total time  =       1112 seconds =      18.53 minutes
Total time:
	user time   =     349.62 seconds =       5.83 minutes
	system time =     112.28 seconds =       1.87 minutes
	total time  =       1112 seconds =      18.53 minutes
                                     G D M A

                                 by Anthony Stone

                           version 2.2.06, 22 June 2011

               Distributed Multipoles from Gaussian wavefunctions

Starting at 16:18:35 on 28 Apr 2020

Using SCF density matrix from file ./SSI/SSI-030TRP-212GLU-1-dimer.test.27175.fchk

                         Distributed Multipole Analysis

Standard DMA

Positions and radii in angstrom
Multipole moments in atomic units, ea_0^k for rank k

C          x = -1.086588  y = -4.152887  z = -0.710891 angstrom
           Maximum rank =  0   Radius =  0.650 angstrom
                   Q00  =  -0.218964

C          x =  0.375412  y = -0.672887  z = -0.557891 angstrom
           Maximum rank =  0   Radius =  0.650 angstrom
                   Q00  =   0.233400

C          x = -0.387588  y = -1.663887  z = -1.226891 angstrom
           Maximum rank =  0   Radius =  0.650 angstrom
                   Q00  =  -0.067395

C          x = -0.402588  y = -2.831887  z = -0.392891 angstrom
           Maximum rank =  0   Radius =  0.650 angstrom
                   Q00  =  -0.179383

C          x =  0.315412  y = -2.496887  z =  0.740109 angstrom
           Maximum rank =  0   Radius =  0.650 angstrom
                   Q00  =   0.136796

C          x =  0.570412  y =  0.593113  z = -1.093891 angstrom
           Maximum rank =  0   Radius =  0.650 angstrom
                   Q00  =  -0.085461

C          x =  0.027412  y =  0.867113  z = -2.348891 angstrom
           Maximum rank =  0   Radius =  0.650 angstrom
                   Q00  =  -0.037740

C          x = -0.714588  y = -0.091887  z = -3.031891 angstrom
           Maximum rank =  0   Radius =  0.650 angstrom
                   Q00  =  -0.064560

C          x = -0.919588  y = -1.359887  z = -2.496891 angstrom
           Maximum rank =  0   Radius =  0.650 angstrom
                   Q00  =  -0.121703

N          x =  0.780412  y = -1.204887  z =  0.639109 angstrom
           Maximum rank =  0   Radius =  0.650 angstrom
                   Q00  =  -0.476636

H          x =  1.155412  y =  1.334113  z = -0.570891 angstrom
           Maximum rank =  0   Radius =  0.325 angstrom
                   Q00  =   0.107882

H          x =  0.182412  y =  1.841113  z = -2.796891 angstrom
           Maximum rank =  0   Radius =  0.325 angstrom
                   Q00  =   0.053045

H          x =  1.294412  y = -0.712887  z =  1.366109 angstrom
           Maximum rank =  0   Radius =  0.325 angstrom
                   Q00  =   0.261614

H          x = -1.127588  y =  0.147113  z = -4.003891 angstrom
           Maximum rank =  0   Radius =  0.325 angstrom
                   Q00  =   0.033123

H          x =  0.481412  y = -3.138887  z =  1.597109 angstrom
           Maximum rank =  0   Radius =  0.325 angstrom
                   Q00  =   0.081913

H          x = -1.492588  y = -2.098887  z = -3.038891 angstrom
           Maximum rank =  0   Radius =  0.325 angstrom
                   Q00  =   0.043268

H          x = -1.422588  y = -4.097887  z = -1.745891 angstrom
           Maximum rank =  0   Radius =  0.325 angstrom
                   Q00  =   0.098296

H          x = -1.973588  y = -4.253887  z = -0.085891 angstrom
           Maximum rank =  0   Radius =  0.325 angstrom
                   Q00  =   0.091217

H          x = -0.431798  y = -5.030718  z = -0.607621 angstrom
           Maximum rank =  0   Radius =  0.325 angstrom
                   Q00  =   0.090651

C          x = -0.730588  y =  2.034113  z =  2.140109 angstrom
           Maximum rank =  0   Radius =  0.650 angstrom
                   Q00  =  -0.171118

C          x = -1.577588  y =  3.012113  z =  1.301109 angstrom
           Maximum rank =  0   Radius =  0.650 angstrom
                   Q00  =  -0.222953

C          x =  0.797412  y =  2.246113  z =  1.964109 angstrom
           Maximum rank =  0   Radius =  0.650 angstrom
                   Q00  =   0.969110

O          x =  1.236412  y =  3.291113  z =  1.401109 angstrom
           Maximum rank =  0   Radius =  0.650 angstrom
                   Q00  =  -0.935969

O          x =  1.549412  y =  1.344113  z =  2.426109 angstrom
           Maximum rank =  0   Radius =  0.650 angstrom
                   Q00  =  -0.928439

H          x = -0.981588  y =  2.157113  z =  3.196109 angstrom
           Maximum rank =  0   Radius =  0.325 angstrom
                   Q00  =   0.056935

H          x = -0.978588  y =  1.012113  z =  1.849109 angstrom
           Maximum rank =  0   Radius =  0.325 angstrom
                   Q00  =   0.053846

H          x = -1.296588  y =  2.915113  z =  0.252109 angstrom
           Maximum rank =  0   Radius =  0.325 angstrom
                   Q00  =   0.090309

H          x = -1.352588  y =  4.031113  z =  1.621109 angstrom
           Maximum rank =  0   Radius =  0.325 angstrom
                   Q00  =   0.080683

H          x = -2.663668  y =  2.862903  z =  1.391499 angstrom
           Maximum rank =  0   Radius =  0.325 angstrom
                   Q00  =   0.028232

Total multipoles referred to origin at
           x =   0.000000,  y =    0.000000,  z =    0.000000 angstrom
                   Q00  =  -1.000000

Finished at 16:18:36 on 28 Apr 2020

  DMA results are available in the Python driver through the
	  variable('DMA DISTRIBUTED MULTIPOLES')
  and
	  variable('DMA TOTAL MULTIPOLES')
  commands.

    Psi4 stopped on: Tuesday, 28 April 2020 04:18PM
    Psi4 wall time for execution: 0:18:32.16

*** Psi4 exiting successfully. Buy a developer a beer!
