                               Psi4 1.3.2 release

  ==> Input File <==

--------------------------------------------------------------------------
import numpy as np
set {scf_type pk
basis cc-pvdz
d_convergence 10
gdma_switch   0
gdma_limit    0
gdma_origin   [ 0.0,  0.0,  0.0 ]
}
molecule test {
    units Angstrom
    0 1
    --
    0 1
    C                1.894362306590281    -1.472529246267662    -2.080340399117160
    C                0.857362306590281    -1.626529246267662    -1.011340399117160
    O                0.718362306590281    -0.784529246267662    -0.136340399117160
    N                0.067362306590281    -2.706529246267662    -1.116340399117160
    H                1.551362306590281    -1.974529246267662    -2.987340399117160
    H                2.782362306590281    -2.002529246267662    -1.737340399117161
    H               -0.708637693409719    -2.795529246267662    -0.479340399117160
    H                0.191362306590281    -3.362529246267662    -1.871340399117160
    H                2.153942306590281    -0.434199246267662    -2.334270399117160
    C               -0.600637693409719     2.491470753732338    -0.019340399117160
    C               -0.920637693409719     1.610470753732338     1.111659600882840
    O               -2.088637693409719     1.254470753732338     1.234659600882840
    N                0.063362306590281     1.319470753732338     1.990659600882840
    H               -0.843637693409719     1.983470753732338    -0.953340399117160
    H                0.464362306590281     2.724470753732338    -0.023340399117160
    H               -0.144637693409719     0.711470753732338     2.766659600882840
    H                1.015362306590281     1.601470753732338     1.776659600882839
    H               -1.181657693409719     3.421240753732338     0.069829600882840

}
e, wfn = energy('scf', return_wfn=True)
gdma(wfn)
dmavals = variable('DMA DISTRIBUTED MULTIPOLES')
charges = np.array(dmavals)
print(charges)
np.save('SSI-065ASN-110GLN-1-dimer.npy', np.array(charges))--------------------------------------------------------------------------

*** tstart() called on ds3
*** at Tue Apr 28 20:08:34 2020

   => Loading Basis Set <=

    Name: CC-PVDZ
    Role: ORBITAL
    Keyword: BASIS
    atoms 1-2, 10-11 entry C          line   138 file /theoryfs2/ds/metcalf/miniconda2/envs/tf2gpu/share/psi4/basis/cc-pvdz.gbs
    atoms 3, 12      entry O          line   198 file /theoryfs2/ds/metcalf/miniconda2/envs/tf2gpu/share/psi4/basis/cc-pvdz.gbs
    atoms 4, 13      entry N          line   168 file /theoryfs2/ds/metcalf/miniconda2/envs/tf2gpu/share/psi4/basis/cc-pvdz.gbs
    atoms 5-9, 14-18 entry H          line    22 file /theoryfs2/ds/metcalf/miniconda2/envs/tf2gpu/share/psi4/basis/cc-pvdz.gbs

         ---------------------------------------------------------
                                   SCF
               by Justin Turney, Rob Parrish, Andy Simmonett
                          and Daniel G. A. Smith
                              RHF Reference
                        1 Threads,    500 MiB Core
         ---------------------------------------------------------

  ==> Geometry <==

    Molecular point group: c1
    Full point group: C1

    Geometry (in Angstrom), charge = 0, multiplicity = 1:

       Center              X                  Y                   Z               Mass
    ------------   -----------------  -----------------  -----------------  -----------------
         C            1.894362306590    -1.472529246268    -2.080340399117    12.000000000000
         C            0.857362306590    -1.626529246268    -1.011340399117    12.000000000000
         O            0.718362306590    -0.784529246268    -0.136340399117    15.994914619570
         N            0.067362306590    -2.706529246268    -1.116340399117    14.003074004430
         H            1.551362306590    -1.974529246268    -2.987340399117     1.007825032230
         H            2.782362306590    -2.002529246268    -1.737340399117     1.007825032230
         H           -0.708637693410    -2.795529246268    -0.479340399117     1.007825032230
         H            0.191362306590    -3.362529246268    -1.871340399117     1.007825032230
         H            2.153942306590    -0.434199246268    -2.334270399117     1.007825032230
         C           -0.600637693410     2.491470753732    -0.019340399117    12.000000000000
         C           -0.920637693410     1.610470753732     1.111659600883    12.000000000000
         O           -2.088637693410     1.254470753732     1.234659600883    15.994914619570
         N            0.063362306590     1.319470753732     1.990659600883    14.003074004430
         H           -0.843637693410     1.983470753732    -0.953340399117     1.007825032230
         H            0.464362306590     2.724470753732    -0.023340399117     1.007825032230
         H           -0.144637693410     0.711470753732     2.766659600883     1.007825032230
         H            1.015362306590     1.601470753732     1.776659600883     1.007825032230
         H           -1.181657693410     3.421240753732     0.069829600883     1.007825032230

  Running in c1 symmetry.

  Rotational constants: A =      0.11158  B =      0.02562  C =      0.02424 [cm^-1]
  Rotational constants: A =   3345.14006  B =    768.16528  C =    726.57849 [MHz]
  Nuclear repulsion =  365.231133728386737

  Charge       = 0
  Multiplicity = 1
  Electrons    = 64
  Nalpha       = 32
  Nbeta        = 32

  ==> Algorithm <==

  SCF Algorithm Type is PK.
  DIIS enabled.
  MOM disabled.
  Fractional occupation disabled.
  Guess Type is SAD.
  Energy threshold   = 1.00e-06
  Density threshold  = 1.00e-10
  Integral threshold = 0.00e+00

  ==> Primary Basis <==

  Basis Set: CC-PVDZ
    Blend: CC-PVDZ
    Number of shells: 78
    Number of basis function: 162
    Number of Cartesian functions: 170
    Spherical Harmonics?: true
    Max angular momentum: 2

  ==> Pre-Iterations <==

   -------------------------------------------------------
    Irrep   Nso     Nmo     Nalpha   Nbeta   Ndocc  Nsocc
   -------------------------------------------------------
     A        162     162       0       0       0       0
   -------------------------------------------------------
    Total     162     162      32      32      32       0
   -------------------------------------------------------

  ==> Integral Setup <==

  Using integral reordering PK algorithm.
  Sizing the integral batches needed.
  Building batch lookup table.
   Calculation information:
      Number of atoms:                  18
      Number of AO shells:              78
      Number of primitives:            226
      Number of atomic orbitals:       170
      Number of basis functions:       162

      Integral cutoff                 1.00e-12
      Number of threads:                 1

	Batch   1 pq = [       0,    9405] index = [             0,44231715] size =     44231715
	Batch   2 pq = [    9405,   13203] index = [      44231715,87166206] size =     42934491
  Task number: 8
  Buffer size: 11059200
  Buffer per thread: 2
  We computed 3650292 shell quartets total.
  Whereas there are 4747821 unique shell quartets.

  ==> DiskJK: Disk-Based J/K Matrices <==

    J tasked:                  Yes
    K tasked:                  Yes
    wK tasked:                  No
    Memory [MiB]:              375
    Schwarz Cutoff:          1E-12

    OpenMP threads:              1

  Minimum eigenvalue in the overlap matrix is 4.0867438974E-03.
  Using Symmetric Orthogonalization.

  SCF Guess: Superposition of Atomic Densities via on-the-fly atomic UHF.

  ==> Iterations <==

                        Total Energy        Delta E     RMS |[F,P]|

   @RHF iter SAD:  -414.55635892475050   -4.14556e+02   0.00000e+00
   @RHF iter   1:  -415.68945933329451   -1.13310e+00   4.71688e-03 DIIS
   @RHF iter   2:  -415.90994871883692   -2.20489e-01   2.77061e-03 DIIS
   @RHF iter   3:  -415.98187830632628   -7.19296e-02   5.07994e-04 DIIS
   @RHF iter   4:  -415.98605744518483   -4.17914e-03   1.96953e-04 DIIS
   @RHF iter   5:  -415.98677946006939   -7.22015e-04   3.70208e-05 DIIS
   @RHF iter   6:  -415.98683082762147   -5.13676e-05   1.86663e-05 DIIS
   @RHF iter   7:  -415.98684022410754   -9.39649e-06   7.17751e-06 DIIS
   @RHF iter   8:  -415.98684217207915   -1.94797e-06   2.38286e-06 DIIS
   @RHF iter   9:  -415.98684235952987   -1.87451e-07   1.06395e-06 DIIS
   @RHF iter  10:  -415.98684238190157   -2.23717e-08   2.69721e-07 DIIS
   @RHF iter  11:  -415.98684238408646   -2.18489e-09   4.93717e-08 DIIS
   @RHF iter  12:  -415.98684238416297   -7.65112e-11   1.69309e-08 DIIS
   @RHF iter  13:  -415.98684238416922   -6.25278e-12   4.42767e-09 DIIS
   @RHF iter  14:  -415.98684238417104   -1.81899e-12   1.59109e-09 DIIS
   @RHF iter  15:  -415.98684238417053    5.11591e-13   4.39824e-10 DIIS
   @RHF iter  16:  -415.98684238416911    1.42109e-12   1.24775e-10 DIIS
   @RHF iter  17:  -415.98684238416877    3.41061e-13   4.64281e-11 DIIS
  Energy and wave function converged.

  ==> Post-Iterations <==

    Orbital Energies [Eh]
    ---------------------

    Doubly Occupied:

       1A    -20.512335     2A    -20.477400     3A    -15.590489
       4A    -15.561042     5A    -11.354210     6A    -11.321102
       7A    -11.247193     8A    -11.215936     9A     -1.376928
      10A     -1.340974    11A     -1.217981    12A     -1.183126
      13A     -1.009802    14A     -0.984338    15A     -0.800426
      16A     -0.765481    17A     -0.729064    18A     -0.696396
      19A     -0.663577    20A     -0.635680    21A     -0.620262
      22A     -0.594665    23A     -0.579167    24A     -0.563278
      25A     -0.549165    26A     -0.533915    27A     -0.523828
      28A     -0.489387    29A     -0.417487    30A     -0.410519
      31A     -0.385690    32A     -0.377492

    Virtual:

      33A      0.159469    34A      0.190664    35A      0.192799
      36A      0.214110    37A      0.219524    38A      0.224732
      39A      0.241332    40A      0.245590    41A      0.267900
      42A      0.276965    43A      0.302110    44A      0.310100
      45A      0.377968    46A      0.405327    47A      0.455701
      48A      0.492130    49A      0.546198    50A      0.599711
      51A      0.629819    52A      0.639882    53A      0.664705
      54A      0.686052    55A      0.700784    56A      0.713470
      57A      0.723793    58A      0.734290    59A      0.736333
      60A      0.746003    61A      0.763061    62A      0.779475
      63A      0.830964    64A      0.853808    65A      0.855173
      66A      0.871764    67A      0.879667    68A      0.910728
      69A      0.929184    70A      0.935699    71A      0.945956
      72A      0.967354    73A      0.996603    74A      1.003398
      75A      1.017214    76A      1.024376    77A      1.053830
      78A      1.063664    79A      1.120213    80A      1.132004
      81A      1.152256    82A      1.239392    83A      1.318633
      84A      1.339333    85A      1.352280    86A      1.358432
      87A      1.375293    88A      1.395903    89A      1.410391
      90A      1.422955    91A      1.445046    92A      1.467538
      93A      1.474462    94A      1.484858    95A      1.517425
      96A      1.531882    97A      1.645050    98A      1.649307
      99A      1.672146   100A      1.687372   101A      1.712741
     102A      1.759011   103A      1.818769   104A      1.848193
     105A      1.851610   106A      1.869598   107A      1.887026
     108A      1.893903   109A      1.901523   110A      1.911816
     111A      1.931279   112A      1.947829   113A      1.968374
     114A      1.980920   115A      1.987646   116A      2.009310
     117A      2.032005   118A      2.059501   119A      2.080722
     120A      2.133322   121A      2.154816   122A      2.189343
     123A      2.209286   124A      2.265892   125A      2.268593
     126A      2.344892   127A      2.400872   128A      2.441441
     129A      2.446431   130A      2.452503   131A      2.464871
     132A      2.510585   133A      2.545342   134A      2.554314
     135A      2.565881   136A      2.603810   137A      2.617869
     138A      2.660268   139A      2.714826   140A      2.742301
     141A      2.775367   142A      2.792315   143A      2.816380
     144A      2.829784   145A      2.855900   146A      2.870071
     147A      2.955147   148A      2.967414   149A      3.084618
     150A      3.123741   151A      3.128429   152A      3.154634
     153A      3.280724   154A      3.309499   155A      3.505988
     156A      3.517147   157A      3.541748   158A      3.566659
     159A      3.863103   160A      3.883820   161A      3.920775
     162A      3.938205

    Final Occupation by Irrep:
              A
    DOCC [    32 ]

  @RHF Final Energy:  -415.98684238416877

   => Energetics <=

    Nuclear Repulsion Energy =            365.2311337283867374
    One-Electron Energy =               -1292.9792815105893169
    Two-Electron Energy =                 511.7613053980337554
    Total Energy =                       -415.9868423841687672

Computation Completed

Properties will be evaluated at   0.000000,   0.000000,   0.000000 [a0]

Properties computed using the SCF density matrix

  Nuclear Dipole Moment: [e a0]
     X:     4.9430      Y:    -0.1130      Z:    -5.4094

  Electronic Dipole Moment: [e a0]
     X:    -3.3128      Y:    -1.0184      Z:     4.2802

  Dipole Moment: [e a0]
     X:     1.6303      Y:    -1.1314      Z:    -1.1292     Total:     2.2832

  Dipole Moment: [D]
     X:     4.1437      Y:    -2.8756      Z:    -2.8702     Total:     5.8033

*** tstop() called on ds3 at Tue Apr 28 20:09:14 2020
Module time:
	user time   =      28.24 seconds =       0.47 minutes
	system time =      13.66 seconds =       0.23 minutes
	total time  =         40 seconds =       0.67 minutes
Total time:
	user time   =      28.24 seconds =       0.47 minutes
	system time =      13.66 seconds =       0.23 minutes
	total time  =         40 seconds =       0.67 minutes
                                     G D M A

                                 by Anthony Stone

                           version 2.2.06, 22 June 2011

               Distributed Multipoles from Gaussian wavefunctions

Starting at 20:9:14 on 28 Apr 2020

Using SCF density matrix from file ./SSI/SSI-065ASN-110GLN-1-dimer.test.8499.fchk

                         Distributed Multipole Analysis

Standard DMA

Positions and radii in angstrom
Multipole moments in atomic units, ea_0^k for rank k

C          x =  1.894362  y = -1.472529  z = -2.080340 angstrom
           Maximum rank =  0   Radius =  0.650 angstrom
                   Q00  =  -0.262671

C          x =  0.857362  y = -1.626529  z = -1.011340 angstrom
           Maximum rank =  0   Radius =  0.650 angstrom
                   Q00  =   0.831786

O          x =  0.718362  y = -0.784529  z = -0.136340 angstrom
           Maximum rank =  0   Radius =  0.650 angstrom
                   Q00  =  -0.786340

N          x =  0.067362  y = -2.706529  z = -1.116340 angstrom
           Maximum rank =  0   Radius =  0.650 angstrom
                   Q00  =  -0.549052

H          x =  1.551362  y = -1.974529  z = -2.987340 angstrom
           Maximum rank =  0   Radius =  0.325 angstrom
                   Q00  =   0.079465

H          x =  2.782362  y = -2.002529  z = -1.737340 angstrom
           Maximum rank =  0   Radius =  0.325 angstrom
                   Q00  =   0.126197

H          x = -0.708638  y = -2.795529  z = -0.479340 angstrom
           Maximum rank =  0   Radius =  0.325 angstrom
                   Q00  =   0.227414

H          x =  0.191362  y = -3.362529  z = -1.871340 angstrom
           Maximum rank =  0   Radius =  0.325 angstrom
                   Q00  =   0.206302

H          x =  2.153942  y = -0.434199  z = -2.334270 angstrom
           Maximum rank =  0   Radius =  0.325 angstrom
                   Q00  =   0.130053

C          x = -0.600638  y =  2.491471  z = -0.019340 angstrom
           Maximum rank =  0   Radius =  0.650 angstrom
                   Q00  =  -0.250452

C          x = -0.920638  y =  1.610471  z =  1.111660 angstrom
           Maximum rank =  0   Radius =  0.650 angstrom
                   Q00  =   0.846542

O          x = -2.088638  y =  1.254471  z =  1.234660 angstrom
           Maximum rank =  0   Radius =  0.650 angstrom
                   Q00  =  -0.800790

N          x =  0.063362  y =  1.319471  z =  1.990660 angstrom
           Maximum rank =  0   Radius =  0.650 angstrom
                   Q00  =  -0.536410

H          x = -0.843638  y =  1.983471  z = -0.953340 angstrom
           Maximum rank =  0   Radius =  0.325 angstrom
                   Q00  =   0.128597

H          x =  0.464362  y =  2.724471  z = -0.023340 angstrom
           Maximum rank =  0   Radius =  0.325 angstrom
                   Q00  =   0.064630

H          x = -0.144638  y =  0.711471  z =  2.766660 angstrom
           Maximum rank =  0   Radius =  0.325 angstrom
                   Q00  =   0.214782

H          x =  1.015362  y =  1.601471  z =  1.776660 angstrom
           Maximum rank =  0   Radius =  0.325 angstrom
                   Q00  =   0.208537

H          x = -1.181658  y =  3.421241  z =  0.069830 angstrom
           Maximum rank =  0   Radius =  0.325 angstrom
                   Q00  =   0.121408

Total multipoles referred to origin at
           x =   0.000000,  y =    0.000000,  z =    0.000000 angstrom
                   Q00  =  -0.000000

Finished at 20:9:14 on 28 Apr 2020

  DMA results are available in the Python driver through the
	  variable('DMA DISTRIBUTED MULTIPOLES')
  and
	  variable('DMA TOTAL MULTIPOLES')
  commands.

    Psi4 stopped on: Tuesday, 28 April 2020 08:09PM
    Psi4 wall time for execution: 0:00:40.78

*** Psi4 exiting successfully. Buy a developer a beer!
