                               Psi4 1.3.2 release

  ==> Input File <==

--------------------------------------------------------------------------
import numpy as np
set {scf_type pk
basis cc-pvdz
d_convergence 10
gdma_switch   0
gdma_limit    0
gdma_origin   [ 0.0,  0.0,  0.0 ]
}
molecule test {
    units Angstrom
    0 1
    --
    0 1
    C                0.406871609653324     0.728467525744300     2.836207556334359
    C                1.158871609653324     0.510467525744300    -0.705792443665641
    C                0.407871609653324     0.808467525744300     1.337207556334358
    C               -0.441128390346676     1.440467525744300     0.485207556334358
    N                1.398871609653324     0.235467525744300     0.570207556334358
    N                0.042871609653324     1.224467525744300    -0.788792443665641
    H                1.674871609653324     0.063467525744300    -1.538792443665641
    H               -0.365128390346676     1.545467525744300    -1.659792443665641
    H               -1.324128390346676     2.004467525744299     0.758207556334359
    H                0.413871609653324     1.731467525744300     3.232207556334359
    H                1.345871609653324     0.270467525744300     3.151207556334358
    H               -0.422088390346676     0.141589525744300     3.258587556334358
    C               -0.590128390346676    -2.132532474255700    -1.845792443665642
    C               -2.068128390346677    -2.404532474255701    -1.593792443665642
    H               -0.182128390346676    -2.881532474255700    -2.523792443665641
    H               -0.471128390346676    -1.147532474255700    -2.292792443665641
    H               -0.046128390346676    -2.163532474255700    -0.901792443665641
    H               -2.416128390346676    -1.675532474255701    -0.860792443665641
    H               -2.187148390346676    -3.416210474255701    -1.178652443665642
    H               -2.648338390346676    -2.264852474255700    -2.517832443665641

}
e, wfn = energy('scf', return_wfn=True)
gdma(wfn)
dmavals = variable('DMA DISTRIBUTED MULTIPOLES')
charges = np.array(dmavals)
print(charges)
np.save('SSI-031HIE-035LEU-1-dimer.npy', np.array(charges))--------------------------------------------------------------------------

*** tstart() called on ds3
*** at Sun Apr 26 21:54:52 2020

   => Loading Basis Set <=

    Name: CC-PVDZ
    Role: ORBITAL
    Keyword: BASIS
    atoms 1-4, 13-14  entry C          line   138 file /theoryfs2/ds/metcalf/miniconda2/envs/tf2gpu/share/psi4/basis/cc-pvdz.gbs
    atoms 5-6         entry N          line   168 file /theoryfs2/ds/metcalf/miniconda2/envs/tf2gpu/share/psi4/basis/cc-pvdz.gbs
    atoms 7-12, 15-20 entry H          line    22 file /theoryfs2/ds/metcalf/miniconda2/envs/tf2gpu/share/psi4/basis/cc-pvdz.gbs

         ---------------------------------------------------------
                                   SCF
               by Justin Turney, Rob Parrish, Andy Simmonett
                          and Daniel G. A. Smith
                              RHF Reference
                        1 Threads,    500 MiB Core
         ---------------------------------------------------------

  ==> Geometry <==

    Molecular point group: c1
    Full point group: C1

    Geometry (in Angstrom), charge = 0, multiplicity = 1:

       Center              X                  Y                   Z               Mass
    ------------   -----------------  -----------------  -----------------  -----------------
         C            0.406871609653     0.728467525744     2.836207556334    12.000000000000
         C            1.158871609653     0.510467525744    -0.705792443666    12.000000000000
         C            0.407871609653     0.808467525744     1.337207556334    12.000000000000
         C           -0.441128390347     1.440467525744     0.485207556334    12.000000000000
         N            1.398871609653     0.235467525744     0.570207556334    14.003074004430
         N            0.042871609653     1.224467525744    -0.788792443666    14.003074004430
         H            1.674871609653     0.063467525744    -1.538792443666     1.007825032230
         H           -0.365128390347     1.545467525744    -1.659792443666     1.007825032230
         H           -1.324128390347     2.004467525744     0.758207556334     1.007825032230
         H            0.413871609653     1.731467525744     3.232207556334     1.007825032230
         H            1.345871609653     0.270467525744     3.151207556334     1.007825032230
         H           -0.422088390347     0.141589525744     3.258587556334     1.007825032230
         C           -0.590128390347    -2.132532474256    -1.845792443666    12.000000000000
         C           -2.068128390347    -2.404532474256    -1.593792443666    12.000000000000
         H           -0.182128390347    -2.881532474256    -2.523792443666     1.007825032230
         H           -0.471128390347    -1.147532474256    -2.292792443666     1.007825032230
         H           -0.046128390347    -2.163532474256    -0.901792443666     1.007825032230
         H           -2.416128390347    -1.675532474256    -0.860792443666     1.007825032230
         H           -2.187148390347    -3.416210474256    -1.178652443666     1.007825032230
         H           -2.648338390347    -2.264852474256    -2.517832443666     1.007825032230

  Running in c1 symmetry.

  Rotational constants: A =      0.09730  B =      0.03225  C =      0.02973 [cm^-1]
  Rotational constants: A =   2916.94059  B =    966.70415  C =    891.41601 [MHz]
  Nuclear repulsion =  360.923646794637136

  Charge       = 0
  Multiplicity = 1
  Electrons    = 62
  Nalpha       = 31
  Nbeta        = 31

  ==> Algorithm <==

  SCF Algorithm Type is PK.
  DIIS enabled.
  MOM disabled.
  Fractional occupation disabled.
  Guess Type is SAD.
  Energy threshold   = 1.00e-06
  Density threshold  = 1.00e-10
  Integral threshold = 0.00e+00

  ==> Primary Basis <==

  Basis Set: CC-PVDZ
    Blend: CC-PVDZ
    Number of shells: 84
    Number of basis function: 172
    Number of Cartesian functions: 180
    Spherical Harmonics?: true
    Max angular momentum: 2

  ==> Pre-Iterations <==

   -------------------------------------------------------
    Irrep   Nso     Nmo     Nalpha   Nbeta   Ndocc  Nsocc
   -------------------------------------------------------
     A        172     172       0       0       0       0
   -------------------------------------------------------
    Total     172     172      31      31      31       0
   -------------------------------------------------------

  ==> Integral Setup <==

  Using integral reordering PK algorithm.
  Sizing the integral batches needed.
  Building batch lookup table.
   Calculation information:
      Number of atoms:                  20
      Number of AO shells:              84
      Number of primitives:            236
      Number of atomic orbitals:       180
      Number of basis functions:       172

      Integral cutoff                 1.00e-12
      Number of threads:                 1

	Batch   1 pq = [       0,    9405] index = [             0,44231715] size =     44231715
	Batch   2 pq = [    9405,   13301] index = [      44231715,88464951] size =     44233236
	Batch   3 pq = [   13301,   14878] index = [      88464951,110684881] size =     22219930
  Task number: 11
  Buffer size: 11059200
  Buffer per thread: 2
  We computed 5620247 shell quartets total.
  Whereas there are 6374235 unique shell quartets.

  ==> DiskJK: Disk-Based J/K Matrices <==

    J tasked:                  Yes
    K tasked:                  Yes
    wK tasked:                  No
    Memory [MiB]:              375
    Schwarz Cutoff:          1E-12

    OpenMP threads:              1

  Minimum eigenvalue in the overlap matrix is 1.2020473453E-03.
  Using Symmetric Orthogonalization.

  SCF Guess: Superposition of Atomic Densities via on-the-fly atomic UHF.

  ==> Iterations <==

                        Total Energy        Delta E     RMS |[F,P]|

   @RHF iter SAD:  -342.23787845577436   -3.42238e+02   0.00000e+00
   @RHF iter   1:  -342.88424311258854   -6.46365e-01   3.36714e-03 DIIS
   @RHF iter   2:  -343.05670704337410   -1.72464e-01   1.70711e-03 DIIS
   @RHF iter   3:  -343.09753144753302   -4.08244e-02   4.34284e-04 DIIS
   @RHF iter   4:  -343.10100898365761   -3.47754e-03   1.81309e-04 DIIS
   @RHF iter   5:  -343.10156795933807   -5.58976e-04   2.67931e-05 DIIS
   @RHF iter   6:  -343.10158873772798   -2.07784e-05   1.15393e-05 DIIS
   @RHF iter   7:  -343.10159206044273   -3.32271e-06   3.94665e-06 DIIS
   @RHF iter   8:  -343.10159274245569   -6.82013e-07   1.58615e-06 DIIS
   @RHF iter   9:  -343.10159288993788   -1.47482e-07   5.72039e-07 DIIS
   @RHF iter  10:  -343.10159290532948   -1.53916e-08   1.81531e-07 DIIS
   @RHF iter  11:  -343.10159290720486   -1.87538e-09   8.08565e-08 DIIS
   @RHF iter  12:  -343.10159290746651   -2.61650e-10   3.19525e-08 DIIS
   @RHF iter  13:  -343.10159290751301   -4.64979e-11   8.53120e-09 DIIS
   @RHF iter  14:  -343.10159290751562   -2.61480e-12   3.24776e-09 DIIS
   @RHF iter  15:  -343.10159290751591   -2.84217e-13   1.32345e-09 DIIS
   @RHF iter  16:  -343.10159290751631   -3.97904e-13   4.21940e-10 DIIS
   @RHF iter  17:  -343.10159290751733   -1.02318e-12   1.24372e-10 DIIS
   @RHF iter  18:  -343.10159290751585    1.47793e-12   4.54847e-11 DIIS
  Energy and wave function converged.

  ==> Post-Iterations <==

    Orbital Energies [Eh]
    ---------------------

    Doubly Occupied:

       1A    -15.621377     2A    -15.528024     3A    -11.289714
       4A    -11.250411     5A    -11.241946     6A    -11.221430
       7A    -11.217761     8A    -11.213604     9A     -1.341561
      10A     -1.153890    11A     -1.030404    12A     -1.018664
      13A     -0.941971    14A     -0.834274    15A     -0.817415
      16A     -0.761430    17A     -0.741770    18A     -0.614160
      19A     -0.605579    20A     -0.599928    21A     -0.596085
      22A     -0.592363    23A     -0.555540    24A     -0.539807
      25A     -0.515854    26A     -0.496812    27A     -0.487372
      28A     -0.481685    29A     -0.411105    30A     -0.379176
      31A     -0.308436

    Virtual:

      32A      0.162818    33A      0.181975    34A      0.197207
      35A      0.203430    36A      0.217975    37A      0.233098
      38A      0.238847    39A      0.255887    40A      0.262443
      41A      0.268710    42A      0.278320    43A      0.291326
      44A      0.296714    45A      0.304793    46A      0.374968
      47A      0.400668    48A      0.401302    49A      0.420963
      50A      0.476130    51A      0.487546    52A      0.588004
      53A      0.602142    54A      0.607987    55A      0.614497
      56A      0.638028    57A      0.647190    58A      0.665683
      59A      0.670913    60A      0.687580    61A      0.712457
      62A      0.730375    63A      0.758161    64A      0.776533
      65A      0.808916    66A      0.825926    67A      0.841614
      68A      0.852896    69A      0.879206    70A      0.881695
      71A      0.889726    72A      0.894784    73A      0.900872
      74A      0.908844    75A      0.926005    76A      0.930962
      77A      0.932303    78A      0.960918    79A      0.966083
      80A      0.976033    81A      0.978164    82A      1.024365
      83A      1.077421    84A      1.088297    85A      1.114561
      86A      1.124979    87A      1.131455    88A      1.152164
      89A      1.174162    90A      1.198341    91A      1.241467
      92A      1.243781    93A      1.281203    94A      1.295223
      95A      1.327895    96A      1.341724    97A      1.432231
      98A      1.462076    99A      1.478402   100A      1.482409
     101A      1.503193   102A      1.523455   103A      1.568133
     104A      1.582074   105A      1.618666   106A      1.662203
     107A      1.677734   108A      1.691351   109A      1.692810
     110A      1.736981   111A      1.802591   112A      1.813667
     113A      1.843639   114A      1.851091   115A      1.864865
     116A      1.886237   117A      1.900193   118A      1.910085
     119A      1.913023   120A      1.933947   121A      1.940888
     122A      1.946514   123A      1.954971   124A      1.963884
     125A      1.969587   126A      1.979385   127A      1.982702
     128A      2.008800   129A      2.020316   130A      2.073613
     131A      2.102161   132A      2.125610   133A      2.131378
     134A      2.161581   135A      2.210314   136A      2.248676
     137A      2.275678   138A      2.290772   139A      2.304298
     140A      2.320440   141A      2.358247   142A      2.372058
     143A      2.406614   144A      2.448259   145A      2.467949
     146A      2.476853   147A      2.493014   148A      2.562172
     149A      2.577795   150A      2.584473   151A      2.597109
     152A      2.682651   153A      2.736046   154A      2.763888
     155A      2.770104   156A      2.784582   157A      2.805502
     158A      2.809462   159A      2.824323   160A      2.843327
     161A      2.854443   162A      2.884130   163A      2.895587
     164A      2.932488   165A      2.960641   166A      2.966257
     167A      3.004247   168A      3.064764   169A      3.154138
     170A      3.228321   171A      3.465493   172A      3.794938

    Final Occupation by Irrep:
              A
    DOCC [    31 ]

  @RHF Final Energy:  -343.10159290751585

   => Energetics <=

    Nuclear Repulsion Energy =            360.9236467946371363
    One-Electron Energy =               -1179.2313822060145867
    Two-Electron Energy =                 475.2061425038616562
    Total Energy =                       -343.1015929075158510

Computation Completed

Properties will be evaluated at   0.000000,   0.000000,   0.000000 [a0]

Properties computed using the SCF density matrix

  Nuclear Dipole Moment: [e a0]
     X:    -6.2175      Y:    -7.3093      Z:    -2.8812

  Electronic Dipole Moment: [e a0]
     X:     5.4235      Y:     7.9062      Z:     2.0769

  Dipole Moment: [e a0]
     X:    -0.7940      Y:     0.5970      Z:    -0.8042     Total:     1.2781

  Dipole Moment: [D]
     X:    -2.0180      Y:     1.5173      Z:    -2.0441     Total:     3.2486

*** tstop() called on ds3 at Sun Apr 26 21:55:50 2020
Module time:
	user time   =      40.20 seconds =       0.67 minutes
	system time =      18.85 seconds =       0.31 minutes
	total time  =         58 seconds =       0.97 minutes
Total time:
	user time   =      40.20 seconds =       0.67 minutes
	system time =      18.85 seconds =       0.31 minutes
	total time  =         58 seconds =       0.97 minutes
                                     G D M A

                                 by Anthony Stone

                           version 2.2.06, 22 June 2011

               Distributed Multipoles from Gaussian wavefunctions

Starting at 21:55:50 on 26 Apr 2020

Using SCF density matrix from file ./SSI/SSI-031HIE-035LEU-1-dimer.test.15880.fchk

                         Distributed Multipole Analysis

Standard DMA

Positions and radii in angstrom
Multipole moments in atomic units, ea_0^k for rank k

C          x =  0.406872  y =  0.728468  z =  2.836208 angstrom
           Maximum rank =  0   Radius =  0.650 angstrom
                   Q00  =  -0.206457

C          x =  1.158872  y =  0.510468  z = -0.705792 angstrom
           Maximum rank =  0   Radius =  0.650 angstrom
                   Q00  =   0.466881

C          x =  0.407872  y =  0.808468  z =  1.337208 angstrom
           Maximum rank =  0   Radius =  0.650 angstrom
                   Q00  =   0.234476

C          x = -0.441128  y =  1.440468  z =  0.485208 angstrom
           Maximum rank =  0   Radius =  0.650 angstrom
                   Q00  =  -0.004018

N          x =  1.398872  y =  0.235468  z =  0.570208 angstrom
           Maximum rank =  0   Radius =  0.650 angstrom
                   Q00  =  -0.784288

N          x =  0.042872  y =  1.224468  z = -0.788792 angstrom
           Maximum rank =  0   Radius =  0.650 angstrom
                   Q00  =  -0.474578

H          x =  1.674872  y =  0.063468  z = -1.538792 angstrom
           Maximum rank =  0   Radius =  0.325 angstrom
                   Q00  =   0.125050

H          x = -0.365128  y =  1.545468  z = -1.659792 angstrom
           Maximum rank =  0   Radius =  0.325 angstrom
                   Q00  =   0.220751

H          x = -1.324128  y =  2.004468  z =  0.758208 angstrom
           Maximum rank =  0   Radius =  0.325 angstrom
                   Q00  =   0.099828

H          x =  0.413872  y =  1.731468  z =  3.232208 angstrom
           Maximum rank =  0   Radius =  0.325 angstrom
                   Q00  =   0.101522

H          x =  1.345872  y =  0.270468  z =  3.151208 angstrom
           Maximum rank =  0   Radius =  0.325 angstrom
                   Q00  =   0.122174

H          x = -0.422088  y =  0.141590  z =  3.258588 angstrom
           Maximum rank =  0   Radius =  0.325 angstrom
                   Q00  =   0.100186

C          x = -0.590128  y = -2.132532  z = -1.845792 angstrom
           Maximum rank =  0   Radius =  0.650 angstrom
                   Q00  =  -0.222930

C          x = -2.068128  y = -2.404532  z = -1.593792 angstrom
           Maximum rank =  0   Radius =  0.650 angstrom
                   Q00  =  -0.230287

H          x = -0.182128  y = -2.881532  z = -2.523792 angstrom
           Maximum rank =  0   Radius =  0.325 angstrom
                   Q00  =   0.074056

H          x = -0.471128  y = -1.147532  z = -2.292792 angstrom
           Maximum rank =  0   Radius =  0.325 angstrom
                   Q00  =   0.052888

H          x = -0.046128  y = -2.163532  z = -0.901792 angstrom
           Maximum rank =  0   Radius =  0.325 angstrom
                   Q00  =   0.092806

H          x = -2.416128  y = -1.675532  z = -0.860792 angstrom
           Maximum rank =  0   Radius =  0.325 angstrom
                   Q00  =   0.077241

H          x = -2.187148  y = -3.416210  z = -1.178652 angstrom
           Maximum rank =  0   Radius =  0.325 angstrom
                   Q00  =   0.082049

H          x = -2.648338  y = -2.264852  z = -2.517832 angstrom
           Maximum rank =  0   Radius =  0.325 angstrom
                   Q00  =   0.072652

Total multipoles referred to origin at
           x =   0.000000,  y =    0.000000,  z =    0.000000 angstrom
                   Q00  =  -0.000000

Finished at 21:55:50 on 26 Apr 2020

  DMA results are available in the Python driver through the
	  variable('DMA DISTRIBUTED MULTIPOLES')
  and
	  variable('DMA TOTAL MULTIPOLES')
  commands.

    Psi4 stopped on: Sunday, 26 April 2020 09:55PM
    Psi4 wall time for execution: 0:00:57.59

*** Psi4 exiting successfully. Buy a developer a beer!
