                               Psi4 1.3.2 release

  ==> Input File <==

--------------------------------------------------------------------------
import numpy as np
set {scf_type pk
basis cc-pvdz
d_convergence 10
gdma_switch   0
gdma_limit    0
gdma_origin   [ 0.0,  0.0,  0.0 ]
}
molecule test {
    units Angstrom
    0 1
    --
    0 1
    C                0.542648143486238    -1.534472905376065    -2.391158624865355
    C                0.995648143486238    -2.342472905376065    -3.609158624865355
    H               -0.122351856513762    -2.130472905376064    -1.765158624865355
    H                1.404648143486238    -1.237472905376065    -1.797158624865355
    H                0.010648143486238    -0.640472905376065    -2.718158624865355
    H                1.594648143486238    -1.702472905376065    -4.259158624865354
    H                0.130050143486238    -2.726762905376065    -4.168676624865355
    H                1.627254143486238    -3.176452905376065    -3.269229624865355
    C                1.386648143486238     2.884527094623935     0.007841375134645
    C                0.418648143486238    -0.683472905376065     1.011841375134645
    C                1.133648143486238     0.432527094623935     0.599841375134645
    C               -0.943351856513762    -0.554472905376065     1.211841375134645
    C                0.531648143486238     1.700527094623935     0.446841375134645
    C               -1.590351856513762     0.684527094623935     1.072841375134645
    C               -0.852351856513762     1.829527094623935     0.690841375134645
    O               -1.685351856513762    -1.666472905376065     1.559841375134645
    H                0.909648143486238    -1.640472905376065     1.128841375134645
    H                2.192648143486238     0.324527094623935     0.402841375134645
    H               -1.130351856513762    -2.447472905376065     1.665841375134645
    H               -2.651351856513762     0.754527094623935     1.266841375134645
    H                0.823648143486238     3.461527094623935    -0.726158624865355
    H                2.261648143486238     2.508527094623935    -0.516158624865355
    H               -1.343351856513762     2.787527094623935     0.582841375134645
    H                1.717525143486238     3.537797094623935     0.828670075134645

}
e, wfn = energy('scf', return_wfn=True)
gdma(wfn)
dmavals = variable('DMA DISTRIBUTED MULTIPOLES')
charges = np.array(dmavals)
print(charges)
np.save('SSI-074ALA-083TYR-1-dimer.npy', np.array(charges))--------------------------------------------------------------------------

*** tstart() called on ds3
*** at Tue Apr 28 19:55:50 2020

   => Loading Basis Set <=

    Name: CC-PVDZ
    Role: ORBITAL
    Keyword: BASIS
    atoms 1-2, 9-15  entry C          line   138 file /theoryfs2/ds/metcalf/miniconda2/envs/tf2gpu/share/psi4/basis/cc-pvdz.gbs
    atoms 3-8, 17-24 entry H          line    22 file /theoryfs2/ds/metcalf/miniconda2/envs/tf2gpu/share/psi4/basis/cc-pvdz.gbs
    atoms 16         entry O          line   198 file /theoryfs2/ds/metcalf/miniconda2/envs/tf2gpu/share/psi4/basis/cc-pvdz.gbs

         ---------------------------------------------------------
                                   SCF
               by Justin Turney, Rob Parrish, Andy Simmonett
                          and Daniel G. A. Smith
                              RHF Reference
                        1 Threads,    500 MiB Core
         ---------------------------------------------------------

  ==> Geometry <==

    Molecular point group: c1
    Full point group: C1

    Geometry (in Angstrom), charge = 0, multiplicity = 1:

       Center              X                  Y                   Z               Mass
    ------------   -----------------  -----------------  -----------------  -----------------
         C            0.542648143486    -1.534472905376    -2.391158624865    12.000000000000
         C            0.995648143486    -2.342472905376    -3.609158624865    12.000000000000
         H           -0.122351856514    -2.130472905376    -1.765158624865     1.007825032230
         H            1.404648143486    -1.237472905376    -1.797158624865     1.007825032230
         H            0.010648143486    -0.640472905376    -2.718158624865     1.007825032230
         H            1.594648143486    -1.702472905376    -4.259158624865     1.007825032230
         H            0.130050143486    -2.726762905376    -4.168676624865     1.007825032230
         H            1.627254143486    -3.176452905376    -3.269229624865     1.007825032230
         C            1.386648143486     2.884527094624     0.007841375135    12.000000000000
         C            0.418648143486    -0.683472905376     1.011841375135    12.000000000000
         C            1.133648143486     0.432527094624     0.599841375135    12.000000000000
         C           -0.943351856514    -0.554472905376     1.211841375135    12.000000000000
         C            0.531648143486     1.700527094624     0.446841375135    12.000000000000
         C           -1.590351856514     0.684527094624     1.072841375135    12.000000000000
         C           -0.852351856514     1.829527094624     0.690841375135    12.000000000000
         O           -1.685351856514    -1.666472905376     1.559841375135    15.994914619570
         H            0.909648143486    -1.640472905376     1.128841375135     1.007825032230
         H            2.192648143486     0.324527094624     0.402841375135     1.007825032230
         H           -1.130351856514    -2.447472905376     1.665841375135     1.007825032230
         H           -2.651351856514     0.754527094624     1.266841375135     1.007825032230
         H            0.823648143486     3.461527094624    -0.726158624865     1.007825032230
         H            2.261648143486     2.508527094624    -0.516158624865     1.007825032230
         H           -1.343351856514     2.787527094624     0.582841375135     1.007825032230
         H            1.717525143486     3.537797094624     0.828670075135     1.007825032230

  Running in c1 symmetry.

  Rotational constants: A =      0.04090  B =      0.02645  C =      0.01850 [cm^-1]
  Rotational constants: A =   1226.24267  B =    792.94377  C =    554.50093 [MHz]
  Nuclear repulsion =  495.517974588264906

  Charge       = 0
  Multiplicity = 1
  Electrons    = 76
  Nalpha       = 38
  Nbeta        = 38

  ==> Algorithm <==

  SCF Algorithm Type is PK.
  DIIS enabled.
  MOM disabled.
  Fractional occupation disabled.
  Guess Type is SAD.
  Energy threshold   = 1.00e-06
  Density threshold  = 1.00e-10
  Integral threshold = 0.00e+00

  ==> Primary Basis <==

  Basis Set: CC-PVDZ
    Blend: CC-PVDZ
    Number of shells: 102
    Number of basis function: 210
    Number of Cartesian functions: 220
    Spherical Harmonics?: true
    Max angular momentum: 2

  ==> Pre-Iterations <==

   -------------------------------------------------------
    Irrep   Nso     Nmo     Nalpha   Nbeta   Ndocc  Nsocc
   -------------------------------------------------------
     A        210     210       0       0       0       0
   -------------------------------------------------------
    Total     210     210      38      38      38       0
   -------------------------------------------------------

  ==> Integral Setup <==

  Using integral reordering PK algorithm.
  Sizing the integral batches needed.
  Building batch lookup table.
   Calculation information:
      Number of atoms:                  24
      Number of AO shells:             102
      Number of primitives:            290
      Number of atomic orbitals:       220
      Number of basis functions:       210

      Integral cutoff                 1.00e-12
      Number of threads:                 1

	Batch   1 pq = [       0,    9405] index = [             0,44231715] size =     44231715
	Batch   2 pq = [    9405,   13301] index = [      44231715,88464951] size =     44233236
	Batch   3 pq = [   13301,   16290] index = [      88464951,132690195] size =     44225244
	Batch   4 pq = [   16290,   18810] index = [     132690195,176917455] size =     44227260
	Batch   5 pq = [   18810,   21030] index = [     176917455,221140965] size =     44223510
	Batch   6 pq = [   21030,   22155] index = [     221140965,245433090] size =     24292125
  Task number: 23
  Buffer size: 11059200
  Buffer per thread: 2
  We computed 12003151 shell quartets total.
  Whereas there are 13799631 unique shell quartets.

  ==> DiskJK: Disk-Based J/K Matrices <==

    J tasked:                  Yes
    K tasked:                  Yes
    wK tasked:                  No
    Memory [MiB]:              375
    Schwarz Cutoff:          1E-12

    OpenMP threads:              1

  Minimum eigenvalue in the overlap matrix is 3.4677630635E-04.
  Using Symmetric Orthogonalization.

  SCF Guess: Superposition of Atomic Densities via on-the-fly atomic UHF.

  ==> Iterations <==

                        Total Energy        Delta E     RMS |[F,P]|

   @RHF iter SAD:  -422.51223977467890   -4.22512e+02   0.00000e+00
   @RHF iter   1:  -423.60199109859258   -1.08975e+00   2.95371e-03 DIIS
   @RHF iter   2:  -423.81568583891573   -2.13695e-01   1.23430e-03 DIIS
   @RHF iter   3:  -423.84911797474831   -3.34321e-02   2.79283e-04 DIIS
   @RHF iter   4:  -423.85193090684004   -2.81293e-03   1.12472e-04 DIIS
   @RHF iter   5:  -423.85225140384830   -3.20497e-04   2.08984e-05 DIIS
   @RHF iter   6:  -423.85226901169398   -1.76078e-05   6.66110e-06 DIIS
   @RHF iter   7:  -423.85227076299492   -1.75130e-06   2.22609e-06 DIIS
   @RHF iter   8:  -423.85227102642938   -2.63434e-07   8.27140e-07 DIIS
   @RHF iter   9:  -423.85227107283492   -4.64055e-08   3.36322e-07 DIIS
   @RHF iter  10:  -423.85227108221972   -9.38479e-09   1.47613e-07 DIIS
   @RHF iter  11:  -423.85227108522668   -3.00696e-09   6.17107e-08 DIIS
   @RHF iter  12:  -423.85227108571723   -4.90559e-10   2.65324e-08 DIIS
   @RHF iter  13:  -423.85227108577931   -6.20730e-11   8.02604e-09 DIIS
   @RHF iter  14:  -423.85227108578488   -5.57066e-12   2.41643e-09 DIIS
   @RHF iter  15:  -423.85227108578425    6.25278e-13   8.19495e-10 DIIS
   @RHF iter  16:  -423.85227108578562   -1.36424e-12   3.21195e-10 DIIS
   @RHF iter  17:  -423.85227108578334    2.27374e-12   1.47663e-10 DIIS
   @RHF iter  18:  -423.85227108578385   -5.11591e-13   7.39500e-11 DIIS
  Energy and wave function converged.

  ==> Post-Iterations <==

    Orbital Energies [Eh]
    ---------------------

    Doubly Occupied:

       1A    -20.580136     2A    -11.300297     3A    -11.244908
       4A    -11.240554     5A    -11.239335     6A    -11.235431
       7A    -11.233300     8A    -11.229858     9A    -11.216264
      10A    -11.210933    11A     -1.390039    12A     -1.144803
      13A     -1.033271    14A     -1.016239    15A     -1.012971
      16A     -0.924359    17A     -0.841665    18A     -0.832188
      19A     -0.799193    20A     -0.726687    21A     -0.664889
      22A     -0.641176    23A     -0.602435    24A     -0.594899
      25A     -0.593121    26A     -0.587231    27A     -0.581891
      28A     -0.568686    29A     -0.564300    30A     -0.524865
      31A     -0.497085    32A     -0.495435    33A     -0.486059
      34A     -0.482922    35A     -0.480441    36A     -0.462982
      37A     -0.336928    38A     -0.301006

    Virtual:

      39A      0.127057    40A      0.152181    41A      0.168891
      42A      0.182330    43A      0.199100    44A      0.214927
      45A      0.217925    46A      0.251344    47A      0.256781
      48A      0.260993    49A      0.263184    50A      0.270685
      51A      0.277505    52A      0.287086    53A      0.294367
      54A      0.316386    55A      0.365618    56A      0.372362
      57A      0.394066    58A      0.428119    59A      0.448646
      60A      0.478654    61A      0.491706    62A      0.503089
      63A      0.571375    64A      0.599741    65A      0.603136
      66A      0.611521    67A      0.636563    68A      0.642649
      69A      0.658728    70A      0.671552    71A      0.684597
      72A      0.687749    73A      0.699124    74A      0.725360
      75A      0.728675    76A      0.733302    77A      0.757139
      78A      0.771443    79A      0.779916    80A      0.798718
      81A      0.810753    82A      0.843647    83A      0.848756
      84A      0.863996    85A      0.873880    86A      0.878067
      87A      0.886429    88A      0.892396    89A      0.894137
      90A      0.897093    91A      0.903855    92A      0.919332
      93A      0.925253    94A      0.933208    95A      0.939049
      96A      0.948431    97A      0.952765    98A      0.962511
      99A      0.990966   100A      1.006323   101A      1.027431
     102A      1.063903   103A      1.110291   104A      1.127086
     105A      1.132097   106A      1.144074   107A      1.150755
     108A      1.169125   109A      1.197085   110A      1.224878
     111A      1.240530   112A      1.256143   113A      1.277549
     114A      1.289978   115A      1.298054   116A      1.306866
     117A      1.316458   118A      1.346835   119A      1.362378
     120A      1.384791   121A      1.470203   122A      1.476974
     123A      1.485028   124A      1.501074   125A      1.528681
     126A      1.545094   127A      1.588205   128A      1.610112
     129A      1.624897   130A      1.681976   131A      1.690051
     132A      1.695753   133A      1.703574   134A      1.729801
     135A      1.743710   136A      1.774313   137A      1.790978
     138A      1.806840   139A      1.856671   140A      1.864651
     141A      1.871190   142A      1.891519   143A      1.894835
     144A      1.895164   145A      1.913046   146A      1.914945
     147A      1.922111   148A      1.939817   149A      1.941267
     150A      1.949226   151A      1.958879   152A      1.960366
     153A      1.966805   154A      1.976075   155A      1.985691
     156A      2.002502   157A      2.028536   158A      2.046783
     159A      2.053160   160A      2.059519   161A      2.081685
     162A      2.102615   163A      2.122075   164A      2.139931
     165A      2.147278   166A      2.150142   167A      2.194017
     168A      2.218273   169A      2.247571   170A      2.266451
     171A      2.296295   172A      2.304503   173A      2.324402
     174A      2.336096   175A      2.369508   176A      2.419428
     177A      2.448926   178A      2.452798   179A      2.466389
     180A      2.472680   181A      2.478897   182A      2.519937
     183A      2.537209   184A      2.568614   185A      2.574420
     186A      2.592343   187A      2.646266   188A      2.738322
     189A      2.762643   190A      2.769914   191A      2.775875
     192A      2.792050   193A      2.802171   194A      2.839974
     195A      2.847694   196A      2.864146   197A      2.890524
     198A      2.940039   199A      2.955405   200A      2.965417
     201A      2.990701   202A      3.056783   203A      3.095035
     204A      3.242979   205A      3.254995   206A      3.339170
     207A      3.556055   208A      3.647870   209A      3.953178
     210A      4.178986

    Final Occupation by Irrep:
              A
    DOCC [    38 ]

  @RHF Final Energy:  -423.85227108578385

   => Energetics <=

    Nuclear Repulsion Energy =            495.5179745882649058
    One-Electron Energy =               -1556.9029225724489152
    Two-Electron Energy =                 637.5326768984001546
    Total Energy =                       -423.8522710857838547

Computation Completed

Properties will be evaluated at   0.000000,   0.000000,   0.000000 [a0]

Properties computed using the SCF density matrix

  Nuclear Dipole Moment: [e a0]
     X:     6.9526      Y:    -2.1901      Z:   -12.5021

  Electronic Dipole Moment: [e a0]
     X:    -6.3986      Y:     2.1177      Z:    12.4679

  Dipole Moment: [e a0]
     X:     0.5540      Y:    -0.0724      Z:    -0.0342     Total:     0.5597

  Dipole Moment: [D]
     X:     1.4081      Y:    -0.1841      Z:    -0.0868     Total:     1.4227

*** tstop() called on ds3 at Tue Apr 28 19:57:53 2020
Module time:
	user time   =      86.38 seconds =       1.44 minutes
	system time =      40.23 seconds =       0.67 minutes
	total time  =        123 seconds =       2.05 minutes
Total time:
	user time   =      86.38 seconds =       1.44 minutes
	system time =      40.23 seconds =       0.67 minutes
	total time  =        123 seconds =       2.05 minutes
                                     G D M A

                                 by Anthony Stone

                           version 2.2.06, 22 June 2011

               Distributed Multipoles from Gaussian wavefunctions

Starting at 19:57:53 on 28 Apr 2020

Using SCF density matrix from file ./SSI/SSI-074ALA-083TYR-1-dimer.test.15031.fchk

                         Distributed Multipole Analysis

Standard DMA

Positions and radii in angstrom
Multipole moments in atomic units, ea_0^k for rank k

C          x =  0.542648  y = -1.534473  z = -2.391159 angstrom
           Maximum rank =  0   Radius =  0.650 angstrom
                   Q00  =  -0.220199

C          x =  0.995648  y = -2.342473  z = -3.609159 angstrom
           Maximum rank =  0   Radius =  0.650 angstrom
                   Q00  =  -0.240846

H          x = -0.122352  y = -2.130473  z = -1.765159 angstrom
           Maximum rank =  0   Radius =  0.325 angstrom
                   Q00  =   0.073965

H          x =  1.404648  y = -1.237473  z = -1.797159 angstrom
           Maximum rank =  0   Radius =  0.325 angstrom
                   Q00  =   0.073847

H          x =  0.010648  y = -0.640473  z = -2.718159 angstrom
           Maximum rank =  0   Radius =  0.325 angstrom
                   Q00  =   0.082802

H          x =  1.594648  y = -1.702473  z = -4.259159 angstrom
           Maximum rank =  0   Radius =  0.325 angstrom
                   Q00  =   0.077686

H          x =  0.130050  y = -2.726763  z = -4.168677 angstrom
           Maximum rank =  0   Radius =  0.325 angstrom
                   Q00  =   0.080145

H          x =  1.627254  y = -3.176453  z = -3.269230 angstrom
           Maximum rank =  0   Radius =  0.325 angstrom
                   Q00  =   0.072670

C          x =  1.386648  y =  2.884527  z =  0.007841 angstrom
           Maximum rank =  0   Radius =  0.650 angstrom
                   Q00  =  -0.201395

C          x =  0.418648  y = -0.683473  z =  1.011841 angstrom
           Maximum rank =  0   Radius =  0.650 angstrom
                   Q00  =  -0.172297

C          x =  1.133648  y =  0.432527  z =  0.599841 angstrom
           Maximum rank =  0   Radius =  0.650 angstrom
                   Q00  =   0.037300

C          x = -0.943352  y = -0.554473  z =  1.211841 angstrom
           Maximum rank =  0   Radius =  0.650 angstrom
                   Q00  =   0.311209

C          x =  0.531648  y =  1.700527  z =  0.446841 angstrom
           Maximum rank =  0   Radius =  0.650 angstrom
                   Q00  =  -0.145714

C          x = -1.590352  y =  0.684527  z =  1.072841 angstrom
           Maximum rank =  0   Radius =  0.650 angstrom
                   Q00  =  -0.104670

C          x = -0.852352  y =  1.829527  z =  0.690841 angstrom
           Maximum rank =  0   Radius =  0.650 angstrom
                   Q00  =  -0.066714

O          x = -1.685352  y = -1.666473  z =  1.559841 angstrom
           Maximum rank =  0   Radius =  0.650 angstrom
                   Q00  =  -0.654030

H          x =  0.909648  y = -1.640473  z =  1.128841 angstrom
           Maximum rank =  0   Radius =  0.325 angstrom
                   Q00  =   0.072434

H          x =  2.192648  y =  0.324527  z =  0.402841 angstrom
           Maximum rank =  0   Radius =  0.325 angstrom
                   Q00  =   0.067255

H          x = -1.130352  y = -2.447473  z =  1.665841 angstrom
           Maximum rank =  0   Radius =  0.325 angstrom
                   Q00  =   0.405538

H          x = -2.651352  y =  0.754527  z =  1.266841 angstrom
           Maximum rank =  0   Radius =  0.325 angstrom
                   Q00  =   0.085133

H          x =  0.823648  y =  3.461527  z = -0.726159 angstrom
           Maximum rank =  0   Radius =  0.325 angstrom
                   Q00  =   0.096838

H          x =  2.261648  y =  2.508527  z = -0.516159 angstrom
           Maximum rank =  0   Radius =  0.325 angstrom
                   Q00  =   0.096397

H          x = -1.343352  y =  2.787527  z =  0.582841 angstrom
           Maximum rank =  0   Radius =  0.325 angstrom
                   Q00  =   0.070655

H          x =  1.717525  y =  3.537797  z =  0.828670 angstrom
           Maximum rank =  0   Radius =  0.325 angstrom
                   Q00  =   0.101992

Total multipoles referred to origin at
           x =   0.000000,  y =    0.000000,  z =    0.000000 angstrom
                   Q00  =  -0.000000

Finished at 19:57:53 on 28 Apr 2020

  DMA results are available in the Python driver through the
	  variable('DMA DISTRIBUTED MULTIPOLES')
  and
	  variable('DMA TOTAL MULTIPOLES')
  commands.

    Psi4 stopped on: Tuesday, 28 April 2020 07:57PM
    Psi4 wall time for execution: 0:02:02.44

*** Psi4 exiting successfully. Buy a developer a beer!
