                               Psi4 1.3.2 release

  ==> Input File <==

--------------------------------------------------------------------------
import numpy as np
set {scf_type pk
basis cc-pvdz
d_convergence 10
gdma_switch   0
gdma_limit    0
gdma_origin   [ 0.0,  0.0,  0.0 ]
}
molecule test {
    units Angstrom
    1 1
    --
    1 1
    C                1.522853686039015    -3.466125822265385    -2.146816722121296
    C                0.961853686039015    -1.783125822265386    -0.372816722121296
    N                0.504853686039015    -0.568125822265386    -0.066816722121296
    N                1.170853686039015    -2.116125822265386    -1.642816722121296
    N                1.135853686039015    -2.685125822265386     0.580183277878704
    H                0.306853686039015     0.079874177734614    -0.834816722121296
    H                0.364853686039015    -0.284125822265386     0.891183277878704
    H                1.043853686039015    -1.378125822265386    -2.342816722121296
    H                1.534853686039015    -3.584125822265386     0.369183277878704
    H                0.895853686039015    -2.413125822265386     1.529183277878704
    H                2.279853686039015    -3.929125822265386    -1.509816722121296
    H                1.953853686039015    -3.340125822265386    -3.142816722121296
    H                0.642713686039015    -4.120585822265386    -2.230739722121296
    C               -2.319146313960985     3.148874177734614     1.869183277878704
    C               -1.256146313960985     2.652874177734614     0.893183277878704
    O               -0.299146313960985     2.002874177734614     1.346183277878704
    N               -1.411146313960985     2.862874177734614    -0.421816722121296
    H               -1.825146313960985     3.735874177734614     2.640183277878704
    H               -2.750146313960985     2.267874177734615     2.347183277878704
    H               -0.831146313960985     2.313874177734614    -1.059816722121296
    H               -2.208146313960985     3.363874177734614    -0.792816722121296
    H               -3.132876313960985     3.748654177734614     1.435482077878704

}
e, wfn = energy('scf', return_wfn=True)
gdma(wfn)
dmavals = variable('DMA DISTRIBUTED MULTIPOLES')
charges = np.array(dmavals)
print(charges)
np.save('SSI-058ARG-141GLN-1-dimer.npy', np.array(charges))--------------------------------------------------------------------------

*** tstart() called on ds3
*** at Sun Apr 26 18:42:49 2020

   => Loading Basis Set <=

    Name: CC-PVDZ
    Role: ORBITAL
    Keyword: BASIS
    atoms 1-2, 14-15  entry C          line   138 file /theoryfs2/ds/metcalf/miniconda2/envs/tf2gpu/share/psi4/basis/cc-pvdz.gbs
    atoms 3-5, 17     entry N          line   168 file /theoryfs2/ds/metcalf/miniconda2/envs/tf2gpu/share/psi4/basis/cc-pvdz.gbs
    atoms 6-13, 18-22 entry H          line    22 file /theoryfs2/ds/metcalf/miniconda2/envs/tf2gpu/share/psi4/basis/cc-pvdz.gbs
    atoms 16          entry O          line   198 file /theoryfs2/ds/metcalf/miniconda2/envs/tf2gpu/share/psi4/basis/cc-pvdz.gbs

         ---------------------------------------------------------
                                   SCF
               by Justin Turney, Rob Parrish, Andy Simmonett
                          and Daniel G. A. Smith
                              RHF Reference
                        1 Threads,    500 MiB Core
         ---------------------------------------------------------

  ==> Geometry <==

    Molecular point group: c1
    Full point group: C1

    Geometry (in Angstrom), charge = 1, multiplicity = 1:

       Center              X                  Y                   Z               Mass
    ------------   -----------------  -----------------  -----------------  -----------------
         C            1.522853686039    -3.466125822265    -2.146816722121    12.000000000000
         C            0.961853686039    -1.783125822265    -0.372816722121    12.000000000000
         N            0.504853686039    -0.568125822265    -0.066816722121    14.003074004430
         N            1.170853686039    -2.116125822265    -1.642816722121    14.003074004430
         N            1.135853686039    -2.685125822265     0.580183277879    14.003074004430
         H            0.306853686039     0.079874177735    -0.834816722121     1.007825032230
         H            0.364853686039    -0.284125822265     0.891183277879     1.007825032230
         H            1.043853686039    -1.378125822265    -2.342816722121     1.007825032230
         H            1.534853686039    -3.584125822265     0.369183277879     1.007825032230
         H            0.895853686039    -2.413125822265     1.529183277879     1.007825032230
         H            2.279853686039    -3.929125822265    -1.509816722121     1.007825032230
         H            1.953853686039    -3.340125822265    -3.142816722121     1.007825032230
         H            0.642713686039    -4.120585822265    -2.230739722121     1.007825032230
         C           -2.319146313961     3.148874177735     1.869183277879    12.000000000000
         C           -1.256146313961     2.652874177735     0.893183277879    12.000000000000
         O           -0.299146313961     2.002874177735     1.346183277879    15.994914619570
         N           -1.411146313961     2.862874177735    -0.421816722121    14.003074004430
         H           -1.825146313961     3.735874177735     2.640183277879     1.007825032230
         H           -2.750146313961     2.267874177735     2.347183277879     1.007825032230
         H           -0.831146313961     2.313874177735    -1.059816722121     1.007825032230
         H           -2.208146313961     3.363874177735    -0.792816722121     1.007825032230
         H           -3.132876313961     3.748654177735     1.435482077879     1.007825032230

  Running in c1 symmetry.

  Rotational constants: A =      0.12689  B =      0.01413  C =      0.01309 [cm^-1]
  Rotational constants: A =   3803.93655  B =    423.69576  C =    392.50553 [MHz]
  Nuclear repulsion =  441.926871970849220

  Charge       = 1
  Multiplicity = 1
  Electrons    = 72
  Nalpha       = 36
  Nbeta        = 36

  ==> Algorithm <==

  SCF Algorithm Type is PK.
  DIIS enabled.
  MOM disabled.
  Fractional occupation disabled.
  Guess Type is SAD.
  Energy threshold   = 1.00e-06
  Density threshold  = 1.00e-10
  Integral threshold = 0.00e+00

  ==> Primary Basis <==

  Basis Set: CC-PVDZ
    Blend: CC-PVDZ
    Number of shells: 93
    Number of basis function: 191
    Number of Cartesian functions: 200
    Spherical Harmonics?: true
    Max angular momentum: 2

  ==> Pre-Iterations <==

   -------------------------------------------------------
    Irrep   Nso     Nmo     Nalpha   Nbeta   Ndocc  Nsocc
   -------------------------------------------------------
     A        191     191       0       0       0       0
   -------------------------------------------------------
    Total     191     191      36      36      36       0
   -------------------------------------------------------

  ==> Integral Setup <==

  Using integral reordering PK algorithm.
  Sizing the integral batches needed.
  Building batch lookup table.
   Calculation information:
      Number of atoms:                  22
      Number of AO shells:              93
      Number of primitives:            263
      Number of atomic orbitals:       200
      Number of basis functions:       191

      Integral cutoff                 1.00e-12
      Number of threads:                 1

	Batch   1 pq = [       0,    9405] index = [             0,44231715] size =     44231715
	Batch   2 pq = [    9405,   13301] index = [      44231715,88464951] size =     44233236
	Batch   3 pq = [   13301,   16290] index = [      88464951,132690195] size =     44225244
	Batch   4 pq = [   16290,   18336] index = [     132690195,168113616] size =     35423421
  Task number: 16
  Buffer size: 11059200
  Buffer per thread: 2
  We computed 6288865 shell quartets total.
  Whereas there are 9555006 unique shell quartets.

  ==> DiskJK: Disk-Based J/K Matrices <==

    J tasked:                  Yes
    K tasked:                  Yes
    wK tasked:                  No
    Memory [MiB]:              375
    Schwarz Cutoff:          1E-12

    OpenMP threads:              1

  Minimum eigenvalue in the overlap matrix is 4.0526061509E-03.
  Using Symmetric Orthogonalization.

  SCF Guess: Superposition of Atomic Densities via on-the-fly atomic UHF.

  ==> Iterations <==

                        Total Energy        Delta E     RMS |[F,P]|

   @RHF iter SAD:  -450.49994700946320   -4.50500e+02   0.00000e+00
   @RHF iter   1:  -451.32518510064062   -8.25238e-01   3.68486e-03 DIIS
   @RHF iter   2:  -451.53268415074643   -2.07499e-01   1.91133e-03 DIIS
   @RHF iter   3:  -451.58307766064547   -5.03935e-02   4.58501e-04 DIIS
   @RHF iter   4:  -451.58734638061560   -4.26872e-03   1.70494e-04 DIIS
   @RHF iter   5:  -451.58795732373642   -6.10943e-04   2.95159e-05 DIIS
   @RHF iter   6:  -451.58799447174454   -3.71480e-05   1.26178e-05 DIIS
   @RHF iter   7:  -451.58799968383784   -5.21209e-06   3.92818e-06 DIIS
   @RHF iter   8:  -451.58800053090056   -8.47063e-07   1.26981e-06 DIIS
   @RHF iter   9:  -451.58800061861456   -8.77140e-08   4.62921e-07 DIIS
   @RHF iter  10:  -451.58800062956573   -1.09512e-08   1.80352e-07 DIIS
   @RHF iter  11:  -451.58800063103786   -1.47213e-09   3.71476e-08 DIIS
   @RHF iter  12:  -451.58800063110078   -6.29257e-11   1.32998e-08 DIIS
   @RHF iter  13:  -451.58800063110647   -5.68434e-12   4.64366e-09 DIIS
   @RHF iter  14:  -451.58800063111192   -5.45697e-12   1.73824e-09 DIIS
   @RHF iter  15:  -451.58800063111318   -1.25056e-12   7.92467e-10 DIIS
   @RHF iter  16:  -451.58800063111090    2.27374e-12   3.15242e-10 DIIS
   @RHF iter  17:  -451.58800063111124   -3.41061e-13   1.17013e-10 DIIS
   @RHF iter  18:  -451.58800063111028    9.66338e-13   3.75592e-11 DIIS
  Energy and wave function converged.

  ==> Post-Iterations <==

    Orbital Energies [Eh]
    ---------------------

    Doubly Occupied:

       1A    -20.619432     2A    -15.777846     3A    -15.777314
       4A    -15.768209     5A    -15.703392     6A    -11.576607
       7A    -11.465032     8A    -11.438934     9A    -11.336704
      10A     -1.525701    11A     -1.474671    12A     -1.384078
      13A     -1.370752    14A     -1.320973    15A     -1.130902
      16A     -1.093746    17A     -1.019524    18A     -0.960593
      19A     -0.919672    20A     -0.905593    21A     -0.844037
      22A     -0.840129    23A     -0.829346    24A     -0.807680
      25A     -0.781107    26A     -0.762181    27A     -0.733119
      28A     -0.717390    29A     -0.709612    30A     -0.676603
      31A     -0.649206    32A     -0.620660    33A     -0.600928
      34A     -0.574879    35A     -0.525228    36A     -0.518042

    Virtual:

      37A     -0.004669    38A      0.027091    39A      0.035206
      40A      0.049467    41A      0.052256    42A      0.086025
      43A      0.089917    44A      0.108344    45A      0.121569
      46A      0.131616    47A      0.138492    48A      0.146788
      49A      0.167706    50A      0.185631    51A      0.192951
      52A      0.221581    53A      0.280116    54A      0.292734
      55A      0.337451    56A      0.344350    57A      0.372375
      58A      0.453807    59A      0.461973    60A      0.463366
      61A      0.521690    62A      0.529981    63A      0.533405
      64A      0.539468    65A      0.547827    66A      0.554125
      67A      0.566114    68A      0.590118    69A      0.602874
      70A      0.622327    71A      0.637493    72A      0.662167
      73A      0.680110    74A      0.698668    75A      0.708353
      76A      0.715304    77A      0.746149    78A      0.759239
      79A      0.761686    80A      0.766550    81A      0.784223
      82A      0.799867    83A      0.807059    84A      0.821147
      85A      0.835121    86A      0.848306    87A      0.858839
      88A      0.897335    89A      0.904165    90A      0.919472
      91A      0.926629    92A      0.952650    93A      0.976656
      94A      0.992132    95A      1.022621    96A      1.044451
      97A      1.068023    98A      1.129089    99A      1.135445
     100A      1.161731   101A      1.196691   102A      1.203621
     103A      1.213990   104A      1.238578   105A      1.256481
     106A      1.271681   107A      1.288415   108A      1.322563
     109A      1.329865   110A      1.361527   111A      1.374647
     112A      1.413497   113A      1.475817   114A      1.501040
     115A      1.523184   116A      1.537090   117A      1.550855
     118A      1.568107   119A      1.577746   120A      1.592801
     121A      1.619957   122A      1.671910   123A      1.706750
     124A      1.712083   125A      1.718404   126A      1.729747
     127A      1.736672   128A      1.744028   129A      1.753019
     130A      1.791084   131A      1.791972   132A      1.796948
     133A      1.806080   134A      1.820646   135A      1.829890
     136A      1.841129   137A      1.849965   138A      1.877824
     139A      1.900565   140A      1.949071   141A      1.963086
     142A      1.976742   143A      1.993719   144A      2.020759
     145A      2.029742   146A      2.131845   147A      2.132401
     148A      2.148780   149A      2.175837   150A      2.227448
     151A      2.238343   152A      2.271788   153A      2.283634
     154A      2.290495   155A      2.321700   156A      2.325904
     157A      2.347299   158A      2.351858   159A      2.360549
     160A      2.407156   161A      2.435641   162A      2.452474
     163A      2.457247   164A      2.534341   165A      2.546191
     166A      2.590425   167A      2.603520   168A      2.631310
     169A      2.651451   170A      2.668939   171A      2.705191
     172A      2.706289   173A      2.750990   174A      2.763756
     175A      2.787005   176A      2.809468   177A      2.823794
     178A      2.845889   179A      2.888947   180A      2.969475
     181A      3.011102   182A      3.063404   183A      3.106113
     184A      3.133129   185A      3.149638   186A      3.368080
     187A      3.388473   188A      3.548548   189A      3.624813
     190A      3.728348   191A      3.791511

    Final Occupation by Irrep:
              A
    DOCC [    36 ]

  @RHF Final Energy:  -451.58800063111028

   => Energetics <=

    Nuclear Repulsion Energy =            441.9268719708492199
    One-Electron Energy =               -1479.5100994868166708
    Two-Electron Energy =                 585.9952268848570611
    Total Energy =                       -451.5880006311102761

Computation Completed

Properties will be evaluated at   0.000000,   0.000000,   0.000000 [a0]

Properties computed using the SCF density matrix

  Nuclear Dipole Moment: [e a0]
     X:    -1.6224      Y:    -3.3011      Z:    -2.5214

  Electronic Dipole Moment: [e a0]
     X:     1.9231      Y:     0.7991      Z:     0.8207

  Dipole Moment: [e a0]
     X:     0.3007      Y:    -2.5020      Z:    -1.7006     Total:     3.0402

  Dipole Moment: [D]
     X:     0.7643      Y:    -6.3595      Z:    -4.3226     Total:     7.7274

*** tstop() called on ds3 at Sun Apr 26 18:44:01 2020
Module time:
	user time   =      47.48 seconds =       0.79 minutes
	system time =      27.25 seconds =       0.45 minutes
	total time  =         72 seconds =       1.20 minutes
Total time:
	user time   =      47.48 seconds =       0.79 minutes
	system time =      27.25 seconds =       0.45 minutes
	total time  =         72 seconds =       1.20 minutes
                                     G D M A

                                 by Anthony Stone

                           version 2.2.06, 22 June 2011

               Distributed Multipoles from Gaussian wavefunctions

Starting at 18:44:1 on 26 Apr 2020

Using SCF density matrix from file ./SSI/SSI-058ARG-141GLN-1-dimer.test.24782.fchk

                         Distributed Multipole Analysis

Standard DMA

Positions and radii in angstrom
Multipole moments in atomic units, ea_0^k for rank k

C          x =  1.522854  y = -3.466126  z = -2.146817 angstrom
           Maximum rank =  0   Radius =  0.650 angstrom
                   Q00  =  -0.126792

C          x =  0.961854  y = -1.783126  z = -0.372817 angstrom
           Maximum rank =  0   Radius =  0.650 angstrom
                   Q00  =   1.071389

N          x =  0.504854  y = -0.568126  z = -0.066817 angstrom
           Maximum rank =  0   Radius =  0.650 angstrom
                   Q00  =  -0.597535

N          x =  1.170854  y = -2.116126  z = -1.642817 angstrom
           Maximum rank =  0   Radius =  0.650 angstrom
                   Q00  =  -0.502341

N          x =  1.135854  y = -2.685126  z =  0.580183 angstrom
           Maximum rank =  0   Radius =  0.650 angstrom
                   Q00  =  -0.583199

H          x =  0.306854  y =  0.079874  z = -0.834817 angstrom
           Maximum rank =  0   Radius =  0.325 angstrom
                   Q00  =   0.256321

H          x =  0.364854  y = -0.284126  z =  0.891183 angstrom
           Maximum rank =  0   Radius =  0.325 angstrom
                   Q00  =   0.296014

H          x =  1.043854  y = -1.378126  z = -2.342817 angstrom
           Maximum rank =  0   Radius =  0.325 angstrom
                   Q00  =   0.229548

H          x =  1.534854  y = -3.584126  z =  0.369183 angstrom
           Maximum rank =  0   Radius =  0.325 angstrom
                   Q00  =   0.273320

H          x =  0.895854  y = -2.413126  z =  1.529183 angstrom
           Maximum rank =  0   Radius =  0.325 angstrom
                   Q00  =   0.268678

H          x =  2.279854  y = -3.929126  z = -1.509817 angstrom
           Maximum rank =  0   Radius =  0.325 angstrom
                   Q00  =   0.115106

H          x =  1.953854  y = -3.340126  z = -3.142817 angstrom
           Maximum rank =  0   Radius =  0.325 angstrom
                   Q00  =   0.162127

H          x =  0.642714  y = -4.120586  z = -2.230740 angstrom
           Maximum rank =  0   Radius =  0.325 angstrom
                   Q00  =   0.130311

C          x = -2.319146  y =  3.148874  z =  1.869183 angstrom
           Maximum rank =  0   Radius =  0.650 angstrom
                   Q00  =  -0.259323

C          x = -1.256146  y =  2.652874  z =  0.893183 angstrom
           Maximum rank =  0   Radius =  0.650 angstrom
                   Q00  =   0.790224

O          x = -0.299146  y =  2.002874  z =  1.346183 angstrom
           Maximum rank =  0   Radius =  0.650 angstrom
                   Q00  =  -0.821039

N          x = -1.411146  y =  2.862874  z = -0.421817 angstrom
           Maximum rank =  0   Radius =  0.650 angstrom
                   Q00  =  -0.517208

H          x = -1.825146  y =  3.735874  z =  2.640183 angstrom
           Maximum rank =  0   Radius =  0.325 angstrom
                   Q00  =   0.148182

H          x = -2.750146  y =  2.267874  z =  2.347183 angstrom
           Maximum rank =  0   Radius =  0.325 angstrom
                   Q00  =   0.137661

H          x = -0.831146  y =  2.313874  z = -1.059817 angstrom
           Maximum rank =  0   Radius =  0.325 angstrom
                   Q00  =   0.199898

H          x = -2.208146  y =  3.363874  z = -0.792817 angstrom
           Maximum rank =  0   Radius =  0.325 angstrom
                   Q00  =   0.230677

H          x = -3.132876  y =  3.748654  z =  1.435482 angstrom
           Maximum rank =  0   Radius =  0.325 angstrom
                   Q00  =   0.097982

Total multipoles referred to origin at
           x =   0.000000,  y =    0.000000,  z =    0.000000 angstrom
                   Q00  =   1.000000

Finished at 18:44:1 on 26 Apr 2020

  DMA results are available in the Python driver through the
	  variable('DMA DISTRIBUTED MULTIPOLES')
  and
	  variable('DMA TOTAL MULTIPOLES')
  commands.

    Psi4 stopped on: Sunday, 26 April 2020 06:44PM
    Psi4 wall time for execution: 0:01:11.74

*** Psi4 exiting successfully. Buy a developer a beer!
