                               Psi4 1.3.2 release

  ==> Input File <==

--------------------------------------------------------------------------
import numpy as np
set {scf_type pk
basis cc-pvdz
d_convergence 10
gdma_switch   0
gdma_limit    0
gdma_origin   [ 0.0,  0.0,  0.0 ]
}
molecule test {
    units Angstrom
    0 1
    --
    0 1
    C                3.542165070045397     2.114973719450040    -0.541186754177239
    C                0.037165070045397    -0.335026280549961    -0.441186754177240
    C                1.128165070045397    -0.655026280549961     0.355813245822761
    C                0.084165070045397     0.782973719450039    -1.269186754177239
    C                2.275165070045397     0.138973719450039     0.315813245822760
    C                1.223165070045397     1.580973719450040    -1.291186754177239
    C                2.328165070045397     1.253973719450040    -0.516186754177239
    H               -0.842834929954603    -0.962026280549961    -0.433186754177240
    H                1.096165070045397    -1.530026280549960     0.989813245822761
    H               -0.769834929954603     1.036973719450039    -1.884186754177239
    H                3.119165070045397    -0.147026280549961     0.921813245822760
    H                1.237165070045397     2.469973719450040    -1.903186754177240
    H                3.287165070045397     3.060973719450040    -1.018186754177240
    H                4.299165070045397     1.616973719450039    -1.147186754177240
    H                3.953855070045397     2.322616719450040     0.457513245822760
    C               -2.985834929954603    -1.404026280549960     1.539813245822760
    C               -3.717834929954603    -0.344026280549961     0.714813245822761
    C               -3.003834929954603    -2.769026280549960     0.829813245822761
    H               -1.956834929954603    -1.083026280549961     1.707813245822760
    H               -3.467834929954603    -1.545026280549960     2.505813245822761
    H               -4.695834929954603    -0.747026280549961     0.444813245822761
    H               -3.174834929954603    -0.162026280549961    -0.214186754177239
    H               -4.036834929954603    -3.104026280549960     0.708813245822761
    H               -2.557834929954603    -2.654026280549961    -0.160186754177239
    H               -3.891125929954603     0.610144919450039     1.233973245822761
    H               -2.441836929954603    -3.526283280549960     1.396133245822760

}
e, wfn = energy('scf', return_wfn=True)
gdma(wfn)
dmavals = variable('DMA DISTRIBUTED MULTIPOLES')
charges = np.array(dmavals)
print(charges)
np.save('SSI-024PHE-130LYS-1-dimer.npy', np.array(charges))--------------------------------------------------------------------------

*** tstart() called on ds3
*** at Tue Apr 28 09:05:11 2020

   => Loading Basis Set <=

    Name: CC-PVDZ
    Role: ORBITAL
    Keyword: BASIS
    atoms 1-7, 16-18  entry C          line   138 file /theoryfs2/ds/metcalf/miniconda2/envs/tf2gpu/share/psi4/basis/cc-pvdz.gbs
    atoms 8-15, 19-26 entry H          line    22 file /theoryfs2/ds/metcalf/miniconda2/envs/tf2gpu/share/psi4/basis/cc-pvdz.gbs

         ---------------------------------------------------------
                                   SCF
               by Justin Turney, Rob Parrish, Andy Simmonett
                          and Daniel G. A. Smith
                              RHF Reference
                        1 Threads,    500 MiB Core
         ---------------------------------------------------------

  ==> Geometry <==

    Molecular point group: c1
    Full point group: C1

    Geometry (in Angstrom), charge = 0, multiplicity = 1:

       Center              X                  Y                   Z               Mass
    ------------   -----------------  -----------------  -----------------  -----------------
         C            3.542165070045     2.114973719450    -0.541186754177    12.000000000000
         C            0.037165070045    -0.335026280550    -0.441186754177    12.000000000000
         C            1.128165070045    -0.655026280550     0.355813245823    12.000000000000
         C            0.084165070045     0.782973719450    -1.269186754177    12.000000000000
         C            2.275165070045     0.138973719450     0.315813245823    12.000000000000
         C            1.223165070045     1.580973719450    -1.291186754177    12.000000000000
         C            2.328165070045     1.253973719450    -0.516186754177    12.000000000000
         H           -0.842834929955    -0.962026280550    -0.433186754177     1.007825032230
         H            1.096165070045    -1.530026280550     0.989813245823     1.007825032230
         H           -0.769834929955     1.036973719450    -1.884186754177     1.007825032230
         H            3.119165070045    -0.147026280550     0.921813245823     1.007825032230
         H            1.237165070045     2.469973719450    -1.903186754177     1.007825032230
         H            3.287165070045     3.060973719450    -1.018186754177     1.007825032230
         H            4.299165070045     1.616973719450    -1.147186754177     1.007825032230
         H            3.953855070045     2.322616719450     0.457513245823     1.007825032230
         C           -2.985834929955    -1.404026280550     1.539813245823    12.000000000000
         C           -3.717834929955    -0.344026280550     0.714813245823    12.000000000000
         C           -3.003834929955    -2.769026280550     0.829813245823    12.000000000000
         H           -1.956834929955    -1.083026280550     1.707813245823     1.007825032230
         H           -3.467834929955    -1.545026280550     2.505813245823     1.007825032230
         H           -4.695834929955    -0.747026280550     0.444813245823     1.007825032230
         H           -3.174834929955    -0.162026280550    -0.214186754177     1.007825032230
         H           -4.036834929955    -3.104026280550     0.708813245823     1.007825032230
         H           -2.557834929955    -2.654026280550    -0.160186754177     1.007825032230
         H           -3.891125929955     0.610144919450     1.233973245823     1.007825032230
         H           -2.441836929955    -3.526283280550     1.396133245823     1.007825032230

  Running in c1 symmetry.

  Rotational constants: A =      0.09896  B =      0.01491  C =      0.01385 [cm^-1]
  Rotational constants: A =   2966.74784  B =    446.89572  C =    415.36008 [MHz]
  Nuclear repulsion =  479.570044947721726

  Charge       = 0
  Multiplicity = 1
  Electrons    = 76
  Nalpha       = 38
  Nbeta        = 38

  ==> Algorithm <==

  SCF Algorithm Type is PK.
  DIIS enabled.
  MOM disabled.
  Fractional occupation disabled.
  Guess Type is SAD.
  Energy threshold   = 1.00e-06
  Density threshold  = 1.00e-10
  Integral threshold = 0.00e+00

  ==> Primary Basis <==

  Basis Set: CC-PVDZ
    Blend: CC-PVDZ
    Number of shells: 108
    Number of basis function: 220
    Number of Cartesian functions: 230
    Spherical Harmonics?: true
    Max angular momentum: 2

  ==> Pre-Iterations <==

   -------------------------------------------------------
    Irrep   Nso     Nmo     Nalpha   Nbeta   Ndocc  Nsocc
   -------------------------------------------------------
     A        220     220       0       0       0       0
   -------------------------------------------------------
    Total     220     220      38      38      38       0
   -------------------------------------------------------

  ==> Integral Setup <==

  Using integral reordering PK algorithm.
  Sizing the integral batches needed.
  Building batch lookup table.
   Calculation information:
      Number of atoms:                  26
      Number of AO shells:             108
      Number of primitives:            300
      Number of atomic orbitals:       230
      Number of basis functions:       220

      Integral cutoff                 1.00e-12
      Number of threads:                 1

	Batch   1 pq = [       0,    9405] index = [             0,44231715] size =     44231715
	Batch   2 pq = [    9405,   13301] index = [      44231715,88464951] size =     44233236
	Batch   3 pq = [   13301,   16290] index = [      88464951,132690195] size =     44225244
	Batch   4 pq = [   16290,   18810] index = [     132690195,176917455] size =     44227260
	Batch   5 pq = [   18810,   21030] index = [     176917455,221140965] size =     44223510
	Batch   6 pq = [   21030,   23037] index = [     221140965,265363203] size =     44222238
	Batch   7 pq = [   23037,   24310] index = [     265363203,295500205] size =     30137002
  Task number: 27
  Buffer size: 11059200
  Buffer per thread: 2
  We computed 13921514 shell quartets total.
  Whereas there are 17325441 unique shell quartets.

  ==> DiskJK: Disk-Based J/K Matrices <==

    J tasked:                  Yes
    K tasked:                  Yes
    wK tasked:                  No
    Memory [MiB]:              375
    Schwarz Cutoff:          1E-12

    OpenMP threads:              1

  Minimum eigenvalue in the overlap matrix is 2.9933424311E-04.
  Using Symmetric Orthogonalization.

  SCF Guess: Superposition of Atomic Densities via on-the-fly atomic UHF.

  ==> Iterations <==

                        Total Energy        Delta E     RMS |[F,P]|

   @RHF iter SAD:  -386.93049074224467   -3.86930e+02   0.00000e+00
   @RHF iter   1:  -387.77087347183209   -8.40383e-01   2.75138e-03 DIIS
   @RHF iter   2:  -387.99060576918191   -2.19732e-01   1.15393e-03 DIIS
   @RHF iter   3:  -388.02567400929024   -3.50682e-02   2.50564e-04 DIIS
   @RHF iter   4:  -388.02855669332075   -2.88268e-03   5.31059e-05 DIIS
   @RHF iter   5:  -388.02864745013363   -9.07568e-05   1.67290e-05 DIIS
   @RHF iter   6:  -388.02865610771300   -8.65758e-06   4.88265e-06 DIIS
   @RHF iter   7:  -388.02865694414942   -8.36436e-07   1.17820e-06 DIIS
   @RHF iter   8:  -388.02865699987495   -5.57255e-08   2.70799e-07 DIIS
   @RHF iter   9:  -388.02865700500627   -5.13131e-09   1.06019e-07 DIIS
   @RHF iter  10:  -388.02865700590252   -8.96250e-10   4.79590e-08 DIIS
   @RHF iter  11:  -388.02865700619844   -2.95927e-10   1.85809e-08 DIIS
   @RHF iter  12:  -388.02865700625631   -5.78666e-11   7.82141e-09 DIIS
   @RHF iter  13:  -388.02865700626677   -1.04592e-11   2.68451e-09 DIIS
   @RHF iter  14:  -388.02865700626677    0.00000e+00   7.48170e-10 DIIS
   @RHF iter  15:  -388.02865700626995   -3.18323e-12   3.00176e-10 DIIS
   @RHF iter  16:  -388.02865700626597    3.97904e-12   1.29428e-10 DIIS
   @RHF iter  17:  -388.02865700626609   -1.13687e-13   5.81443e-11 DIIS
  Energy and wave function converged.

  ==> Post-Iterations <==

    Orbital Energies [Eh]
    ---------------------

    Doubly Occupied:

       1A    -11.238713     2A    -11.235238     3A    -11.235119
       4A    -11.229621     5A    -11.229485     6A    -11.229315
       7A    -11.227592     8A    -11.220167     9A    -11.218848
      10A    -11.216412    11A     -1.154098    12A     -1.053223
      13A     -1.047074    14A     -1.011757    15A     -0.931529
      16A     -0.922231    17A     -0.825652    18A     -0.798846
      19A     -0.795131    20A     -0.692145    21A     -0.633165
      22A     -0.631639    23A     -0.625972    24A     -0.596474
      25A     -0.583339    26A     -0.578682    27A     -0.562654
      28A     -0.543394    29A     -0.534659    30A     -0.530219
      31A     -0.487702    32A     -0.484970    33A     -0.481703
      34A     -0.475868    35A     -0.469935    36A     -0.466721
      37A     -0.332160    38A     -0.321216

    Virtual:

      39A      0.133970    40A      0.142666    41A      0.170132
      42A      0.192475    43A      0.202014    44A      0.212563
      45A      0.230298    46A      0.231997    47A      0.242778
      48A      0.261801    49A      0.262511    50A      0.263053
      51A      0.268551    52A      0.286695    53A      0.298308
      54A      0.307456    55A      0.331101    56A      0.361701
      57A      0.365324    58A      0.370339    59A      0.385044
      60A      0.419963    61A      0.460211    62A      0.473193
      63A      0.481530    64A      0.501138    65A      0.565908
      66A      0.574844    67A      0.599855    68A      0.611568
      69A      0.617852    70A      0.622288    71A      0.631227
      72A      0.676817    73A      0.684515    74A      0.700524
      75A      0.718751    76A      0.720754    77A      0.736099
      78A      0.742325    79A      0.747318    80A      0.750520
      81A      0.762841    82A      0.775495    83A      0.791251
      84A      0.813718    85A      0.824413    86A      0.833007
      87A      0.846722    88A      0.851967    89A      0.864691
      90A      0.874153    91A      0.881588    92A      0.883222
      93A      0.894174    94A      0.896162    95A      0.901578
      96A      0.905783    97A      0.911279    98A      0.922657
      99A      0.933859   100A      0.936541   101A      0.942776
     102A      0.960488   103A      0.968572   104A      0.985115
     105A      0.997507   106A      1.014878   107A      1.061013
     108A      1.077763   109A      1.112643   110A      1.124401
     111A      1.140173   112A      1.153614   113A      1.164897
     114A      1.180770   115A      1.199915   116A      1.219650
     117A      1.246349   118A      1.249537   119A      1.258001
     120A      1.271239   121A      1.301469   122A      1.306678
     123A      1.314989   124A      1.338570   125A      1.357872
     126A      1.415491   127A      1.477167   128A      1.484947
     129A      1.505197   130A      1.533877   131A      1.561529
     132A      1.571888   133A      1.603117   134A      1.608330
     135A      1.671770   136A      1.680023   137A      1.696072
     138A      1.697724   139A      1.714839   140A      1.733137
     141A      1.751927   142A      1.760285   143A      1.792886
     144A      1.817378   145A      1.848432   146A      1.860679
     147A      1.868161   148A      1.878906   149A      1.888474
     150A      1.898924   151A      1.906424   152A      1.911952
     153A      1.923407   154A      1.930897   155A      1.934501
     156A      1.942005   157A      1.953875   158A      1.958567
     159A      1.963001   160A      1.969199   161A      1.983744
     162A      1.991567   163A      1.998528   164A      2.001120
     165A      2.003887   166A      2.026270   167A      2.036524
     168A      2.069084   169A      2.073907   170A      2.088824
     171A      2.111634   172A      2.118808   173A      2.140502
     174A      2.156386   175A      2.171438   176A      2.175999
     177A      2.185434   178A      2.200749   179A      2.260202
     180A      2.273029   181A      2.289476   182A      2.292079
     183A      2.300513   184A      2.303744   185A      2.313470
     186A      2.329454   187A      2.345408   188A      2.368534
     189A      2.453617   190A      2.479998   191A      2.504927
     192A      2.507312   193A      2.531206   194A      2.547846
     195A      2.580567   196A      2.602795   197A      2.637771
     198A      2.641859   199A      2.735121   200A      2.755470
     201A      2.765317   202A      2.767660   203A      2.776802
     204A      2.794948   205A      2.807019   206A      2.813061
     207A      2.821541   208A      2.850507   209A      2.866139
     210A      2.928690   211A      2.963129   212A      2.973992
     213A      2.991094   214A      3.020667   215A      3.033320
     216A      3.074704   217A      3.170689   218A      3.220720
     219A      3.305563   220A      3.977748

    Final Occupation by Irrep:
              A
    DOCC [    38 ]

  @RHF Final Energy:  -388.02865700626609

   => Energetics <=

    Nuclear Repulsion Energy =            479.5700449477217262
    One-Electron Energy =               -1473.4920641731700925
    Two-Electron Energy =                 605.8933622191823360
    Total Energy =                       -388.0286570062660303

Computation Completed

Properties will be evaluated at   0.000000,   0.000000,   0.000000 [a0]

Properties computed using the SCF density matrix

  Nuclear Dipole Moment: [e a0]
     X:   -10.1649      Y:    -4.0713      Z:     3.3807

  Electronic Dipole Moment: [e a0]
     X:    10.2981      Y:     4.1542      Z:    -3.3541

  Dipole Moment: [e a0]
     X:     0.1331      Y:     0.0829      Z:     0.0266     Total:     0.1591

  Dipole Moment: [D]
     X:     0.3384      Y:     0.2107      Z:     0.0675     Total:     0.4043

*** tstop() called on ds3 at Tue Apr 28 09:08:23 2020
Module time:
	user time   =      98.03 seconds =       1.63 minutes
	system time =      43.83 seconds =       0.73 minutes
	total time  =        192 seconds =       3.20 minutes
Total time:
	user time   =      98.03 seconds =       1.63 minutes
	system time =      43.83 seconds =       0.73 minutes
	total time  =        192 seconds =       3.20 minutes
                                     G D M A

                                 by Anthony Stone

                           version 2.2.06, 22 June 2011

               Distributed Multipoles from Gaussian wavefunctions

Starting at 9:8:23 on 28 Apr 2020

Using SCF density matrix from file ./SSI/SSI-024PHE-130LYS-1-dimer.test.9478.fchk

                         Distributed Multipole Analysis

Standard DMA

Positions and radii in angstrom
Multipole moments in atomic units, ea_0^k for rank k

C          x =  3.542165  y =  2.114974  z = -0.541187 angstrom
           Maximum rank =  0   Radius =  0.650 angstrom
                   Q00  =  -0.201366

C          x =  0.037165  y = -0.335026  z = -0.441187 angstrom
           Maximum rank =  0   Radius =  0.650 angstrom
                   Q00  =  -0.087209

C          x =  1.128165  y = -0.655026  z =  0.355813 angstrom
           Maximum rank =  0   Radius =  0.650 angstrom
                   Q00  =  -0.079171

C          x =  0.084165  y =  0.782974  z = -1.269187 angstrom
           Maximum rank =  0   Radius =  0.650 angstrom
                   Q00  =  -0.068723

C          x =  2.275165  y =  0.138974  z =  0.315813 angstrom
           Maximum rank =  0   Radius =  0.650 angstrom
                   Q00  =  -0.059264

C          x =  1.223165  y =  1.580974  z = -1.291187 angstrom
           Maximum rank =  0   Radius =  0.650 angstrom
                   Q00  =  -0.013136

C          x =  2.328165  y =  1.253974  z = -0.516187 angstrom
           Maximum rank =  0   Radius =  0.650 angstrom
                   Q00  =  -0.088064

H          x = -0.842835  y = -0.962026  z = -0.433187 angstrom
           Maximum rank =  0   Radius =  0.325 angstrom
                   Q00  =   0.057014

H          x =  1.096165  y = -1.530026  z =  0.989813 angstrom
           Maximum rank =  0   Radius =  0.325 angstrom
                   Q00  =   0.062983

H          x = -0.769835  y =  1.036974  z = -1.884187 angstrom
           Maximum rank =  0   Radius =  0.325 angstrom
                   Q00  =   0.063094

H          x =  3.119165  y = -0.147026  z =  0.921813 angstrom
           Maximum rank =  0   Radius =  0.325 angstrom
                   Q00  =   0.055206

H          x =  1.237165  y =  2.469974  z = -1.903187 angstrom
           Maximum rank =  0   Radius =  0.325 angstrom
                   Q00  =   0.057288

H          x =  3.287165  y =  3.060974  z = -1.018187 angstrom
           Maximum rank =  0   Radius =  0.325 angstrom
                   Q00  =   0.095124

H          x =  4.299165  y =  1.616974  z = -1.147187 angstrom
           Maximum rank =  0   Radius =  0.325 angstrom
                   Q00  =   0.103466

H          x =  3.953855  y =  2.322617  z =  0.457513 angstrom
           Maximum rank =  0   Radius =  0.325 angstrom
                   Q00  =   0.099833

C          x = -2.985835  y = -1.404026  z =  1.539813 angstrom
           Maximum rank =  0   Radius =  0.650 angstrom
                   Q00  =  -0.097723

C          x = -3.717835  y = -0.344026  z =  0.714813 angstrom
           Maximum rank =  0   Radius =  0.650 angstrom
                   Q00  =  -0.226899

C          x = -3.003835  y = -2.769026  z =  0.829813 angstrom
           Maximum rank =  0   Radius =  0.650 angstrom
                   Q00  =  -0.249028

H          x = -1.956835  y = -1.083026  z =  1.707813 angstrom
           Maximum rank =  0   Radius =  0.325 angstrom
                   Q00  =   0.053651

H          x = -3.467835  y = -1.545026  z =  2.505813 angstrom
           Maximum rank =  0   Radius =  0.325 angstrom
                   Q00  =   0.051207

H          x = -4.695835  y = -0.747026  z =  0.444813 angstrom
           Maximum rank =  0   Radius =  0.325 angstrom
                   Q00  =   0.070196

H          x = -3.174835  y = -0.162026  z = -0.214187 angstrom
           Maximum rank =  0   Radius =  0.325 angstrom
                   Q00  =   0.074599

H          x = -4.036835  y = -3.104026  z =  0.708813 angstrom
           Maximum rank =  0   Radius =  0.325 angstrom
                   Q00  =   0.080101

H          x = -2.557835  y = -2.654026  z = -0.160187 angstrom
           Maximum rank =  0   Radius =  0.325 angstrom
                   Q00  =   0.070944

H          x = -3.891126  y =  0.610145  z =  1.233973 angstrom
           Maximum rank =  0   Radius =  0.325 angstrom
                   Q00  =   0.089935

H          x = -2.441837  y = -3.526283  z =  1.396133 angstrom
           Maximum rank =  0   Radius =  0.325 angstrom
                   Q00  =   0.085941

Total multipoles referred to origin at
           x =   0.000000,  y =    0.000000,  z =    0.000000 angstrom
                   Q00  =  -0.000000

Finished at 9:8:23 on 28 Apr 2020

  DMA results are available in the Python driver through the
	  variable('DMA DISTRIBUTED MULTIPOLES')
  and
	  variable('DMA TOTAL MULTIPOLES')
  commands.

    Psi4 stopped on: Tuesday, 28 April 2020 09:08AM
    Psi4 wall time for execution: 0:03:11.83

*** Psi4 exiting successfully. Buy a developer a beer!
