                               Psi4 1.3.2 release

  ==> Input File <==

--------------------------------------------------------------------------
import numpy as np
set {scf_type pk
basis cc-pvdz
d_convergence 10
gdma_switch   0
gdma_limit    0
gdma_origin   [ 0.0,  0.0,  0.0 ]
}
molecule test {
    units Angstrom
    0 1
    --
    0 1
    C                2.373817921277170     1.572764672417154    -1.086449188845148
    C                1.132817921277171     0.711764672417154    -0.927449188845148
    O                0.223817921277171     0.751764672417154    -1.751449188845148
    N                1.077817921277171    -0.062235327582846     0.150550811154852
    H                0.214817921277171    -0.550235327582846     0.340550811154852
    H                1.816817921277170    -0.041235327582846     0.834550811154852
    H                3.258817921277171     1.000764672417154    -0.810449188845148
    H                2.274817921277171     2.401764672417154    -0.383449188845148
    H                2.484636621277171     1.972424672417154    -2.105269188845148
    C               -2.670182078722830    -1.923235327582846     1.609550811154852
    O               -1.748182078722829    -0.847235327582846     1.684550811154852
    H               -2.088182078722829    -0.096235327582846     1.135550811154852
    H               -3.690182078722830    -1.538235327582846     1.578550811154852
    H               -2.556182078722829    -2.559235327582846     2.489550811154852
    H               -2.457688078722830    -2.511735327582846     0.704830811154852

}
e, wfn = energy('scf', return_wfn=True)
gdma(wfn)
dmavals = variable('DMA DISTRIBUTED MULTIPOLES')
charges = np.array(dmavals)
print(charges)
np.save('SSI-053ASN-063SER-1-dimer.npy', np.array(charges))--------------------------------------------------------------------------

*** tstart() called on ds3
*** at Tue Apr 28 00:22:25 2020

   => Loading Basis Set <=

    Name: CC-PVDZ
    Role: ORBITAL
    Keyword: BASIS
    atoms 1-2, 10    entry C          line   138 file /theoryfs2/ds/metcalf/miniconda2/envs/tf2gpu/share/psi4/basis/cc-pvdz.gbs
    atoms 3, 11      entry O          line   198 file /theoryfs2/ds/metcalf/miniconda2/envs/tf2gpu/share/psi4/basis/cc-pvdz.gbs
    atoms 4          entry N          line   168 file /theoryfs2/ds/metcalf/miniconda2/envs/tf2gpu/share/psi4/basis/cc-pvdz.gbs
    atoms 5-9, 12-15 entry H          line    22 file /theoryfs2/ds/metcalf/miniconda2/envs/tf2gpu/share/psi4/basis/cc-pvdz.gbs

         ---------------------------------------------------------
                                   SCF
               by Justin Turney, Rob Parrish, Andy Simmonett
                          and Daniel G. A. Smith
                              RHF Reference
                        1 Threads,    500 MiB Core
         ---------------------------------------------------------

  ==> Geometry <==

    Molecular point group: c1
    Full point group: C1

    Geometry (in Angstrom), charge = 0, multiplicity = 1:

       Center              X                  Y                   Z               Mass
    ------------   -----------------  -----------------  -----------------  -----------------
         C            2.373817921277     1.572764672417    -1.086449188845    12.000000000000
         C            1.132817921277     0.711764672417    -0.927449188845    12.000000000000
         O            0.223817921277     0.751764672417    -1.751449188845    15.994914619570
         N            1.077817921277    -0.062235327583     0.150550811155    14.003074004430
         H            0.214817921277    -0.550235327583     0.340550811155     1.007825032230
         H            1.816817921277    -0.041235327583     0.834550811155     1.007825032230
         H            3.258817921277     1.000764672417    -0.810449188845     1.007825032230
         H            2.274817921277     2.401764672417    -0.383449188845     1.007825032230
         H            2.484636621277     1.972424672417    -2.105269188845     1.007825032230
         C           -2.670182078723    -1.923235327583     1.609550811155    12.000000000000
         O           -1.748182078723    -0.847235327583     1.684550811155    15.994914619570
         H           -2.088182078723    -0.096235327583     1.135550811155     1.007825032230
         H           -3.690182078723    -1.538235327583     1.578550811155     1.007825032230
         H           -2.556182078723    -2.559235327583     2.489550811155     1.007825032230
         H           -2.457688078723    -2.511735327583     0.704830811155     1.007825032230

  Running in c1 symmetry.

  Rotational constants: A =      0.28424  B =      0.03142  C =      0.02936 [cm^-1]
  Rotational constants: A =   8521.27852  B =    941.96435  C =    880.30145 [MHz]
  Nuclear repulsion =  227.599146698721455

  Charge       = 0
  Multiplicity = 1
  Electrons    = 50
  Nalpha       = 25
  Nbeta        = 25

  ==> Algorithm <==

  SCF Algorithm Type is PK.
  DIIS enabled.
  MOM disabled.
  Fractional occupation disabled.
  Guess Type is SAD.
  Energy threshold   = 1.00e-06
  Density threshold  = 1.00e-10
  Integral threshold = 0.00e+00

  ==> Primary Basis <==

  Basis Set: CC-PVDZ
    Blend: CC-PVDZ
    Number of shells: 63
    Number of basis function: 129
    Number of Cartesian functions: 135
    Spherical Harmonics?: true
    Max angular momentum: 2

  ==> Pre-Iterations <==

   -------------------------------------------------------
    Irrep   Nso     Nmo     Nalpha   Nbeta   Ndocc  Nsocc
   -------------------------------------------------------
     A        129     129       0       0       0       0
   -------------------------------------------------------
    Total     129     129      25      25      25       0
   -------------------------------------------------------

  ==> Integral Setup <==

  Using integral reordering PK algorithm.
  Sizing the integral batches needed.
  Building batch lookup table.
   Calculation information:
      Number of atoms:                  15
      Number of AO shells:              63
      Number of primitives:            177
      Number of atomic orbitals:       135
      Number of basis functions:       129

      Integral cutoff                 1.00e-12
      Number of threads:                 1

	Batch   1 pq = [       0,    8385] index = [             0,35158305] size =     35158305
  Task number: 4
  Buffer size: 11059200
  Buffer per thread: 2
  We computed 1487526 shell quartets total.
  Whereas there are 2033136 unique shell quartets.

  ==> DiskJK: Disk-Based J/K Matrices <==

    J tasked:                  Yes
    K tasked:                  Yes
    wK tasked:                  No
    Memory [MiB]:              375
    Schwarz Cutoff:          1E-12

    OpenMP threads:              1

  Minimum eigenvalue in the overlap matrix is 4.7855776058E-03.
  Using Symmetric Orthogonalization.

  SCF Guess: Superposition of Atomic Densities via on-the-fly atomic UHF.

  ==> Iterations <==

                        Total Energy        Delta E     RMS |[F,P]|

   @RHF iter SAD:  -321.64311058569143   -3.21643e+02   0.00000e+00
   @RHF iter   1:  -322.83788409731153   -1.19477e+00   4.98212e-03 DIIS
   @RHF iter   2:  -322.99443839277427   -1.56554e-01   2.88621e-03 DIIS
   @RHF iter   3:  -323.04392748091010   -4.94891e-02   5.38006e-04 DIIS
   @RHF iter   4:  -323.04683375837601   -2.90628e-03   2.13730e-04 DIIS
   @RHF iter   5:  -323.04731023573976   -4.76477e-04   4.54599e-05 DIIS
   @RHF iter   6:  -323.04734345934901   -3.32236e-05   2.07936e-05 DIIS
   @RHF iter   7:  -323.04735060210982   -7.14276e-06   7.45169e-06 DIIS
   @RHF iter   8:  -323.04735195519294   -1.35308e-06   2.55996e-06 DIIS
   @RHF iter   9:  -323.04735210596539   -1.50772e-07   8.32398e-07 DIIS
   @RHF iter  10:  -323.04735211909258   -1.31272e-08   2.65809e-07 DIIS
   @RHF iter  11:  -323.04735212042601   -1.33343e-09   4.80657e-08 DIIS
   @RHF iter  12:  -323.04735212047660   -5.05906e-11   1.25580e-08 DIIS
   @RHF iter  13:  -323.04735212047945   -2.84217e-12   4.11922e-09 DIIS
   @RHF iter  14:  -323.04735212048115   -1.70530e-12   1.67282e-09 DIIS
   @RHF iter  15:  -323.04735212048161   -4.54747e-13   7.16624e-10 DIIS
   @RHF iter  16:  -323.04735212048053    1.08002e-12   3.01387e-10 DIIS
   @RHF iter  17:  -323.04735212048087   -3.41061e-13   1.18261e-10 DIIS
   @RHF iter  18:  -323.04735212048143   -5.68434e-13   3.42411e-11 DIIS
  Energy and wave function converged.

  ==> Post-Iterations <==

    Orbital Energies [Eh]
    ---------------------

    Doubly Occupied:

       1A    -20.565144     2A    -20.496691     3A    -15.574931
       4A    -11.339975     5A    -11.283265     6A    -11.237067
       7A     -1.360641     8A     -1.356489     9A     -1.205763
      10A     -0.993181    11A     -0.926668    12A     -0.787748
      13A     -0.716566    14A     -0.687151    15A     -0.647092
      16A     -0.624682    17A     -0.606512    18A     -0.599467
      19A     -0.561691    20A     -0.553858    21A     -0.514107
      22A     -0.503360    23A     -0.451820    24A     -0.402533
      25A     -0.394892

    Virtual:

      26A      0.166246    27A      0.183199    28A      0.207339
      29A      0.216458    30A      0.233023    31A      0.245388
      32A      0.262992    33A      0.265440    34A      0.282499
      35A      0.322226    36A      0.360068    37A      0.389638
      38A      0.467223    39A      0.557388    40A      0.621968
      41A      0.628310    42A      0.641146    43A      0.652811
      44A      0.706263    45A      0.718403    46A      0.740996
      47A      0.747782    48A      0.757978    49A      0.814634
      50A      0.849879    51A      0.854365    52A      0.865356
      53A      0.882197    54A      0.885611    55A      0.895973
      56A      0.926137    57A      0.959304    58A      1.023777
      59A      1.024786    60A      1.085105    61A      1.112753
      62A      1.120848    63A      1.140793    64A      1.155070
      65A      1.177113    66A      1.270159    67A      1.313818
      68A      1.346462    69A      1.371745    70A      1.385572
      71A      1.408515    72A      1.436294    73A      1.460083
      74A      1.493344    75A      1.506836    76A      1.612448
      77A      1.654981    78A      1.661328    79A      1.665582
      80A      1.672187    81A      1.725761    82A      1.817878
      83A      1.845093    84A      1.861011    85A      1.883291
      86A      1.895273    87A      1.907772    88A      1.914767
      89A      1.936688    90A      1.943302    91A      1.968598
      92A      1.977244    93A      2.031398    94A      2.071365
      95A      2.088365    96A      2.116925    97A      2.167412
      98A      2.228322    99A      2.273056   100A      2.283059
     101A      2.354121   102A      2.372905   103A      2.421756
     104A      2.452373   105A      2.461248   106A      2.506916
     107A      2.526568   108A      2.619589   109A      2.639096
     110A      2.728782   111A      2.744028   112A      2.746757
     113A      2.755252   114A      2.758278   115A      2.798651
     116A      2.889504   117A      2.992893   118A      3.097050
     119A      3.144177   120A      3.270672   121A      3.308518
     122A      3.366798   123A      3.420162   124A      3.522112
     125A      3.537503   126A      3.580125   127A      3.867234
     128A      3.907553   129A      4.049354

    Final Occupation by Irrep:
              A
    DOCC [    25 ]

  @RHF Final Energy:  -323.04735212048143

   => Energetics <=

    Nuclear Repulsion Energy =            227.5991466987214551
    One-Electron Energy =                -892.5104095904321184
    Two-Electron Energy =                 341.8639107712292002
    Total Energy =                       -323.0473521204814347

Computation Completed

Properties will be evaluated at   0.000000,   0.000000,   0.000000 [a0]

Properties computed using the SCF density matrix

  Nuclear Dipole Moment: [e a0]
     X:    -0.7064      Y:    -1.8021      Z:     3.5470

  Electronic Dipole Moment: [e a0]
     X:     0.9719      Y:     1.5702      Z:    -2.4750

  Dipole Moment: [e a0]
     X:     0.2656      Y:    -0.2319      Z:     1.0720     Total:     1.1285

  Dipole Moment: [D]
     X:     0.6750      Y:    -0.5894      Z:     2.7249     Total:     2.8684

*** tstop() called on ds3 at Tue Apr 28 00:22:44 2020
Module time:
	user time   =      11.80 seconds =       0.20 minutes
	system time =       5.87 seconds =       0.10 minutes
	total time  =         19 seconds =       0.32 minutes
Total time:
	user time   =      11.80 seconds =       0.20 minutes
	system time =       5.87 seconds =       0.10 minutes
	total time  =         19 seconds =       0.32 minutes
                                     G D M A

                                 by Anthony Stone

                           version 2.2.06, 22 June 2011

               Distributed Multipoles from Gaussian wavefunctions

Starting at 0:22:44 on 28 Apr 2020

Using SCF density matrix from file ./SSI/SSI-053ASN-063SER-1-dimer.test.5209.fchk

                         Distributed Multipole Analysis

Standard DMA

Positions and radii in angstrom
Multipole moments in atomic units, ea_0^k for rank k

C          x =  2.373818  y =  1.572765  z = -1.086449 angstrom
           Maximum rank =  0   Radius =  0.650 angstrom
                   Q00  =  -0.265163

C          x =  1.132818  y =  0.711765  z = -0.927449 angstrom
           Maximum rank =  0   Radius =  0.650 angstrom
                   Q00  =   0.821817

O          x =  0.223818  y =  0.751765  z = -1.751449 angstrom
           Maximum rank =  0   Radius =  0.650 angstrom
                   Q00  =  -0.799389

N          x =  1.077818  y = -0.062235  z =  0.150551 angstrom
           Maximum rank =  0   Radius =  0.650 angstrom
                   Q00  =  -0.533008

H          x =  0.214818  y = -0.550235  z =  0.340551 angstrom
           Maximum rank =  0   Radius =  0.325 angstrom
                   Q00  =   0.228358

H          x =  1.816818  y = -0.041235  z =  0.834551 angstrom
           Maximum rank =  0   Radius =  0.325 angstrom
                   Q00  =   0.201950

H          x =  3.258818  y =  1.000765  z = -0.810449 angstrom
           Maximum rank =  0   Radius =  0.325 angstrom
                   Q00  =   0.089829

H          x =  2.274818  y =  2.401765  z = -0.383449 angstrom
           Maximum rank =  0   Radius =  0.325 angstrom
                   Q00  =   0.116476

H          x =  2.484637  y =  1.972425  z = -2.105269 angstrom
           Maximum rank =  0   Radius =  0.325 angstrom
                   Q00  =   0.129068

C          x = -2.670182  y = -1.923235  z =  1.609551 angstrom
           Maximum rank =  0   Radius =  0.650 angstrom
                   Q00  =  -0.046492

O          x = -1.748182  y = -0.847235  z =  1.684551 angstrom
           Maximum rank =  0   Radius =  0.650 angstrom
                   Q00  =  -0.610086

H          x = -2.088182  y = -0.096235  z =  1.135551 angstrom
           Maximum rank =  0   Radius =  0.325 angstrom
                   Q00  =   0.400693

H          x = -3.690182  y = -1.538235  z =  1.578551 angstrom
           Maximum rank =  0   Radius =  0.325 angstrom
                   Q00  =   0.076891

H          x = -2.556182  y = -2.559235  z =  2.489551 angstrom
           Maximum rank =  0   Radius =  0.325 angstrom
                   Q00  =   0.112966

H          x = -2.457688  y = -2.511735  z =  0.704831 angstrom
           Maximum rank =  0   Radius =  0.325 angstrom
                   Q00  =   0.076090

Total multipoles referred to origin at
           x =   0.000000,  y =    0.000000,  z =    0.000000 angstrom
                   Q00  =  -0.000000

Finished at 0:22:44 on 28 Apr 2020

  DMA results are available in the Python driver through the
	  variable('DMA DISTRIBUTED MULTIPOLES')
  and
	  variable('DMA TOTAL MULTIPOLES')
  commands.

    Psi4 stopped on: Tuesday, 28 April 2020 12:22AM
    Psi4 wall time for execution: 0:00:18.45

*** Psi4 exiting successfully. Buy a developer a beer!
