                               Psi4 1.3.2 release

  ==> Input File <==

--------------------------------------------------------------------------
import numpy as np
set {scf_type pk
basis cc-pvdz
d_convergence 10
gdma_switch   0
gdma_limit    0
gdma_origin   [ 0.0,  0.0,  0.0 ]
}
molecule test {
    units Angstrom
    0 1
    --
    0 1
    C               -0.723953719645241    -0.990990315276054     2.387735943552616
    O               -0.293953719645241    -0.094990315276054     1.382735943552616
    H               -0.978953719645241    -0.058990315276054     0.705735943552616
    H               -0.942953719645241    -1.968990315276054     1.957735943552616
    H                0.006657080354759    -1.090880315276054     3.203965943552616
    H               -1.644476119645240    -0.522760315276053     2.766415943552616
    C                0.480046280354759    -0.059990315276054    -1.549264056447384
    C                0.641046280354759     1.206009684723946    -2.403264056447384
    H                0.917046280354759     0.115009684723946    -0.577264056447384
    H               -0.533953719645241    -0.424990315276054    -1.433264056447384
    H                1.058046280354759    -0.863990315276054    -2.009264056447384
    H                0.881046280354759     0.879009684723946    -3.417264056447384
    H                1.475359280354759     1.827875684723946    -2.046604056447384
    H               -0.301223219645241     1.770367684723946    -2.463504056447384

}
e, wfn = energy('scf', return_wfn=True)
gdma(wfn)
dmavals = variable('DMA DISTRIBUTED MULTIPOLES')
charges = np.array(dmavals)
print(charges)
np.save('SSI-037THR-053ILE-1-dimer.npy', np.array(charges))--------------------------------------------------------------------------

*** tstart() called on ds3
*** at Sun Apr 26 21:39:31 2020

   => Loading Basis Set <=

    Name: CC-PVDZ
    Role: ORBITAL
    Keyword: BASIS
    atoms 1, 7-8    entry C          line   138 file /theoryfs2/ds/metcalf/miniconda2/envs/tf2gpu/share/psi4/basis/cc-pvdz.gbs
    atoms 2         entry O          line   198 file /theoryfs2/ds/metcalf/miniconda2/envs/tf2gpu/share/psi4/basis/cc-pvdz.gbs
    atoms 3-6, 9-14 entry H          line    22 file /theoryfs2/ds/metcalf/miniconda2/envs/tf2gpu/share/psi4/basis/cc-pvdz.gbs

         ---------------------------------------------------------
                                   SCF
               by Justin Turney, Rob Parrish, Andy Simmonett
                          and Daniel G. A. Smith
                              RHF Reference
                        1 Threads,    500 MiB Core
         ---------------------------------------------------------

  ==> Geometry <==

    Molecular point group: c1
    Full point group: C1

    Geometry (in Angstrom), charge = 0, multiplicity = 1:

       Center              X                  Y                   Z               Mass
    ------------   -----------------  -----------------  -----------------  -----------------
         C           -0.723953719645    -0.990990315276     2.387735943553    12.000000000000
         O           -0.293953719645    -0.094990315276     1.382735943553    15.994914619570
         H           -0.978953719645    -0.058990315276     0.705735943553     1.007825032230
         H           -0.942953719645    -1.968990315276     1.957735943553     1.007825032230
         H            0.006657080355    -1.090880315276     3.203965943553     1.007825032230
         H           -1.644476119645    -0.522760315276     2.766415943553     1.007825032230
         C            0.480046280355    -0.059990315276    -1.549264056447    12.000000000000
         C            0.641046280355     1.206009684724    -2.403264056447    12.000000000000
         H            0.917046280355     0.115009684724    -0.577264056447     1.007825032230
         H           -0.533953719645    -0.424990315276    -1.433264056447     1.007825032230
         H            1.058046280355    -0.863990315276    -2.009264056447     1.007825032230
         H            0.881046280355     0.879009684724    -3.417264056447     1.007825032230
         H            1.475359280355     1.827875684724    -2.046604056447     1.007825032230
         H           -0.301223219645     1.770367684724    -2.463504056447     1.007825032230

  Running in c1 symmetry.

  Rotational constants: A =      0.83982  B =      0.05581  C =      0.05424 [cm^-1]
  Rotational constants: A =  25177.15415  B =   1673.26904  C =   1625.94731 [MHz]
  Nuclear repulsion =  125.040912686312296

  Charge       = 0
  Multiplicity = 1
  Electrons    = 36
  Nalpha       = 18
  Nbeta        = 18

  ==> Algorithm <==

  SCF Algorithm Type is PK.
  DIIS enabled.
  MOM disabled.
  Fractional occupation disabled.
  Guess Type is SAD.
  Energy threshold   = 1.00e-06
  Density threshold  = 1.00e-10
  Integral threshold = 0.00e+00

  ==> Primary Basis <==

  Basis Set: CC-PVDZ
    Blend: CC-PVDZ
    Number of shells: 54
    Number of basis function: 106
    Number of Cartesian functions: 110
    Spherical Harmonics?: true
    Max angular momentum: 2

  ==> Pre-Iterations <==

   -------------------------------------------------------
    Irrep   Nso     Nmo     Nalpha   Nbeta   Ndocc  Nsocc
   -------------------------------------------------------
     A        106     106       0       0       0       0
   -------------------------------------------------------
    Total     106     106      18      18      18       0
   -------------------------------------------------------

  ==> Integral Setup <==

  Using in-core PK algorithm.
   Calculation information:
      Number of atoms:                  14
      Number of AO shells:              54
      Number of primitives:            138
      Number of atomic orbitals:       110
      Number of basis functions:       106

      Integral cutoff                 1.00e-12
      Number of threads:                 1

  Performing in-core PK
  Using 32165912 doubles for integral storage.
  We computed 889791 shell quartets total.
  Whereas there are 1103355 unique shell quartets.

  ==> DiskJK: Disk-Based J/K Matrices <==

    J tasked:                  Yes
    K tasked:                  Yes
    wK tasked:                  No
    Memory [MiB]:              375
    Schwarz Cutoff:          1E-12

    OpenMP threads:              1

  Minimum eigenvalue in the overlap matrix is 7.7181588233E-03.
  Using Symmetric Orthogonalization.

  SCF Guess: Superposition of Atomic Densities via on-the-fly atomic UHF.

  ==> Iterations <==

                        Total Energy        Delta E     RMS |[F,P]|

   @RHF iter SAD:  -193.12529820219410   -1.93125e+02   0.00000e+00
   @RHF iter   1:  -194.12791602902604   -1.00262e+00   4.66516e-03 DIIS
   @RHF iter   2:  -194.24578032215840   -1.17864e-01   2.21972e-03 DIIS
   @RHF iter   3:  -194.26957181037005   -2.37915e-02   4.33507e-04 DIIS
   @RHF iter   4:  -194.27126270777370   -1.69090e-03   1.34752e-04 DIIS
   @RHF iter   5:  -194.27138102871621   -1.18321e-04   2.78403e-05 DIIS
   @RHF iter   6:  -194.27138793577845   -6.90706e-06   5.21032e-06 DIIS
   @RHF iter   7:  -194.27138829168743   -3.55909e-07   1.23172e-06 DIIS
   @RHF iter   8:  -194.27138831108414   -1.93967e-08   4.38426e-07 DIIS
   @RHF iter   9:  -194.27138831343331   -2.34917e-09   9.86706e-08 DIIS
   @RHF iter  10:  -194.27138831359042   -1.57115e-10   1.98610e-08 DIIS
   @RHF iter  11:  -194.27138831359585   -5.42855e-12   5.15998e-09 DIIS
   @RHF iter  12:  -194.27138831359687   -1.02318e-12   1.33711e-09 DIIS
   @RHF iter  13:  -194.27138831359639    4.83169e-13   3.17494e-10 DIIS
   @RHF iter  14:  -194.27138831359630    8.52651e-14   7.44503e-11 DIIS
  Energy and wave function converged.

  ==> Post-Iterations <==

    Orbital Energies [Eh]
    ---------------------

    Doubly Occupied:

       1A    -20.547705     2A    -11.277009     3A    -11.214767
       4A    -11.205866     5A     -1.352779     6A     -1.010749
       7A     -0.919360     8A     -0.834024     9A     -0.680928
      10A     -0.622235    11A     -0.600112    12A     -0.594234
      13A     -0.582445    14A     -0.500920    15A     -0.494906
      16A     -0.479672    17A     -0.470366    18A     -0.434444

    Virtual:

      19A      0.172210    20A      0.197565    21A      0.223344
      22A      0.242070    23A      0.252523    24A      0.259278
      25A      0.268377    26A      0.293670    27A      0.317376
      28A      0.331088    29A      0.380264    30A      0.402561
      31A      0.592327    32A      0.601452    33A      0.616080
      34A      0.636643    35A      0.638874    36A      0.707143
      37A      0.741411    38A      0.773076    39A      0.829386
      40A      0.851455    41A      0.858794    42A      0.874594
      43A      0.880643    44A      0.891786    45A      0.912151
      46A      0.918310    47A      0.925516    48A      0.932531
      49A      0.977504    50A      1.091601    51A      1.107845
      52A      1.124796    53A      1.148095    54A      1.208367
      55A      1.218863    56A      1.330716    57A      1.424294
      58A      1.452488    59A      1.490028    60A      1.512404
      61A      1.590660    62A      1.629835    63A      1.660263
      64A      1.663114    65A      1.688732    66A      1.761167
      67A      1.837792    68A      1.847566    69A      1.858652
      70A      1.884149    71A      1.891411    72A      1.910193
      73A      1.924037    74A      1.940162    75A      1.966623
      76A      1.969022    77A      1.991343    78A      2.040198
      79A      2.059138    80A      2.172037    81A      2.191410
      82A      2.268925    83A      2.278910    84A      2.303907
      85A      2.336680    86A      2.358939    87A      2.374982
      88A      2.388184    89A      2.416049    90A      2.529542
      91A      2.620328    92A      2.655543    93A      2.742647
      94A      2.752604    95A      2.758391    96A      2.765118
      97A      2.802566    98A      2.811867    99A      2.842456
     100A      2.943862   101A      2.985660   102A      3.306379
     103A      3.382934   104A      3.466106   105A      3.599403
     106A      4.108665

    Final Occupation by Irrep:
              A
    DOCC [    18 ]

  @RHF Final Energy:  -194.27138831359630

   => Energetics <=

    Nuclear Repulsion Energy =            125.0409126863122964
    One-Electron Energy =                -510.9795618581756003
    Two-Electron Energy =                 191.6672608582669852
    Total Energy =                       -194.2713883135963044

Computation Completed

Properties will be evaluated at   0.000000,   0.000000,   0.000000 [a0]

Properties computed using the SCF density matrix

  Nuclear Dipole Moment: [e a0]
     X:    -0.0609      Y:    -0.3176      Z:    -3.0995

  Electronic Dipole Moment: [e a0]
     X:    -0.4848      Y:    -0.0624      Z:     3.2172

  Dipole Moment: [e a0]
     X:    -0.5457      Y:    -0.3801      Z:     0.1177     Total:     0.6753

  Dipole Moment: [D]
     X:    -1.3870      Y:    -0.9661      Z:     0.2991     Total:     1.7166

*** tstop() called on ds3 at Sun Apr 26 21:39:36 2020
Module time:
	user time   =       5.13 seconds =       0.09 minutes
	system time =       0.09 seconds =       0.00 minutes
	total time  =          5 seconds =       0.08 minutes
Total time:
	user time   =       5.13 seconds =       0.09 minutes
	system time =       0.09 seconds =       0.00 minutes
	total time  =          5 seconds =       0.08 minutes
                                     G D M A

                                 by Anthony Stone

                           version 2.2.06, 22 June 2011

               Distributed Multipoles from Gaussian wavefunctions

Starting at 21:39:36 on 26 Apr 2020

Using SCF density matrix from file ./SSI/SSI-037THR-053ILE-1-dimer.test.5454.fchk

                         Distributed Multipole Analysis

Standard DMA

Positions and radii in angstrom
Multipole moments in atomic units, ea_0^k for rank k

C          x = -0.723954  y = -0.990990  z =  2.387736 angstrom
           Maximum rank =  0   Radius =  0.650 angstrom
                   Q00  =  -0.054469

O          x = -0.293954  y = -0.094990  z =  1.382736 angstrom
           Maximum rank =  0   Radius =  0.650 angstrom
                   Q00  =  -0.571573

H          x = -0.978954  y = -0.058990  z =  0.705736 angstrom
           Maximum rank =  0   Radius =  0.325 angstrom
                   Q00  =   0.392296

H          x = -0.942954  y = -1.968990  z =  1.957736 angstrom
           Maximum rank =  0   Radius =  0.325 angstrom
                   Q00  =   0.069967

H          x =  0.006657  y = -1.090880  z =  3.203966 angstrom
           Maximum rank =  0   Radius =  0.325 angstrom
                   Q00  =   0.118030

H          x = -1.644476  y = -0.522760  z =  2.766416 angstrom
           Maximum rank =  0   Radius =  0.325 angstrom
                   Q00  =   0.062860

C          x =  0.480046  y = -0.059990  z = -1.549264 angstrom
           Maximum rank =  0   Radius =  0.650 angstrom
                   Q00  =  -0.248207

C          x =  0.641046  y =  1.206010  z = -2.403264 angstrom
           Maximum rank =  0   Radius =  0.650 angstrom
                   Q00  =  -0.250620

H          x =  0.917046  y =  0.115010  z = -0.577264 angstrom
           Maximum rank =  0   Radius =  0.325 angstrom
                   Q00  =   0.104175

H          x = -0.533954  y = -0.424990  z = -1.433264 angstrom
           Maximum rank =  0   Radius =  0.325 angstrom
                   Q00  =   0.057832

H          x =  1.058046  y = -0.863990  z = -2.009264 angstrom
           Maximum rank =  0   Radius =  0.325 angstrom
                   Q00  =   0.077557

H          x =  0.881046  y =  0.879010  z = -3.417264 angstrom
           Maximum rank =  0   Radius =  0.325 angstrom
                   Q00  =   0.075763

H          x =  1.475359  y =  1.827876  z = -2.046604 angstrom
           Maximum rank =  0   Radius =  0.325 angstrom
                   Q00  =   0.090393

H          x = -0.301223  y =  1.770368  z = -2.463504 angstrom
           Maximum rank =  0   Radius =  0.325 angstrom
                   Q00  =   0.075994

Total multipoles referred to origin at
           x =   0.000000,  y =    0.000000,  z =    0.000000 angstrom
                   Q00  =  -0.000000

Finished at 21:39:36 on 26 Apr 2020

  DMA results are available in the Python driver through the
	  variable('DMA DISTRIBUTED MULTIPOLES')
  and
	  variable('DMA TOTAL MULTIPOLES')
  commands.

    Psi4 stopped on: Sunday, 26 April 2020 09:39PM
    Psi4 wall time for execution: 0:00:05.42

*** Psi4 exiting successfully. Buy a developer a beer!
