                               Psi4 1.3.2 release

  ==> Input File <==

--------------------------------------------------------------------------
import numpy as np
set {scf_type pk
basis cc-pvdz
d_convergence 10
gdma_switch   0
gdma_limit    0
gdma_origin   [ 0.0,  0.0,  0.0 ]
}
molecule test {
    units Angstrom
    0 1
    --
    0 1
    C                0.511985671958560     1.513489929346170     0.510238480826837
    C                0.930985671958560     2.979489929346171     0.615238480826836
    H                0.659985671958560     1.181489929346170    -0.516761519173163
    H                1.123985671958560     0.904489929346170     1.175238480826837
    H               -0.533014328041440     1.380489929346170     0.784238480826837
    H                0.802985671958560     3.301489929346170     1.650238480826837
    H                0.307187671958560     3.609711929346170    -0.035681519173163
    H                1.994128671958560     3.082490929346170     0.352333980826837
    C               -0.952014328041440    -1.539510070653830    -0.733761519173163
    C               -0.493014328041440    -2.950510070653830    -0.389761519173163
    H               -0.142014328041440    -0.847510070653830    -0.536761519173163
    H               -1.216014328041440    -1.488510070653830    -1.790761519173163
    H               -1.825014328041440    -1.261510070653830    -0.150761519173163
    H               -1.292014328041440    -3.649510070653830    -0.632761519173163
    H               -0.242751328041440    -3.044448070653830     0.677264180826836
    H                0.387045671958560    -3.203915070653830    -0.999089519173163

}
e, wfn = energy('scf', return_wfn=True)
gdma(wfn)
dmavals = variable('DMA DISTRIBUTED MULTIPOLES')
charges = np.array(dmavals)
print(charges)
np.save('SSI-219VAL-288LEU-1-dimer.npy', np.array(charges))--------------------------------------------------------------------------

*** tstart() called on ds3
*** at Tue Apr 28 10:36:42 2020

   => Loading Basis Set <=

    Name: CC-PVDZ
    Role: ORBITAL
    Keyword: BASIS
    atoms 1-2, 9-10  entry C          line   138 file /theoryfs2/ds/metcalf/miniconda2/envs/tf2gpu/share/psi4/basis/cc-pvdz.gbs
    atoms 3-8, 11-16 entry H          line    22 file /theoryfs2/ds/metcalf/miniconda2/envs/tf2gpu/share/psi4/basis/cc-pvdz.gbs

         ---------------------------------------------------------
                                   SCF
               by Justin Turney, Rob Parrish, Andy Simmonett
                          and Daniel G. A. Smith
                              RHF Reference
                        1 Threads,    500 MiB Core
         ---------------------------------------------------------

  ==> Geometry <==

    Molecular point group: c1
    Full point group: C1

    Geometry (in Angstrom), charge = 0, multiplicity = 1:

       Center              X                  Y                   Z               Mass
    ------------   -----------------  -----------------  -----------------  -----------------
         C            0.511985671959     1.513489929346     0.510238480827    12.000000000000
         C            0.930985671959     2.979489929346     0.615238480827    12.000000000000
         H            0.659985671959     1.181489929346    -0.516761519173     1.007825032230
         H            1.123985671959     0.904489929346     1.175238480827     1.007825032230
         H           -0.533014328041     1.380489929346     0.784238480827     1.007825032230
         H            0.802985671959     3.301489929346     1.650238480827     1.007825032230
         H            0.307187671959     3.609711929346    -0.035681519173     1.007825032230
         H            1.994128671959     3.082490929346     0.352333980827     1.007825032230
         C           -0.952014328041    -1.539510070654    -0.733761519173    12.000000000000
         C           -0.493014328041    -2.950510070654    -0.389761519173    12.000000000000
         H           -0.142014328041    -0.847510070654    -0.536761519173     1.007825032230
         H           -1.216014328041    -1.488510070654    -1.790761519173     1.007825032230
         H           -1.825014328041    -1.261510070654    -0.150761519173     1.007825032230
         H           -1.292014328041    -3.649510070654    -0.632761519173     1.007825032230
         H           -0.242751328041    -3.044448070654     0.677264180827     1.007825032230
         H            0.387045671959    -3.203915070654    -0.999089519173     1.007825032230

  Running in c1 symmetry.

  Rotational constants: A =      0.76639  B =      0.04274  C =      0.04181 [cm^-1]
  Rotational constants: A =  22975.81834  B =   1281.34069  C =   1253.39964 [MHz]
  Nuclear repulsion =  121.220507102331183

  Charge       = 0
  Multiplicity = 1
  Electrons    = 36
  Nalpha       = 18
  Nbeta        = 18

  ==> Algorithm <==

  SCF Algorithm Type is PK.
  DIIS enabled.
  MOM disabled.
  Fractional occupation disabled.
  Guess Type is SAD.
  Energy threshold   = 1.00e-06
  Density threshold  = 1.00e-10
  Integral threshold = 0.00e+00

  ==> Primary Basis <==

  Basis Set: CC-PVDZ
    Blend: CC-PVDZ
    Number of shells: 60
    Number of basis function: 116
    Number of Cartesian functions: 120
    Spherical Harmonics?: true
    Max angular momentum: 2

  ==> Pre-Iterations <==

   -------------------------------------------------------
    Irrep   Nso     Nmo     Nalpha   Nbeta   Ndocc  Nsocc
   -------------------------------------------------------
     A        116     116       0       0       0       0
   -------------------------------------------------------
    Total     116     116      18      18      18       0
   -------------------------------------------------------

  ==> Integral Setup <==

  Using integral reordering PK algorithm.
  Sizing the integral batches needed.
  Building batch lookup table.
   Calculation information:
      Number of atoms:                  16
      Number of AO shells:              60
      Number of primitives:            148
      Number of atomic orbitals:       120
      Number of basis functions:       116

      Integral cutoff                 1.00e-12
      Number of threads:                 1

	Batch   1 pq = [       0,    6786] index = [             0,23028291] size =     23028291
  Task number: 3
  Buffer size: 11059200
  Buffer per thread: 2
  We computed 1383930 shell quartets total.
  Whereas there are 1675365 unique shell quartets.

  ==> DiskJK: Disk-Based J/K Matrices <==

    J tasked:                  Yes
    K tasked:                  Yes
    wK tasked:                  No
    Memory [MiB]:              375
    Schwarz Cutoff:          1E-12

    OpenMP threads:              1

  Minimum eigenvalue in the overlap matrix is 5.7339162059E-03.
  Using Symmetric Orthogonalization.

  SCF Guess: Superposition of Atomic Densities via on-the-fly atomic UHF.

  ==> Iterations <==

                        Total Energy        Delta E     RMS |[F,P]|

   @RHF iter SAD:  -157.37891661574753   -1.57379e+02   0.00000e+00
   @RHF iter   1:  -158.30617711936006   -9.27261e-01   4.22047e-03 DIIS
   @RHF iter   2:  -158.44023032953757   -1.34053e-01   1.78962e-03 DIIS
   @RHF iter   3:  -158.46350545280296   -2.32751e-02   3.51488e-04 DIIS
   @RHF iter   4:  -158.46535632476548   -1.85087e-03   3.94926e-05 DIIS
   @RHF iter   5:  -158.46538095347552   -2.46287e-05   7.15536e-06 DIIS
   @RHF iter   6:  -158.46538167241999   -7.18944e-07   1.44986e-06 DIIS
   @RHF iter   7:  -158.46538169242442   -2.00044e-08   3.35504e-07 DIIS
   @RHF iter   8:  -158.46538169358595   -1.16154e-09   4.86961e-08 DIIS
   @RHF iter   9:  -158.46538169362731   -4.13536e-11   1.08173e-08 DIIS
   @RHF iter  10:  -158.46538169362947   -2.16005e-12   2.60960e-09 DIIS
   @RHF iter  11:  -158.46538169362972   -2.55795e-13   4.87088e-10 DIIS
   @RHF iter  12:  -158.46538169362964    8.52651e-14   1.52958e-10 DIIS
   @RHF iter  13:  -158.46538169362989   -2.55795e-13   3.25525e-11 DIIS
  Energy and wave function converged.

  ==> Post-Iterations <==

    Orbital Energies [Eh]
    ---------------------

    Doubly Occupied:

       1A    -11.219405     2A    -11.217121     3A    -11.216704
       4A    -11.212362     5A     -1.020092     6A     -1.017126
       7A     -0.840366     8A     -0.831739     9A     -0.602519
      10A     -0.598693    11A     -0.596272    12A     -0.595420
      13A     -0.506352    14A     -0.497856    15A     -0.489567
      16A     -0.487703    17A     -0.482803    18A     -0.474347

    Virtual:

      19A      0.177960    20A      0.193546    21A      0.226929
      22A      0.240824    23A      0.241961    24A      0.259942
      25A      0.266153    26A      0.276891    27A      0.282379
      28A      0.288591    29A      0.300945    30A      0.333794
      31A      0.395631    32A      0.412862    33A      0.578283
      34A      0.594333    35A      0.598157    36A      0.604479
      37A      0.609342    38A      0.640106    39A      0.671868
      40A      0.692166    41A      0.705583    42A      0.764506
      43A      0.858280    44A      0.880648    45A      0.889292
      46A      0.893006    47A      0.894219    48A      0.895276
      49A      0.904055    50A      0.908112    51A      0.912171
      52A      0.916540    53A      0.944602    54A      0.952765
      55A      0.966163    56A      1.023235    57A      1.124102
      58A      1.130992    59A      1.131543    60A      1.147178
      61A      1.236221    62A      1.271473    63A      1.463983
      64A      1.477187    65A      1.483357    66A      1.497839
      67A      1.578353    68A      1.584373    69A      1.678586
      70A      1.683836    71A      1.692760    72A      1.702027
      73A      1.847637    74A      1.860174    75A      1.869991
      76A      1.882384    77A      1.901305    78A      1.923520
      79A      1.935530    80A      1.938204    81A      1.944602
      82A      1.946614    83A      1.955079    84A      1.958087
      85A      1.968565    86A      1.979590    87A      1.986321
      88A      2.037978    89A      2.088129    90A      2.111218
      91A      2.119747    92A      2.132561    93A      2.296849
      94A      2.306414    95A      2.314793    96A      2.336910
      97A      2.453134    98A      2.465371    99A      2.468057
     100A      2.485565   101A      2.555211   102A      2.566457
     103A      2.575579   104A      2.590418   105A      2.757068
     106A      2.764748   107A      2.782196   108A      2.812679
     109A      2.849745   110A      2.852690   111A      2.855066
     112A      2.868368   113A      2.941128   114A      2.956095
     115A      2.965957   116A      2.988924

    Final Occupation by Irrep:
              A
    DOCC [    18 ]

  @RHF Final Energy:  -158.46538169362989

   => Energetics <=

    Nuclear Repulsion Energy =            121.2205071023311831
    One-Electron Energy =                -451.5588815269299516
    Two-Electron Energy =                 171.8729927309688890
    Total Energy =                       -158.4653816936298938

Computation Completed

Properties will be evaluated at   0.000000,   0.000000,   0.000000 [a0]

Properties computed using the SCF density matrix

  Nuclear Dipole Moment: [e a0]
     X:     0.0230      Y:    -0.0330      Z:    -0.0218

  Electronic Dipole Moment: [e a0]
     X:    -0.0199      Y:     0.0559      Z:     0.0255

  Dipole Moment: [e a0]
     X:     0.0031      Y:     0.0229      Z:     0.0037     Total:     0.0234

  Dipole Moment: [D]
     X:     0.0078      Y:     0.0581      Z:     0.0093     Total:     0.0594

*** tstop() called on ds3 at Tue Apr 28 10:36:52 2020
Module time:
	user time   =       7.24 seconds =       0.12 minutes
	system time =       3.02 seconds =       0.05 minutes
	total time  =         10 seconds =       0.17 minutes
Total time:
	user time   =       7.24 seconds =       0.12 minutes
	system time =       3.02 seconds =       0.05 minutes
	total time  =         10 seconds =       0.17 minutes
                                     G D M A

                                 by Anthony Stone

                           version 2.2.06, 22 June 2011

               Distributed Multipoles from Gaussian wavefunctions

Starting at 10:36:52 on 28 Apr 2020

Using SCF density matrix from file ./SSI/SSI-219VAL-288LEU-1-dimer.test.3604.fchk

                         Distributed Multipole Analysis

Standard DMA

Positions and radii in angstrom
Multipole moments in atomic units, ea_0^k for rank k

C          x =  0.511986  y =  1.513490  z =  0.510238 angstrom
           Maximum rank =  0   Radius =  0.650 angstrom
                   Q00  =  -0.245496

C          x =  0.930986  y =  2.979490  z =  0.615238 angstrom
           Maximum rank =  0   Radius =  0.650 angstrom
                   Q00  =  -0.225240

H          x =  0.659986  y =  1.181490  z = -0.516762 angstrom
           Maximum rank =  0   Radius =  0.325 angstrom
                   Q00  =   0.074037

H          x =  1.123986  y =  0.904490  z =  1.175238 angstrom
           Maximum rank =  0   Radius =  0.325 angstrom
                   Q00  =   0.078390

H          x = -0.533014  y =  1.380490  z =  0.784238 angstrom
           Maximum rank =  0   Radius =  0.325 angstrom
                   Q00  =   0.083073

H          x =  0.802986  y =  3.301490  z =  1.650238 angstrom
           Maximum rank =  0   Radius =  0.325 angstrom
                   Q00  =   0.078302

H          x =  0.307188  y =  3.609712  z = -0.035682 angstrom
           Maximum rank =  0   Radius =  0.325 angstrom
                   Q00  =   0.081304

H          x =  1.994129  y =  3.082491  z =  0.352334 angstrom
           Maximum rank =  0   Radius =  0.325 angstrom
                   Q00  =   0.079730

C          x = -0.952014  y = -1.539510  z = -0.733762 angstrom
           Maximum rank =  0   Radius =  0.650 angstrom
                   Q00  =  -0.242273

C          x = -0.493014  y = -2.950510  z = -0.389762 angstrom
           Maximum rank =  0   Radius =  0.650 angstrom
                   Q00  =  -0.232505

H          x = -0.142014  y = -0.847510  z = -0.536762 angstrom
           Maximum rank =  0   Radius =  0.325 angstrom
                   Q00  =   0.085106

H          x = -1.216014  y = -1.488510  z = -1.790762 angstrom
           Maximum rank =  0   Radius =  0.325 angstrom
                   Q00  =   0.075969

H          x = -1.825014  y = -1.261510  z = -0.150762 angstrom
           Maximum rank =  0   Radius =  0.325 angstrom
                   Q00  =   0.078393

H          x = -1.292014  y = -3.649510  z = -0.632762 angstrom
           Maximum rank =  0   Radius =  0.325 angstrom
                   Q00  =   0.076664

H          x = -0.242751  y = -3.044448  z =  0.677264 angstrom
           Maximum rank =  0   Radius =  0.325 angstrom
                   Q00  =   0.078477

H          x =  0.387046  y = -3.203915  z = -0.999090 angstrom
           Maximum rank =  0   Radius =  0.325 angstrom
                   Q00  =   0.076068

Total multipoles referred to origin at
           x =   0.000000,  y =    0.000000,  z =    0.000000 angstrom
                   Q00  =  -0.000000

Finished at 10:36:52 on 28 Apr 2020

  DMA results are available in the Python driver through the
	  variable('DMA DISTRIBUTED MULTIPOLES')
  and
	  variable('DMA TOTAL MULTIPOLES')
  commands.

    Psi4 stopped on: Tuesday, 28 April 2020 10:36AM
    Psi4 wall time for execution: 0:00:10.11

*** Psi4 exiting successfully. Buy a developer a beer!
