                               Psi4 1.3.2 release

  ==> Input File <==

--------------------------------------------------------------------------
import numpy as np
set {scf_type pk
basis cc-pvdz
d_convergence 10
gdma_switch   0
gdma_limit    0
gdma_origin   [ 0.0,  0.0,  0.0 ]
}
molecule test {
    units Angstrom
    0 1
    --
    0 1
    C                2.488314999779619     1.139194336983397    -0.203942163948330
    C                1.200314999779619     0.370194336983397    -0.517942163948330
    O                0.154314999779619     1.018194336983397    -0.765942163948330
    O                1.221314999779619    -0.881805663016603    -0.514942163948330
    H                2.214314999779619     2.064194336983397     0.293057836051670
    H                2.981314999779619     1.405194336983397    -1.141942163948330
    H                3.204954999779619     0.578964336983397     0.414583836051670
    C               -2.387685000220381    -1.279805663016603     1.520057836051670
    N               -2.281685000220381    -0.296805663016603     0.401057836051670
    H               -2.377685000220382    -0.785805663016603    -0.483942163948330
    H               -3.038685000220381     0.375194336983397     0.415057836051670
    H               -1.375685000220381     0.170194336983397     0.336057836051670
    H               -3.329685000220381    -1.837805663016603     1.469057836051670
    H               -2.354685000220381    -0.760805663016603     2.484057836051671
    H               -1.544005000220381    -1.983595663016603     1.466421836051670

}
e, wfn = energy('scf', return_wfn=True)
gdma(wfn)
dmavals = variable('DMA DISTRIBUTED MULTIPOLES')
charges = np.array(dmavals)
print(charges)
np.save('SSI-186GLU-189LYS-1-dimer.npy', np.array(charges))--------------------------------------------------------------------------

*** tstart() called on ds3
*** at Mon Apr 27 17:47:19 2020

   => Loading Basis Set <=

    Name: CC-PVDZ
    Role: ORBITAL
    Keyword: BASIS
    atoms 1-2, 8     entry C          line   138 file /theoryfs2/ds/metcalf/miniconda2/envs/tf2gpu/share/psi4/basis/cc-pvdz.gbs
    atoms 3-4        entry O          line   198 file /theoryfs2/ds/metcalf/miniconda2/envs/tf2gpu/share/psi4/basis/cc-pvdz.gbs
    atoms 5-7, 10-15 entry H          line    22 file /theoryfs2/ds/metcalf/miniconda2/envs/tf2gpu/share/psi4/basis/cc-pvdz.gbs
    atoms 9          entry N          line   168 file /theoryfs2/ds/metcalf/miniconda2/envs/tf2gpu/share/psi4/basis/cc-pvdz.gbs

         ---------------------------------------------------------
                                   SCF
               by Justin Turney, Rob Parrish, Andy Simmonett
                          and Daniel G. A. Smith
                              RHF Reference
                        1 Threads,    500 MiB Core
         ---------------------------------------------------------

  ==> Geometry <==

    Molecular point group: c1
    Full point group: C1

    Geometry (in Angstrom), charge = 0, multiplicity = 1:

       Center              X                  Y                   Z               Mass
    ------------   -----------------  -----------------  -----------------  -----------------
         C            2.488314999780     1.139194336983    -0.203942163948    12.000000000000
         C            1.200314999780     0.370194336983    -0.517942163948    12.000000000000
         O            0.154314999780     1.018194336983    -0.765942163948    15.994914619570
         O            1.221314999780    -0.881805663017    -0.514942163948    15.994914619570
         H            2.214314999780     2.064194336983     0.293057836052     1.007825032230
         H            2.981314999780     1.405194336983    -1.141942163948     1.007825032230
         H            3.204954999780     0.578964336983     0.414583836052     1.007825032230
         C           -2.387685000220    -1.279805663017     1.520057836052    12.000000000000
         N           -2.281685000220    -0.296805663017     0.401057836052    14.003074004430
         H           -2.377685000220    -0.785805663017    -0.483942163948     1.007825032230
         H           -3.038685000220     0.375194336983     0.415057836052     1.007825032230
         H           -1.375685000220     0.170194336983     0.336057836052     1.007825032230
         H           -3.329685000220    -1.837805663017     1.469057836052     1.007825032230
         H           -2.354685000220    -0.760805663017     2.484057836052     1.007825032230
         H           -1.544005000220    -1.983595663017     1.466421836052     1.007825032230

  Running in c1 symmetry.

  Rotational constants: A =      0.22300  B =      0.04139  C =      0.03858 [cm^-1]
  Rotational constants: A =   6685.25492  B =   1240.82265  C =   1156.47929 [MHz]
  Nuclear repulsion =  236.073946182947310

  Charge       = 0
  Multiplicity = 1
  Electrons    = 50
  Nalpha       = 25
  Nbeta        = 25

  ==> Algorithm <==

  SCF Algorithm Type is PK.
  DIIS enabled.
  MOM disabled.
  Fractional occupation disabled.
  Guess Type is SAD.
  Energy threshold   = 1.00e-06
  Density threshold  = 1.00e-10
  Integral threshold = 0.00e+00

  ==> Primary Basis <==

  Basis Set: CC-PVDZ
    Blend: CC-PVDZ
    Number of shells: 63
    Number of basis function: 129
    Number of Cartesian functions: 135
    Spherical Harmonics?: true
    Max angular momentum: 2

  ==> Pre-Iterations <==

   -------------------------------------------------------
    Irrep   Nso     Nmo     Nalpha   Nbeta   Ndocc  Nsocc
   -------------------------------------------------------
     A        129     129       0       0       0       0
   -------------------------------------------------------
    Total     129     129      25      25      25       0
   -------------------------------------------------------

  ==> Integral Setup <==

  Using integral reordering PK algorithm.
  Sizing the integral batches needed.
  Building batch lookup table.
   Calculation information:
      Number of atoms:                  15
      Number of AO shells:              63
      Number of primitives:            177
      Number of atomic orbitals:       135
      Number of basis functions:       129

      Integral cutoff                 1.00e-12
      Number of threads:                 1

	Batch   1 pq = [       0,    8385] index = [             0,35158305] size =     35158305
  Task number: 4
  Buffer size: 11059200
  Buffer per thread: 2
  We computed 1656346 shell quartets total.
  Whereas there are 2033136 unique shell quartets.

  ==> DiskJK: Disk-Based J/K Matrices <==

    J tasked:                  Yes
    K tasked:                  Yes
    wK tasked:                  No
    Memory [MiB]:              375
    Schwarz Cutoff:          1E-12

    OpenMP threads:              1

  Minimum eigenvalue in the overlap matrix is 5.5685624318E-03.
  Using Symmetric Orthogonalization.

  SCF Guess: Superposition of Atomic Densities via on-the-fly atomic UHF.

  ==> Iterations <==

                        Total Energy        Delta E     RMS |[F,P]|

   @RHF iter SAD:  -321.64805011671086   -3.21648e+02   0.00000e+00
   @RHF iter   1:  -322.77455322868195   -1.12650e+00   5.27405e-03 DIIS
   @RHF iter   2:  -322.94589813256994   -1.71345e-01   2.94584e-03 DIIS
   @RHF iter   3:  -322.99672795533530   -5.08298e-02   4.75494e-04 DIIS
   @RHF iter   4:  -322.99924009517201   -2.51214e-03   1.58843e-04 DIIS
   @RHF iter   5:  -322.99952507170576   -2.84977e-04   3.15611e-05 DIIS
   @RHF iter   6:  -322.99953828764319   -1.32159e-05   1.61013e-05 DIIS
   @RHF iter   7:  -322.99954050329239   -2.21565e-06   3.33740e-06 DIIS
   @RHF iter   8:  -322.99954081940984   -3.16117e-07   1.46140e-06 DIIS
   @RHF iter   9:  -322.99954088159490   -6.21851e-08   4.60833e-07 DIIS
   @RHF iter  10:  -322.99954088792816   -6.33327e-09   1.47654e-07 DIIS
   @RHF iter  11:  -322.99954088835420   -4.26041e-10   3.77586e-08 DIIS
   @RHF iter  12:  -322.99954088838695   -3.27418e-11   1.00234e-08 DIIS
   @RHF iter  13:  -322.99954088838774   -7.95808e-13   3.71578e-09 DIIS
   @RHF iter  14:  -322.99954088838825   -5.11591e-13   1.47957e-09 DIIS
   @RHF iter  15:  -322.99954088838939   -1.13687e-12   6.53103e-10 DIIS
   @RHF iter  16:  -322.99954088838928    1.13687e-13   2.80901e-10 DIIS
   @RHF iter  17:  -322.99954088838831    9.66338e-13   9.99493e-11 DIIS
  Energy and wave function converged.

  ==> Post-Iterations <==

    Orbital Energies [Eh]
    ---------------------

    Doubly Occupied:

       1A    -20.416666     2A    -20.401350     3A    -15.743686
       4A    -11.355549     5A    -11.259601     6A    -11.166497
       7A     -1.363249     8A     -1.297244     9A     -1.181123
      10A     -1.025009    11A     -0.914413    12A     -0.824311
      13A     -0.810328    14A     -0.716365    15A     -0.637850
      16A     -0.628741    17A     -0.627483    18A     -0.544312
      19A     -0.537134    20A     -0.529787    21A     -0.474519
      22A     -0.442717    23A     -0.333051    24A     -0.314742
      25A     -0.311466

    Virtual:

      26A      0.096476    27A      0.153364    28A      0.165843
      29A      0.194394    30A      0.215904    31A      0.246942
      32A      0.261405    33A      0.282651    34A      0.312238
      35A      0.316622    36A      0.355658    37A      0.455835
      38A      0.501576    39A      0.504404    40A      0.560223
      41A      0.577833    42A      0.597977    43A      0.650183
      44A      0.702252    45A      0.705368    46A      0.763341
      47A      0.783766    48A      0.789640    49A      0.807096
      50A      0.818760    51A      0.835898    52A      0.852463
      53A      0.888071    54A      0.920796    55A      0.924153
      56A      0.925469    57A      0.946947    58A      0.969169
      59A      0.986722    60A      0.999501    61A      1.060765
      62A      1.087650    63A      1.098988    64A      1.186336
      65A      1.203313    66A      1.239764    67A      1.289797
      68A      1.385309    69A      1.409201    70A      1.417089
      71A      1.441825    72A      1.454127    73A      1.472593
      74A      1.524045    75A      1.547900    76A      1.591005
      77A      1.612553    78A      1.661683    79A      1.712130
      80A      1.734199    81A      1.747179    82A      1.807704
      83A      1.815846    84A      1.839356    85A      1.867065
      86A      1.884352    87A      1.925893    88A      1.954849
      89A      1.976489    90A      2.029922    91A      2.064870
      92A      2.069130    93A      2.079101    94A      2.095317
      95A      2.102042    96A      2.121857    97A      2.151302
      98A      2.239961    99A      2.271345   100A      2.296227
     101A      2.315295   102A      2.374352   103A      2.403069
     104A      2.423570   105A      2.527235   106A      2.559312
     107A      2.585428   108A      2.612087   109A      2.621055
     110A      2.644979   111A      2.658579   112A      2.802223
     113A      2.849771   114A      2.858819   115A      2.867082
     116A      2.872922   117A      2.928832   118A      3.100834
     119A      3.127562   120A      3.154930   121A      3.209370
     122A      3.243118   123A      3.272651   124A      3.493024
     125A      3.622491   126A      3.676534   127A      3.921065
     128A      3.930076   129A      4.051955

    Final Occupation by Irrep:
              A
    DOCC [    25 ]

  @RHF Final Energy:  -322.99954088838831

   => Energetics <=

    Nuclear Repulsion Energy =            236.0739461829473100
    One-Electron Energy =                -910.4325875765640603
    Two-Electron Energy =                 351.3591005052284117
    Total Energy =                       -322.9995408883883101

Computation Completed

Properties will be evaluated at   0.000000,   0.000000,   0.000000 [a0]

Properties computed using the SCF density matrix

  Nuclear Dipole Moment: [e a0]
     X:    -5.2552      Y:    -0.7243      Z:     4.9167

  Electronic Dipole Moment: [e a0]
     X:     0.8243      Y:     0.0764      Z:    -2.9660

  Dipole Moment: [e a0]
     X:    -4.4309      Y:    -0.6480      Z:     1.9507     Total:     4.8844

  Dipole Moment: [D]
     X:   -11.2622      Y:    -1.6470      Z:     4.9581     Total:    12.4150

*** tstop() called on ds3 at Mon Apr 27 17:47:38 2020
Module time:
	user time   =      13.53 seconds =       0.23 minutes
	system time =       6.42 seconds =       0.11 minutes
	total time  =         19 seconds =       0.32 minutes
Total time:
	user time   =      13.53 seconds =       0.23 minutes
	system time =       6.42 seconds =       0.11 minutes
	total time  =         19 seconds =       0.32 minutes
                                     G D M A

                                 by Anthony Stone

                           version 2.2.06, 22 June 2011

               Distributed Multipoles from Gaussian wavefunctions

Starting at 17:47:39 on 27 Apr 2020

Using SCF density matrix from file ./SSI/SSI-186GLU-189LYS-1-dimer.test.27498.fchk

                         Distributed Multipole Analysis

Standard DMA

Positions and radii in angstrom
Multipole moments in atomic units, ea_0^k for rank k

C          x =  2.488315  y =  1.139194  z = -0.203942 angstrom
           Maximum rank =  0   Radius =  0.650 angstrom
                   Q00  =  -0.277191

C          x =  1.200315  y =  0.370194  z = -0.517942 angstrom
           Maximum rank =  0   Radius =  0.650 angstrom
                   Q00  =   0.916198

O          x =  0.154315  y =  1.018194  z = -0.765942 angstrom
           Maximum rank =  0   Radius =  0.650 angstrom
                   Q00  =  -0.956338

O          x =  1.221315  y = -0.881806  z = -0.514942 angstrom
           Maximum rank =  0   Radius =  0.650 angstrom
                   Q00  =  -0.901726

H          x =  2.214315  y =  2.064194  z =  0.293058 angstrom
           Maximum rank =  0   Radius =  0.325 angstrom
                   Q00  =   0.071440

H          x =  2.981315  y =  1.405194  z = -1.141942 angstrom
           Maximum rank =  0   Radius =  0.325 angstrom
                   Q00  =   0.108975

H          x =  3.204955  y =  0.578964  z =  0.414584 angstrom
           Maximum rank =  0   Radius =  0.325 angstrom
                   Q00  =   0.080611

C          x = -2.387685  y = -1.279806  z =  1.520058 angstrom
           Maximum rank =  0   Radius =  0.650 angstrom
                   Q00  =  -0.131722

N          x = -2.281685  y = -0.296806  z =  0.401058 angstrom
           Maximum rank =  0   Radius =  0.650 angstrom
                   Q00  =  -0.118757

H          x = -2.377685  y = -0.785806  z = -0.483942 angstrom
           Maximum rank =  0   Radius =  0.325 angstrom
                   Q00  =   0.246395

H          x = -3.038685  y =  0.375194  z =  0.415058 angstrom
           Maximum rank =  0   Radius =  0.325 angstrom
                   Q00  =   0.226893

H          x = -1.375685  y =  0.170194  z =  0.336058 angstrom
           Maximum rank =  0   Radius =  0.325 angstrom
                   Q00  =   0.300112

H          x = -3.329685  y = -1.837806  z =  1.469058 angstrom
           Maximum rank =  0   Radius =  0.325 angstrom
                   Q00  =   0.128139

H          x = -2.354685  y = -0.760806  z =  2.484058 angstrom
           Maximum rank =  0   Radius =  0.325 angstrom
                   Q00  =   0.142614

H          x = -1.544005  y = -1.983596  z =  1.466422 angstrom
           Maximum rank =  0   Radius =  0.325 angstrom
                   Q00  =   0.164357

Total multipoles referred to origin at
           x =   0.000000,  y =    0.000000,  z =    0.000000 angstrom
                   Q00  =  -0.000000

Finished at 17:47:39 on 27 Apr 2020

  DMA results are available in the Python driver through the
	  variable('DMA DISTRIBUTED MULTIPOLES')
  and
	  variable('DMA TOTAL MULTIPOLES')
  commands.

    Psi4 stopped on: Monday, 27 April 2020 05:47PM
    Psi4 wall time for execution: 0:00:19.70

*** Psi4 exiting successfully. Buy a developer a beer!
