                               Psi4 1.3.2 release

  ==> Input File <==

--------------------------------------------------------------------------
import numpy as np
set {scf_type pk
basis cc-pvdz
d_convergence 10
gdma_switch   0
gdma_limit    0
gdma_origin   [ 0.0,  0.0,  0.0 ]
}
molecule test {
    units Angstrom
    0 1
    --
    0 1
    C               -1.884623556999263     2.632336696273317    -0.011266805039016
    C                0.040376443000738    -0.691663303726683     0.183733194960984
    C               -0.707623556999262    -1.499663303726683    -0.655266805039016
    C               -0.346623556999262     0.644336696273317     0.391733194960984
    C               -1.484623556999263     1.184336696273317    -0.230266805039016
    C               -1.838623556999263    -0.984663303726683    -1.285266805039016
    C               -2.228623556999263     0.359336696273317    -1.072266805039016
    O               -0.359623556999262    -2.806663303726683    -0.854266805039016
    H                0.913376443000738    -1.099663303726683     0.671733194960984
    H                0.240376443000738     1.268336696273317     1.050733194960984
    H               -2.427623556999262    -1.612663303726683    -1.939266805039016
    H               -0.909623556999262    -3.226663303726683    -1.526266805039016
    H               -1.468623556999263     2.983336696273316     0.934733194960984
    H               -2.969623556999262     2.678336696273317     0.061733194960984
    H               -3.109623556999262     0.748336696273317    -1.567266805039015
    H               -1.564065056999263     3.303573696273317    -0.821626805039016
    C                3.508376443000738     0.235336696273317     1.188733194960985
    C                4.385376443000736     1.099336696273317     2.073733194960984
    H                3.559376443000738    -0.803663303726683     1.509733194960984
    H                2.479376443000738     0.580336696273317     1.269733194960984
    H                3.826376443000738     0.297336696273317     0.148733194960984
    H                4.215376443000737     2.137336696273317     1.793733194960984
    H                5.440111443000737     0.845739296273317     1.891460194960984
    H                4.109783443000738     0.972963696273317     3.131125194960985

}
e, wfn = energy('scf', return_wfn=True)
gdma(wfn)
dmavals = variable('DMA DISTRIBUTED MULTIPOLES')
charges = np.array(dmavals)
print(charges)
np.save('SSI-090TYR-105LEU-1-dimer.npy', np.array(charges))--------------------------------------------------------------------------

*** tstart() called on ds3
*** at Tue Apr 28 13:59:06 2020

   => Loading Basis Set <=

    Name: CC-PVDZ
    Role: ORBITAL
    Keyword: BASIS
    atoms 1-7, 17-18  entry C          line   138 file /theoryfs2/ds/metcalf/miniconda2/envs/tf2gpu/share/psi4/basis/cc-pvdz.gbs
    atoms 8           entry O          line   198 file /theoryfs2/ds/metcalf/miniconda2/envs/tf2gpu/share/psi4/basis/cc-pvdz.gbs
    atoms 9-16, 19-24 entry H          line    22 file /theoryfs2/ds/metcalf/miniconda2/envs/tf2gpu/share/psi4/basis/cc-pvdz.gbs

         ---------------------------------------------------------
                                   SCF
               by Justin Turney, Rob Parrish, Andy Simmonett
                          and Daniel G. A. Smith
                              RHF Reference
                        1 Threads,    500 MiB Core
         ---------------------------------------------------------

  ==> Geometry <==

    Molecular point group: c1
    Full point group: C1

    Geometry (in Angstrom), charge = 0, multiplicity = 1:

       Center              X                  Y                   Z               Mass
    ------------   -----------------  -----------------  -----------------  -----------------
         C           -1.884623556999     2.632336696273    -0.011266805039    12.000000000000
         C            0.040376443001    -0.691663303727     0.183733194961    12.000000000000
         C           -0.707623556999    -1.499663303727    -0.655266805039    12.000000000000
         C           -0.346623556999     0.644336696273     0.391733194961    12.000000000000
         C           -1.484623556999     1.184336696273    -0.230266805039    12.000000000000
         C           -1.838623556999    -0.984663303727    -1.285266805039    12.000000000000
         C           -2.228623556999     0.359336696273    -1.072266805039    12.000000000000
         O           -0.359623556999    -2.806663303727    -0.854266805039    15.994914619570
         H            0.913376443001    -1.099663303727     0.671733194961     1.007825032230
         H            0.240376443001     1.268336696273     1.050733194961     1.007825032230
         H           -2.427623556999    -1.612663303727    -1.939266805039     1.007825032230
         H           -0.909623556999    -3.226663303727    -1.526266805039     1.007825032230
         H           -1.468623556999     2.983336696273     0.934733194961     1.007825032230
         H           -2.969623556999     2.678336696273     0.061733194961     1.007825032230
         H           -3.109623556999     0.748336696273    -1.567266805039     1.007825032230
         H           -1.564065056999     3.303573696273    -0.821626805039     1.007825032230
         C            3.508376443001     0.235336696273     1.188733194961    12.000000000000
         C            4.385376443001     1.099336696273     2.073733194961    12.000000000000
         H            3.559376443001    -0.803663303727     1.509733194961     1.007825032230
         H            2.479376443001     0.580336696273     1.269733194961     1.007825032230
         H            3.826376443001     0.297336696273     0.148733194961     1.007825032230
         H            4.215376443001     2.137336696273     1.793733194961     1.007825032230
         H            5.440111443001     0.845739296273     1.891460194961     1.007825032230
         H            4.109783443001     0.972963696273     3.131125194961     1.007825032230

  Running in c1 symmetry.

  Rotational constants: A =      0.04601  B =      0.02034  C =      0.01437 [cm^-1]
  Rotational constants: A =   1379.29346  B =    609.86296  C =    430.79321 [MHz]
  Nuclear repulsion =  482.949513294206383

  Charge       = 0
  Multiplicity = 1
  Electrons    = 76
  Nalpha       = 38
  Nbeta        = 38

  ==> Algorithm <==

  SCF Algorithm Type is PK.
  DIIS enabled.
  MOM disabled.
  Fractional occupation disabled.
  Guess Type is SAD.
  Energy threshold   = 1.00e-06
  Density threshold  = 1.00e-10
  Integral threshold = 0.00e+00

  ==> Primary Basis <==

  Basis Set: CC-PVDZ
    Blend: CC-PVDZ
    Number of shells: 102
    Number of basis function: 210
    Number of Cartesian functions: 220
    Spherical Harmonics?: true
    Max angular momentum: 2

  ==> Pre-Iterations <==

   -------------------------------------------------------
    Irrep   Nso     Nmo     Nalpha   Nbeta   Ndocc  Nsocc
   -------------------------------------------------------
     A        210     210       0       0       0       0
   -------------------------------------------------------
    Total     210     210      38      38      38       0
   -------------------------------------------------------

  ==> Integral Setup <==

  Using integral reordering PK algorithm.
  Sizing the integral batches needed.
  Building batch lookup table.
   Calculation information:
      Number of atoms:                  24
      Number of AO shells:             102
      Number of primitives:            290
      Number of atomic orbitals:       220
      Number of basis functions:       210

      Integral cutoff                 1.00e-12
      Number of threads:                 1

	Batch   1 pq = [       0,    9405] index = [             0,44231715] size =     44231715
	Batch   2 pq = [    9405,   13301] index = [      44231715,88464951] size =     44233236
	Batch   3 pq = [   13301,   16290] index = [      88464951,132690195] size =     44225244
	Batch   4 pq = [   16290,   18810] index = [     132690195,176917455] size =     44227260
	Batch   5 pq = [   18810,   21030] index = [     176917455,221140965] size =     44223510
	Batch   6 pq = [   21030,   22155] index = [     221140965,245433090] size =     24292125
  Task number: 23
  Buffer size: 11059200
  Buffer per thread: 2
  We computed 10491547 shell quartets total.
  Whereas there are 13799631 unique shell quartets.

  ==> DiskJK: Disk-Based J/K Matrices <==

    J tasked:                  Yes
    K tasked:                  Yes
    wK tasked:                  No
    Memory [MiB]:              375
    Schwarz Cutoff:          1E-12

    OpenMP threads:              1

  Minimum eigenvalue in the overlap matrix is 3.3237675830E-04.
  Using Symmetric Orthogonalization.

  SCF Guess: Superposition of Atomic Densities via on-the-fly atomic UHF.

  ==> Iterations <==

                        Total Energy        Delta E     RMS |[F,P]|

   @RHF iter SAD:  -422.61841845441694   -4.22618e+02   0.00000e+00
   @RHF iter   1:  -423.60199256445168   -9.83574e-01   2.96221e-03 DIIS
   @RHF iter   2:  -423.81717740696251   -2.15185e-01   1.24079e-03 DIIS
   @RHF iter   3:  -423.85116344548038   -3.39860e-02   2.81492e-04 DIIS
   @RHF iter   4:  -423.85401882890108   -2.85538e-03   1.13376e-04 DIIS
   @RHF iter   5:  -423.85434745149206   -3.28623e-04   2.09622e-05 DIIS
   @RHF iter   6:  -423.85436516342901   -1.77119e-05   6.46946e-06 DIIS
   @RHF iter   7:  -423.85436684509739   -1.68167e-06   2.14826e-06 DIIS
   @RHF iter   8:  -423.85436708917592   -2.44079e-07   8.25519e-07 DIIS
   @RHF iter   9:  -423.85436713329892   -4.41230e-08   3.37915e-07 DIIS
   @RHF iter  10:  -423.85436714240433   -9.10541e-09   1.46898e-07 DIIS
   @RHF iter  11:  -423.85436714526264   -2.85831e-09   6.43347e-08 DIIS
   @RHF iter  12:  -423.85436714575195   -4.89308e-10   3.00788e-08 DIIS
   @RHF iter  13:  -423.85436714583545   -8.35030e-11   8.45774e-09 DIIS
   @RHF iter  14:  -423.85436714583784   -2.38742e-12   2.17123e-09 DIIS
   @RHF iter  15:  -423.85436714584000   -2.16005e-12   7.84103e-10 DIIS
   @RHF iter  16:  -423.85436714583830    1.70530e-12   2.80218e-10 DIIS
   @RHF iter  17:  -423.85436714583892   -6.25278e-13   1.27419e-10 DIIS
   @RHF iter  18:  -423.85436714583756    1.36424e-12   6.66475e-11 DIIS
  Energy and wave function converged.

  ==> Post-Iterations <==

    Orbital Energies [Eh]
    ---------------------

    Doubly Occupied:

       1A    -20.581973     2A    -11.298303     3A    -11.241364
       4A    -11.240637     5A    -11.235992     6A    -11.235154
       7A    -11.230560     8A    -11.229782     9A    -11.217606
      10A    -11.214098    11A     -1.396569    12A     -1.145645
      13A     -1.036377    14A     -1.021838    15A     -1.011215
      16A     -0.926376    17A     -0.844404    18A     -0.834592
      19A     -0.798563    20A     -0.729479    21A     -0.664631
      22A     -0.640813    23A     -0.607551    24A     -0.603172
      25A     -0.598618    26A     -0.584524    27A     -0.581618
      28A     -0.568365    29A     -0.566185    30A     -0.527482
      31A     -0.500690    32A     -0.496525    33A     -0.486433
      34A     -0.483965    35A     -0.481744    36A     -0.464152
      37A     -0.333474    38A     -0.303586

    Virtual:

      39A      0.127191    40A      0.156254    41A      0.176062
      42A      0.180951    43A      0.194052    44A      0.217599
      45A      0.226008    46A      0.233113    47A      0.251594
      48A      0.263034    49A      0.265429    50A      0.279955
      51A      0.284489    52A      0.287094    53A      0.306198
      54A      0.344356    55A      0.369014    56A      0.397339
      57A      0.413275    58A      0.427241    59A      0.453846
      60A      0.486151    61A      0.504774    62A      0.520731
      63A      0.597638    64A      0.605165    65A      0.610861
      66A      0.618128    67A      0.634235    68A      0.646911
      69A      0.661380    70A      0.671206    71A      0.681447
      72A      0.695641    73A      0.706875    74A      0.720046
      75A      0.735693    76A      0.742737    77A      0.768880
      78A      0.771126    79A      0.781232    80A      0.789397
      81A      0.802582    82A      0.827456    83A      0.845328
      84A      0.849065    85A      0.876568    86A      0.879374
      87A      0.885948    88A      0.888954    89A      0.895473
      90A      0.899529    91A      0.906444    92A      0.912749
      93A      0.914414    94A      0.930486    95A      0.934890
      96A      0.943463    97A      0.949108    98A      0.965401
      99A      1.011990   100A      1.027702   101A      1.033089
     102A      1.073341   103A      1.108342   104A      1.128228
     105A      1.134859   106A      1.145882   107A      1.152907
     108A      1.176263   109A      1.209013   110A      1.235796
     111A      1.246919   112A      1.269089   113A      1.280435
     114A      1.291656   115A      1.302450   116A      1.312863
     117A      1.333898   118A      1.359738   119A      1.375661
     120A      1.381872   121A      1.470660   122A      1.482451
     123A      1.494613   124A      1.519336   125A      1.528690
     126A      1.549079   127A      1.595817   128A      1.621154
     129A      1.624342   130A      1.676336   131A      1.680220
     132A      1.695262   133A      1.702339   134A      1.727183
     135A      1.745280   136A      1.780171   137A      1.797527
     138A      1.802013   139A      1.853977   140A      1.866587
     141A      1.870592   142A      1.882436   143A      1.887431
     144A      1.907411   145A      1.909371   146A      1.916121
     147A      1.924472   148A      1.936257   149A      1.944136
     150A      1.946953   151A      1.957362   152A      1.963766
     153A      1.969625   154A      1.977435   155A      1.991639
     156A      1.996790   157A      2.040220   158A      2.050899
     159A      2.054577   160A      2.060965   161A      2.065288
     162A      2.100709   163A      2.128285   164A      2.144042
     165A      2.156805   166A      2.163969   167A      2.211040
     168A      2.236014   169A      2.254777   170A      2.270395
     171A      2.300883   172A      2.307990   173A      2.317798
     174A      2.329876   175A      2.370315   176A      2.414587
     177A      2.449769   178A      2.456156   179A      2.468474
     180A      2.482439   181A      2.486525   182A      2.529756
     183A      2.535300   184A      2.571440   185A      2.591344
     186A      2.595799   187A      2.636023   188A      2.747550
     189A      2.766282   190A      2.769137   191A      2.781894
     192A      2.804814   193A      2.811972   194A      2.839898
     195A      2.844522   196A      2.861399   197A      2.894299
     198A      2.942433   199A      2.958879   200A      2.979680
     201A      3.006739   202A      3.073474   203A      3.095065
     204A      3.251336   205A      3.269969   206A      3.345802
     207A      3.568842   208A      3.659180   209A      3.954355
     210A      4.183365

    Final Occupation by Irrep:
              A
    DOCC [    38 ]

  @RHF Final Energy:  -423.85436714583756

   => Energetics <=

    Nuclear Repulsion Energy =            482.9495132942063833
    One-Electron Energy =               -1531.6796537253785573
    Two-Electron Energy =                 624.8757732853346170
    Total Energy =                       -423.8543671458376139

Computation Completed

Properties will be evaluated at   0.000000,   0.000000,   0.000000 [a0]

Properties computed using the SCF density matrix

  Nuclear Dipole Moment: [e a0]
     X:    11.5619      Y:     8.4922      Z:     6.1917

  Electronic Dipole Moment: [e a0]
     X:   -11.9916      Y:    -8.3448      Z:    -6.5591

  Dipole Moment: [e a0]
     X:    -0.4297      Y:     0.1473      Z:    -0.3674     Total:     0.5843

  Dipole Moment: [D]
     X:    -1.0922      Y:     0.3745      Z:    -0.9339     Total:     1.4850

*** tstop() called on ds3 at Tue Apr 28 14:01:06 2020
Module time:
	user time   =      81.91 seconds =       1.37 minutes
	system time =      44.94 seconds =       0.75 minutes
	total time  =        120 seconds =       2.00 minutes
Total time:
	user time   =      81.91 seconds =       1.37 minutes
	system time =      44.94 seconds =       0.75 minutes
	total time  =        120 seconds =       2.00 minutes
                                     G D M A

                                 by Anthony Stone

                           version 2.2.06, 22 June 2011

               Distributed Multipoles from Gaussian wavefunctions

Starting at 14:1:7 on 28 Apr 2020

Using SCF density matrix from file ./SSI/SSI-090TYR-105LEU-1-dimer.test.9313.fchk

                         Distributed Multipole Analysis

Standard DMA

Positions and radii in angstrom
Multipole moments in atomic units, ea_0^k for rank k

C          x = -1.884624  y =  2.632337  z = -0.011267 angstrom
           Maximum rank =  0   Radius =  0.650 angstrom
                   Q00  =  -0.200739

C          x =  0.040376  y = -0.691663  z =  0.183733 angstrom
           Maximum rank =  0   Radius =  0.650 angstrom
                   Q00  =  -0.120506

C          x = -0.707624  y = -1.499663  z = -0.655267 angstrom
           Maximum rank =  0   Radius =  0.650 angstrom
                   Q00  =   0.311472

C          x = -0.346624  y =  0.644337  z =  0.391733 angstrom
           Maximum rank =  0   Radius =  0.650 angstrom
                   Q00  =   0.049609

C          x = -1.484624  y =  1.184337  z = -0.230267 angstrom
           Maximum rank =  0   Radius =  0.650 angstrom
                   Q00  =  -0.131742

C          x = -1.838624  y = -0.984663  z = -1.285267 angstrom
           Maximum rank =  0   Radius =  0.650 angstrom
                   Q00  =  -0.151176

C          x = -2.228624  y =  0.359337  z = -1.072267 angstrom
           Maximum rank =  0   Radius =  0.650 angstrom
                   Q00  =  -0.063137

O          x = -0.359624  y = -2.806663  z = -0.854267 angstrom
           Maximum rank =  0   Radius =  0.650 angstrom
                   Q00  =  -0.685647

H          x =  0.913376  y = -1.099663  z =  0.671733 angstrom
           Maximum rank =  0   Radius =  0.325 angstrom
                   Q00  =   0.084114

H          x =  0.240376  y =  1.268337  z =  1.050733 angstrom
           Maximum rank =  0   Radius =  0.325 angstrom
                   Q00  =   0.063912

H          x = -2.427624  y = -1.612663  z = -1.939267 angstrom
           Maximum rank =  0   Radius =  0.325 angstrom
                   Q00  =   0.071581

H          x = -0.909624  y = -3.226663  z = -1.526267 angstrom
           Maximum rank =  0   Radius =  0.325 angstrom
                   Q00  =   0.407154

H          x = -1.468624  y =  2.983337  z =  0.934733 angstrom
           Maximum rank =  0   Radius =  0.325 angstrom
                   Q00  =   0.098167

H          x = -2.969624  y =  2.678337  z =  0.061733 angstrom
           Maximum rank =  0   Radius =  0.325 angstrom
                   Q00  =   0.096752

H          x = -3.109624  y =  0.748337  z = -1.567267 angstrom
           Maximum rank =  0   Radius =  0.325 angstrom
                   Q00  =   0.070673

H          x = -1.564065  y =  3.303574  z = -0.821627 angstrom
           Maximum rank =  0   Radius =  0.325 angstrom
                   Q00  =   0.101361

C          x =  3.508376  y =  0.235337  z =  1.188733 angstrom
           Maximum rank =  0   Radius =  0.650 angstrom
                   Q00  =  -0.234637

C          x =  4.385376  y =  1.099337  z =  2.073733 angstrom
           Maximum rank =  0   Radius =  0.650 angstrom
                   Q00  =  -0.232184

H          x =  3.559376  y = -0.803663  z =  1.509733 angstrom
           Maximum rank =  0   Radius =  0.325 angstrom
                   Q00  =   0.076559

H          x =  2.479376  y =  0.580337  z =  1.269733 angstrom
           Maximum rank =  0   Radius =  0.325 angstrom
                   Q00  =   0.071344

H          x =  3.826376  y =  0.297337  z =  0.148733 angstrom
           Maximum rank =  0   Radius =  0.325 angstrom
                   Q00  =   0.083585

H          x =  4.215376  y =  2.137337  z =  1.793733 angstrom
           Maximum rank =  0   Radius =  0.325 angstrom
                   Q00  =   0.075421

H          x =  5.440111  y =  0.845739  z =  1.891460 angstrom
           Maximum rank =  0   Radius =  0.325 angstrom
                   Q00  =   0.079393

H          x =  4.109783  y =  0.972964  z =  3.131125 angstrom
           Maximum rank =  0   Radius =  0.325 angstrom
                   Q00  =   0.078672

Total multipoles referred to origin at
           x =   0.000000,  y =    0.000000,  z =    0.000000 angstrom
                   Q00  =  -0.000000

Finished at 14:1:7 on 28 Apr 2020

  DMA results are available in the Python driver through the
	  variable('DMA DISTRIBUTED MULTIPOLES')
  and
	  variable('DMA TOTAL MULTIPOLES')
  commands.

    Psi4 stopped on: Tuesday, 28 April 2020 02:01PM
    Psi4 wall time for execution: 0:02:00.74

*** Psi4 exiting successfully. Buy a developer a beer!
