                               Psi4 1.3.2 release

  ==> Input File <==

--------------------------------------------------------------------------
import numpy as np
set {scf_type pk
basis cc-pvdz
d_convergence 10
gdma_switch   0
gdma_limit    0
gdma_origin   [ 0.0,  0.0,  0.0 ]
}
molecule test {
    units Angstrom
    -1 1
    --
    -1 1
    C               -0.331965606665493     0.254471366017138    -0.391728323334546
    C                0.070034393334507     0.702471366017138    -1.791728323334546
    C               -1.299965606665493     1.199471366017138     0.307271676665454
    O               -2.412965606665493     0.764471366017138     0.593271676665454
    O               -0.955965606665493     2.356471366017138     0.670271676665454
    H               -0.788965606665493    -0.733528633982862    -0.479728323334546
    H                0.560034393334507     0.129471366017138     0.216271676665454
    H               -0.823965606665493     0.661471366017138    -2.414728323334546
    H                0.765034393334507    -0.043528633982862    -2.180728323334546
    H                0.525103393334507     1.695611366017138    -1.920521323334546
    C                2.622034393334507    -1.855528633982862     0.383271676665454
    C                2.190034393334507    -3.302528633982862     0.224271676665454
    H                2.194034393334507    -1.428528633982862     1.288271676665454
    H                3.709034393334507    -1.809528633982862     0.465271676665454
    H                2.307034393334507    -1.272528633982862    -0.482728323334546
    H                2.578034393334507    -3.871528633982862     1.054271676665454
    H                1.096528393334507    -3.419608633982862     0.201143676665454
    H                2.646235393334507    -3.699348633982862    -0.694647323334546

}
e, wfn = energy('scf', return_wfn=True)
gdma(wfn)
dmavals = variable('DMA DISTRIBUTED MULTIPOLES')
charges = np.array(dmavals)
print(charges)
np.save('SSI-055GLU-121LEU-1-dimer.npy', np.array(charges))--------------------------------------------------------------------------

*** tstart() called on ds3
*** at Mon Apr 27 12:55:29 2020

   => Loading Basis Set <=

    Name: CC-PVDZ
    Role: ORBITAL
    Keyword: BASIS
    atoms 1-3, 11-12  entry C          line   138 file /theoryfs2/ds/metcalf/miniconda2/envs/tf2gpu/share/psi4/basis/cc-pvdz.gbs
    atoms 4-5         entry O          line   198 file /theoryfs2/ds/metcalf/miniconda2/envs/tf2gpu/share/psi4/basis/cc-pvdz.gbs
    atoms 6-10, 13-18 entry H          line    22 file /theoryfs2/ds/metcalf/miniconda2/envs/tf2gpu/share/psi4/basis/cc-pvdz.gbs

         ---------------------------------------------------------
                                   SCF
               by Justin Turney, Rob Parrish, Andy Simmonett
                          and Daniel G. A. Smith
                              RHF Reference
                        1 Threads,    500 MiB Core
         ---------------------------------------------------------

  ==> Geometry <==

    Molecular point group: c1
    Full point group: C1

    Geometry (in Angstrom), charge = -1, multiplicity = 1:

       Center              X                  Y                   Z               Mass
    ------------   -----------------  -----------------  -----------------  -----------------
         C           -0.331965606665     0.254471366017    -0.391728323335    12.000000000000
         C            0.070034393335     0.702471366017    -1.791728323335    12.000000000000
         C           -1.299965606665     1.199471366017     0.307271676665    12.000000000000
         O           -2.412965606665     0.764471366017     0.593271676665    15.994914619570
         O           -0.955965606665     2.356471366017     0.670271676665    15.994914619570
         H           -0.788965606665    -0.733528633983    -0.479728323335     1.007825032230
         H            0.560034393335     0.129471366017     0.216271676665     1.007825032230
         H           -0.823965606665     0.661471366017    -2.414728323335     1.007825032230
         H            0.765034393335    -0.043528633983    -2.180728323335     1.007825032230
         H            0.525103393335     1.695611366017    -1.920521323335     1.007825032230
         C            2.622034393335    -1.855528633983     0.383271676665    12.000000000000
         C            2.190034393335    -3.302528633983     0.224271676665    12.000000000000
         H            2.194034393335    -1.428528633983     1.288271676665     1.007825032230
         H            3.709034393335    -1.809528633983     0.465271676665     1.007825032230
         H            2.307034393335    -1.272528633983    -0.482728323335     1.007825032230
         H            2.578034393335    -3.871528633983     1.054271676665     1.007825032230
         H            1.096528393335    -3.419608633983     0.201143676665     1.007825032230
         H            2.646235393335    -3.699348633983    -0.694647323335     1.007825032230

  Running in c1 symmetry.

  Rotational constants: A =      0.12264  B =      0.02606  C =      0.02480 [cm^-1]
  Rotational constants: A =   3676.76674  B =    781.19750  C =    743.57306 [MHz]
  Nuclear repulsion =  285.783258639753171

  Charge       = -1
  Multiplicity = 1
  Electrons    = 58
  Nalpha       = 29
  Nbeta        = 29

  ==> Algorithm <==

  SCF Algorithm Type is PK.
  DIIS enabled.
  MOM disabled.
  Fractional occupation disabled.
  Guess Type is SAD.
  Energy threshold   = 1.00e-06
  Density threshold  = 1.00e-10
  Integral threshold = 0.00e+00

  ==> Primary Basis <==

  Basis Set: CC-PVDZ
    Blend: CC-PVDZ
    Number of shells: 75
    Number of basis function: 153
    Number of Cartesian functions: 160
    Spherical Harmonics?: true
    Max angular momentum: 2

  ==> Pre-Iterations <==

   -------------------------------------------------------
    Irrep   Nso     Nmo     Nalpha   Nbeta   Ndocc  Nsocc
   -------------------------------------------------------
     A        153     153       0       0       0       0
   -------------------------------------------------------
    Total     153     153      29      29      29       0
   -------------------------------------------------------

  ==> Integral Setup <==

  Using integral reordering PK algorithm.
  Sizing the integral batches needed.
  Building batch lookup table.
   Calculation information:
      Number of atoms:                  18
      Number of AO shells:              75
      Number of primitives:            209
      Number of atomic orbitals:       160
      Number of basis functions:       153

      Integral cutoff                 1.00e-12
      Number of threads:                 1

	Batch   1 pq = [       0,    9405] index = [             0,44231715] size =     44231715
	Batch   2 pq = [    9405,   11781] index = [      44231715,69401871] size =     25170156
  Task number: 7
  Buffer size: 11059200
  Buffer per thread: 2
  We computed 3359700 shell quartets total.
  Whereas there are 4062675 unique shell quartets.

  ==> DiskJK: Disk-Based J/K Matrices <==

    J tasked:                  Yes
    K tasked:                  Yes
    wK tasked:                  No
    Memory [MiB]:              375
    Schwarz Cutoff:          1E-12

    OpenMP threads:              1

  Minimum eigenvalue in the overlap matrix is 4.1900240985E-03.
  Using Symmetric Orthogonalization.

  SCF Guess: Superposition of Atomic Densities via on-the-fly atomic UHF.

  ==> Iterations <==

                        Total Energy        Delta E     RMS |[F,P]|

   @RHF iter SAD:  -343.92043812240843   -3.43920e+02   0.00000e+00
   @RHF iter   1:  -345.21052750987690   -1.29009e+00   4.93047e-03 DIIS
   @RHF iter   2:  -345.43410939831608   -2.23582e-01   2.70099e-03 DIIS
   @RHF iter   3:  -345.49796836722396   -6.38590e-02   4.21045e-04 DIIS
   @RHF iter   4:  -345.50092131745680   -2.95295e-03   1.67196e-04 DIIS
   @RHF iter   5:  -345.50135338135453   -4.32064e-04   2.53493e-05 DIIS
   @RHF iter   6:  -345.50136696866053   -1.35873e-05   7.69509e-06 DIIS
   @RHF iter   7:  -345.50136796133796   -9.92677e-07   3.45724e-06 DIIS
   @RHF iter   8:  -345.50136812818681   -1.66849e-07   9.08922e-07 DIIS
   @RHF iter   9:  -345.50136815655128   -2.83645e-08   4.70295e-07 DIIS
   @RHF iter  10:  -345.50136816337249   -6.82121e-09   1.32192e-07 DIIS
   @RHF iter  11:  -345.50136816410503   -7.32541e-10   3.43573e-08 DIIS
   @RHF iter  12:  -345.50136816415022   -4.51905e-11   9.79716e-09 DIIS
   @RHF iter  13:  -345.50136816415596   -5.74119e-12   3.14060e-09 DIIS
   @RHF iter  14:  -345.50136816415630   -3.41061e-13   9.38952e-10 DIIS
   @RHF iter  15:  -345.50136816415494    1.36424e-12   3.98843e-10 DIIS
   @RHF iter  16:  -345.50136816415693   -1.98952e-12   1.73664e-10 DIIS
   @RHF iter  17:  -345.50136816415625    6.82121e-13   7.01448e-11 DIIS
  Energy and wave function converged.

  ==> Post-Iterations <==

    Orbital Energies [Eh]
    ---------------------

    Doubly Occupied:

       1A    -20.249033     2A    -20.242500     3A    -11.134112
       4A    -11.125193     5A    -11.102147     6A    -11.080151
       7A    -11.051221     8A     -1.146130     9A     -1.021966
      10A     -0.934606    11A     -0.875784    12A     -0.749924
      13A     -0.705153    14A     -0.517000    15A     -0.513265
      16A     -0.503550    17A     -0.455382    18A     -0.424506
      19A     -0.415844    20A     -0.398352    21A     -0.397141
      22A     -0.386908    23A     -0.364490    24A     -0.360875
      25A     -0.322532    26A     -0.295363    27A     -0.174592
      28A     -0.156941    29A     -0.147949

    Virtual:

      30A      0.266505    31A      0.316239    32A      0.323413
      33A      0.332334    34A      0.348839    35A      0.363636
      36A      0.378975    37A      0.399648    38A      0.430116
      39A      0.441837    40A      0.446820    41A      0.479419
      42A      0.496138    43A      0.549654    44A      0.607264
      45A      0.687924    46A      0.689986    47A      0.697540
      48A      0.710499    49A      0.716973    50A      0.753783
      51A      0.773843    52A      0.785017    53A      0.840482
      54A      0.870852    55A      0.937030    56A      0.964195
      57A      0.973813    58A      0.975307    59A      0.989116
      60A      0.992350    61A      0.999665    62A      1.014558
      63A      1.032782    64A      1.040448    65A      1.043032
      66A      1.053460    67A      1.066902    68A      1.081097
      69A      1.098757    70A      1.104287    71A      1.131624
      72A      1.156745    73A      1.213388    74A      1.246307
      75A      1.271438    76A      1.305337    77A      1.330358
      78A      1.350001    79A      1.409408    80A      1.500668
      81A      1.530914    82A      1.552065    83A      1.560671
      84A      1.572318    85A      1.604672    86A      1.619599
      87A      1.639569    88A      1.655289    89A      1.684840
      90A      1.700272    91A      1.736525    92A      1.767842
      93A      1.796070    94A      1.821252    95A      1.837789
      96A      1.951266    97A      1.962155    98A      1.967689
      99A      1.999545   100A      2.020310   101A      2.033474
     102A      2.041487   103A      2.043008   104A      2.051663
     105A      2.056036   106A      2.059806   107A      2.085476
     108A      2.123307   109A      2.132607   110A      2.151418
     111A      2.180728   112A      2.184466   113A      2.188151
     114A      2.217428   115A      2.223946   116A      2.290373
     117A      2.341532   118A      2.380648   119A      2.391436
     120A      2.407673   121A      2.483312   122A      2.497079
     123A      2.542504   124A      2.543800   125A      2.572024
     126A      2.635050   127A      2.655281   128A      2.670853
     129A      2.675947   130A      2.705391   131A      2.762596
     132A      2.854317   133A      2.865576   134A      2.889310
     135A      2.906782   136A      2.943532   137A      2.953692
     138A      2.995157   139A      3.030270   140A      3.037108
     141A      3.065423   142A      3.073852   143A      3.135816
     144A      3.257100   145A      3.302455   146A      3.314062
     147A      3.378496   148A      3.675061   149A      3.782552
     150A      3.832669   151A      4.072715   152A      4.100772
     153A      4.227296

    Final Occupation by Irrep:
              A
    DOCC [    29 ]

  @RHF Final Energy:  -345.50136816415625

   => Energetics <=

    Nuclear Repulsion Energy =            285.7832586397531713
    One-Electron Energy =               -1048.0640346207101175
    Two-Electron Energy =                 416.7794078168006990
    Total Energy =                       -345.5013681641562471

Computation Completed

Properties will be evaluated at   0.000000,   0.000000,   0.000000 [a0]

Properties computed using the SCF density matrix

  Nuclear Dipole Moment: [e a0]
     X:    13.8285      Y:   -12.9142      Z:    -4.6324

  Electronic Dipole Moment: [e a0]
     X:   -10.7260      Y:     9.9299      Z:     3.4721

  Dipole Moment: [e a0]
     X:     3.1025      Y:    -2.9842      Z:    -1.1602     Total:     4.4584

  Dipole Moment: [D]
     X:     7.8859      Y:    -7.5852      Z:    -2.9491     Total:    11.3322

*** tstop() called on ds3 at Mon Apr 27 12:56:08 2020
Module time:
	user time   =      27.26 seconds =       0.45 minutes
	system time =      14.01 seconds =       0.23 minutes
	total time  =         39 seconds =       0.65 minutes
Total time:
	user time   =      27.26 seconds =       0.45 minutes
	system time =      14.01 seconds =       0.23 minutes
	total time  =         39 seconds =       0.65 minutes
                                     G D M A

                                 by Anthony Stone

                           version 2.2.06, 22 June 2011

               Distributed Multipoles from Gaussian wavefunctions

Starting at 12:56:8 on 27 Apr 2020

Using SCF density matrix from file ./SSI/SSI-055GLU-121LEU-1-dimer.test.4655.fchk

                         Distributed Multipole Analysis

Standard DMA

Positions and radii in angstrom
Multipole moments in atomic units, ea_0^k for rank k

C          x = -0.331966  y =  0.254471  z = -0.391728 angstrom
           Maximum rank =  0   Radius =  0.650 angstrom
                   Q00  =  -0.086187

C          x =  0.070034  y =  0.702471  z = -1.791728 angstrom
           Maximum rank =  0   Radius =  0.650 angstrom
                   Q00  =  -0.225934

C          x = -1.299966  y =  1.199471  z =  0.307272 angstrom
           Maximum rank =  0   Radius =  0.650 angstrom
                   Q00  =   0.984946

O          x = -2.412966  y =  0.764471  z =  0.593272 angstrom
           Maximum rank =  0   Radius =  0.650 angstrom
                   Q00  =  -0.912218

O          x = -0.955966  y =  2.356471  z =  0.670272 angstrom
           Maximum rank =  0   Radius =  0.650 angstrom
                   Q00  =  -0.970378

H          x = -0.788966  y = -0.733529  z = -0.479728 angstrom
           Maximum rank =  0   Radius =  0.325 angstrom
                   Q00  =   0.021704

H          x =  0.560034  y =  0.129471  z =  0.216272 angstrom
           Maximum rank =  0   Radius =  0.325 angstrom
                   Q00  =   0.030738

H          x = -0.823966  y =  0.661471  z = -2.414728 angstrom
           Maximum rank =  0   Radius =  0.325 angstrom
                   Q00  =   0.058204

H          x =  0.765034  y = -0.043529  z = -2.180728 angstrom
           Maximum rank =  0   Radius =  0.325 angstrom
                   Q00  =   0.017180

H          x =  0.525103  y =  1.695611  z = -1.920521 angstrom
           Maximum rank =  0   Radius =  0.325 angstrom
                   Q00  =   0.079781

C          x =  2.622034  y = -1.855529  z =  0.383272 angstrom
           Maximum rank =  0   Radius =  0.650 angstrom
                   Q00  =  -0.216502

C          x =  2.190034  y = -3.302529  z =  0.224272 angstrom
           Maximum rank =  0   Radius =  0.650 angstrom
                   Q00  =  -0.239936

H          x =  2.194034  y = -1.428529  z =  1.288272 angstrom
           Maximum rank =  0   Radius =  0.325 angstrom
                   Q00  =   0.092637

H          x =  3.709034  y = -1.809529  z =  0.465272 angstrom
           Maximum rank =  0   Radius =  0.325 angstrom
                   Q00  =   0.053674

H          x =  2.307034  y = -1.272529  z = -0.482728 angstrom
           Maximum rank =  0   Radius =  0.325 angstrom
                   Q00  =   0.097106

H          x =  2.578034  y = -3.871529  z =  1.054272 angstrom
           Maximum rank =  0   Radius =  0.325 angstrom
                   Q00  =   0.062383

H          x =  1.096528  y = -3.419609  z =  0.201144 angstrom
           Maximum rank =  0   Radius =  0.325 angstrom
                   Q00  =   0.093557

H          x =  2.646235  y = -3.699349  z = -0.694647 angstrom
           Maximum rank =  0   Radius =  0.325 angstrom
                   Q00  =   0.059245

Total multipoles referred to origin at
           x =   0.000000,  y =    0.000000,  z =    0.000000 angstrom
                   Q00  =  -1.000000

Finished at 12:56:8 on 27 Apr 2020

  DMA results are available in the Python driver through the
	  variable('DMA DISTRIBUTED MULTIPOLES')
  and
	  variable('DMA TOTAL MULTIPOLES')
  commands.

    Psi4 stopped on: Monday, 27 April 2020 12:56PM
    Psi4 wall time for execution: 0:00:39.68

*** Psi4 exiting successfully. Buy a developer a beer!
