                               Psi4 1.3.2 release

  ==> Input File <==

--------------------------------------------------------------------------
import numpy as np
set {scf_type pk
basis cc-pvdz
d_convergence 10
gdma_switch   0
gdma_limit    0
gdma_origin   [ 0.0,  0.0,  0.0 ]
}
molecule test {
    units Angstrom
    0 1
    --
    0 1
    C               -4.252609254479267    -0.525746557667468    -0.445280377320989
    C               -4.473609254479268     0.561253442332532    -1.479280377320989
    H               -3.873609254479268    -1.433746557667468    -0.917280377320989
    H               -3.546609254479268    -0.174746557667468     0.302719622679011
    H               -5.183609254479267    -0.748746557667468     0.065719622679011
    H               -4.782609254479268     1.482253442332532    -0.994280377320989
    H               -5.262099254479268     0.263682042332532    -2.186200377320989
    H               -3.541759254479268     0.743682942332532    -2.034600377320989
    C               -0.190609254479268     1.999253442332532     2.015719622679011
    C                0.625390745520732     0.146253442332532     0.410719622679011
    C                0.852390745520733     1.322253442332532     1.176719622679011
    C                1.848390745520732    -0.234746557667468    -0.196280377320989
    C                2.175390745520732     1.611253442332532     1.041719622679011
    C               -0.508609254479268    -0.643746557667468     0.192719622679011
    C               -0.403609254479268    -1.765746557667468    -0.627280377320989
    C                0.813390745520733    -2.103746557667467    -1.238280377320989
    C                1.959390745520732    -1.347746557667468    -1.019280377320989
    N                2.774390745520732     0.687253442332532     0.206719622679011
    H               -1.435609254479268    -0.395746557667468     0.680719622679011
    H               -1.271609254479267    -2.388746557667468    -0.790280377320989
    H                0.866390745520732    -2.984746557667468    -1.859280377320989
    H               -0.227609254479268     1.406253442332532     2.911719622679011
    H               -1.146609254479267     1.900253442332532     1.500719622679011
    H                2.702390745520732     2.418253442332532     1.529719622679011
    H                3.782390745520732     0.609253442332532     0.113719622679011
    H                2.899390745520732    -1.615746557667468    -1.473280377320989
    H               -0.015619254479268     3.052778442332532     2.279279622679011

}
e, wfn = energy('scf', return_wfn=True)
gdma(wfn)
dmavals = variable('DMA DISTRIBUTED MULTIPOLES')
charges = np.array(dmavals)
print(charges)
np.save('SSI-025ALA-035TRP-1-dimer.npy', np.array(charges))--------------------------------------------------------------------------

*** tstart() called on ds3
*** at Mon Apr 27 13:36:51 2020

   => Loading Basis Set <=

    Name: CC-PVDZ
    Role: ORBITAL
    Keyword: BASIS
    atoms 1-2, 9-17  entry C          line   138 file /theoryfs2/ds/metcalf/miniconda2/envs/tf2gpu/share/psi4/basis/cc-pvdz.gbs
    atoms 3-8, 19-27 entry H          line    22 file /theoryfs2/ds/metcalf/miniconda2/envs/tf2gpu/share/psi4/basis/cc-pvdz.gbs
    atoms 18         entry N          line   168 file /theoryfs2/ds/metcalf/miniconda2/envs/tf2gpu/share/psi4/basis/cc-pvdz.gbs

         ---------------------------------------------------------
                                   SCF
               by Justin Turney, Rob Parrish, Andy Simmonett
                          and Daniel G. A. Smith
                              RHF Reference
                        1 Threads,    500 MiB Core
         ---------------------------------------------------------

  ==> Geometry <==

    Molecular point group: c1
    Full point group: C1

    Geometry (in Angstrom), charge = 0, multiplicity = 1:

       Center              X                  Y                   Z               Mass
    ------------   -----------------  -----------------  -----------------  -----------------
         C           -4.252609254479    -0.525746557667    -0.445280377321    12.000000000000
         C           -4.473609254479     0.561253442333    -1.479280377321    12.000000000000
         H           -3.873609254479    -1.433746557667    -0.917280377321     1.007825032230
         H           -3.546609254479    -0.174746557667     0.302719622679     1.007825032230
         H           -5.183609254479    -0.748746557667     0.065719622679     1.007825032230
         H           -4.782609254479     1.482253442333    -0.994280377321     1.007825032230
         H           -5.262099254479     0.263682042333    -2.186200377321     1.007825032230
         H           -3.541759254479     0.743682942333    -2.034600377321     1.007825032230
         C           -0.190609254479     1.999253442333     2.015719622679    12.000000000000
         C            0.625390745521     0.146253442333     0.410719622679    12.000000000000
         C            0.852390745521     1.322253442333     1.176719622679    12.000000000000
         C            1.848390745521    -0.234746557667    -0.196280377321    12.000000000000
         C            2.175390745521     1.611253442333     1.041719622679    12.000000000000
         C           -0.508609254479    -0.643746557667     0.192719622679    12.000000000000
         C           -0.403609254479    -1.765746557667    -0.627280377321    12.000000000000
         C            0.813390745521    -2.103746557667    -1.238280377321    12.000000000000
         C            1.959390745521    -1.347746557667    -1.019280377321    12.000000000000
         N            2.774390745521     0.687253442333     0.206719622679    14.003074004430
         H           -1.435609254479    -0.395746557667     0.680719622679     1.007825032230
         H           -1.271609254479    -2.388746557667    -0.790280377321     1.007825032230
         H            0.866390745521    -2.984746557667    -1.859280377321     1.007825032230
         H           -0.227609254479     1.406253442333     2.911719622679     1.007825032230
         H           -1.146609254479     1.900253442333     1.500719622679     1.007825032230
         H            2.702390745521     2.418253442333     1.529719622679     1.007825032230
         H            3.782390745521     0.609253442333     0.113719622679     1.007825032230
         H            2.899390745521    -1.615746557667    -1.473280377321     1.007825032230
         H           -0.015619254479     3.052778442333     2.279279622679     1.007825032230

  Running in c1 symmetry.

  Rotational constants: A =      0.03931  B =      0.01745  C =      0.01294 [cm^-1]
  Rotational constants: A =   1178.44299  B =    523.16428  C =    387.90639 [MHz]
  Nuclear repulsion =  647.245466611430743

  Charge       = 0
  Multiplicity = 1
  Electrons    = 88
  Nalpha       = 44
  Nbeta        = 44

  ==> Algorithm <==

  SCF Algorithm Type is PK.
  DIIS enabled.
  MOM disabled.
  Fractional occupation disabled.
  Guess Type is SAD.
  Energy threshold   = 1.00e-06
  Density threshold  = 1.00e-10
  Integral threshold = 0.00e+00

  ==> Primary Basis <==

  Basis Set: CC-PVDZ
    Blend: CC-PVDZ
    Number of shells: 117
    Number of basis function: 243
    Number of Cartesian functions: 255
    Spherical Harmonics?: true
    Max angular momentum: 2

  ==> Pre-Iterations <==

   -------------------------------------------------------
    Irrep   Nso     Nmo     Nalpha   Nbeta   Ndocc  Nsocc
   -------------------------------------------------------
     A        243     243       0       0       0       0
   -------------------------------------------------------
    Total     243     243      44      44      44       0
   -------------------------------------------------------

  ==> Integral Setup <==

  Using integral reordering PK algorithm.
  Sizing the integral batches needed.
  Building batch lookup table.
   Calculation information:
      Number of atoms:                  27
      Number of AO shells:             117
      Number of primitives:            339
      Number of atomic orbitals:       255
      Number of basis functions:       243

      Integral cutoff                 1.00e-12
      Number of threads:                 1

	Batch   1 pq = [       0,    9405] index = [             0,44231715] size =     44231715
	Batch   2 pq = [    9405,   13301] index = [      44231715,88464951] size =     44233236
	Batch   3 pq = [   13301,   16290] index = [      88464951,132690195] size =     44225244
	Batch   4 pq = [   16290,   18810] index = [     132690195,176917455] size =     44227260
	Batch   5 pq = [   18810,   21030] index = [     176917455,221140965] size =     44223510
	Batch   6 pq = [   21030,   23037] index = [     221140965,265363203] size =     44222238
	Batch   7 pq = [   23037,   24883] index = [     265363203,309594286] size =     44231083
	Batch   8 pq = [   24883,   26601] index = [     309594286,353819901] size =     44225615
	Batch   9 pq = [   26601,   28214] index = [     353819901,398029005] size =     44209104
	Batch  10 pq = [   28214,   29646] index = [     398029005,439457481] size =     41428476
  Task number: 40
  Buffer size: 11059200
  Buffer per thread: 2
  We computed 21855841 shell quartets total.
  Whereas there are 23829156 unique shell quartets.

  ==> DiskJK: Disk-Based J/K Matrices <==

    J tasked:                  Yes
    K tasked:                  Yes
    wK tasked:                  No
    Memory [MiB]:              375
    Schwarz Cutoff:          1E-12

    OpenMP threads:              1

  Minimum eigenvalue in the overlap matrix is 2.3816443953E-04.
  Using Symmetric Orthogonalization.

  SCF Guess: Superposition of Atomic Densities via on-the-fly atomic UHF.

  ==> Iterations <==

                        Total Energy        Delta E     RMS |[F,P]|

   @RHF iter SAD:  -479.09575492950182   -4.79096e+02   0.00000e+00
   @RHF iter   1:  -479.48442168581943   -3.88667e-01   2.61482e-03 DIIS
   @RHF iter   2:  -479.71788226507113   -2.33461e-01   1.16813e-03 DIIS
   @RHF iter   3:  -479.76038116393357   -4.24989e-02   3.06591e-04 DIIS
   @RHF iter   4:  -479.76425863421014   -3.87747e-03   1.41156e-04 DIIS
   @RHF iter   5:  -479.76492610289438   -6.67469e-04   2.02976e-05 DIIS
   @RHF iter   6:  -479.76495654180502   -3.04389e-05   9.41192e-06 DIIS
   @RHF iter   7:  -479.76496296731062   -6.42551e-06   3.98152e-06 DIIS
   @RHF iter   8:  -479.76496484478594   -1.87748e-06   1.58397e-06 DIIS
   @RHF iter   9:  -479.76496522406165   -3.79276e-07   7.05146e-07 DIIS
   @RHF iter  10:  -479.76496529991732   -7.58557e-08   3.18795e-07 DIIS
   @RHF iter  11:  -479.76496531763758   -1.77203e-08   1.18033e-07 DIIS
   @RHF iter  12:  -479.76496531996554   -2.32797e-09   3.89563e-08 DIIS
   @RHF iter  13:  -479.76496532013078   -1.65244e-10   9.93603e-09 DIIS
   @RHF iter  14:  -479.76496532014778   -1.69962e-11   4.17341e-09 DIIS
   @RHF iter  15:  -479.76496532014295    4.83169e-12   2.25526e-09 DIIS
   @RHF iter  16:  -479.76496532014704   -4.09273e-12   9.96555e-10 DIIS
   @RHF iter  17:  -479.76496532014829   -1.25056e-12   4.03244e-10 DIIS
   @RHF iter  18:  -479.76496532015017   -1.87583e-12   1.67040e-10 DIIS
   @RHF iter  19:  -479.76496532014755    2.61480e-12   5.48633e-11 DIIS
  Energy and wave function converged.

  ==> Post-Iterations <==

    Orbital Energies [Eh]
    ---------------------

    Doubly Occupied:

       1A    -15.598669     2A    -11.262753     3A    -11.261497
       4A    -11.230136     5A    -11.228853     6A    -11.228703
       7A    -11.226249     8A    -11.220625     9A    -11.217815
      10A    -11.216805    11A    -11.214396    12A    -11.213304
      13A     -1.293551    14A     -1.127017    15A     -1.075439
      16A     -1.018949    17A     -0.995868    18A     -0.985571
      19A     -0.934247    20A     -0.839911    21A     -0.834251
      22A     -0.803426    23A     -0.752031    24A     -0.717544
      25A     -0.661284    26A     -0.641463    27A     -0.606424
      28A     -0.598959    29A     -0.598106    30A     -0.592642
      31A     -0.586024    32A     -0.569925    33A     -0.555255
      34A     -0.533911    35A     -0.525955    36A     -0.501096
      37A     -0.494832    38A     -0.484273    39A     -0.481918
      40A     -0.471114    41A     -0.459627    42A     -0.372628
      43A     -0.294311    44A     -0.273866

    Virtual:

      45A      0.124632    46A      0.167369    47A      0.173461
      48A      0.183371    49A      0.197847    50A      0.207198
      51A      0.221762    52A      0.227758    53A      0.230832
      54A      0.247801    55A      0.251106    56A      0.264282
      57A      0.274925    58A      0.282776    59A      0.286524
      60A      0.303986    61A      0.326901    62A      0.367777
      63A      0.375744    64A      0.395314    65A      0.402997
      66A      0.406460    67A      0.423976    68A      0.452841
      69A      0.477193    70A      0.486590    71A      0.496951
      72A      0.507140    73A      0.587217    74A      0.601125
      75A      0.602956    76A      0.612882    77A      0.625139
      78A      0.630898    79A      0.639924    80A      0.670504
      81A      0.684724    82A      0.688647    83A      0.703376
      84A      0.712796    85A      0.721338    86A      0.733686
      87A      0.736680    88A      0.744373    89A      0.748171
      90A      0.759669    91A      0.780063    92A      0.789111
      93A      0.794084    94A      0.799313    95A      0.814873
      96A      0.847601    97A      0.852824    98A      0.856939
      99A      0.876775   100A      0.879765   101A      0.888295
     102A      0.890453   103A      0.896213   104A      0.898637
     105A      0.906663   106A      0.913628   107A      0.922768
     108A      0.930467   109A      0.944456   110A      0.958067
     111A      0.972324   112A      0.978273   113A      0.982846
     114A      1.012065   115A      1.017015   116A      1.030398
     117A      1.052259   118A      1.071223   119A      1.098009
     120A      1.119464   121A      1.127025   122A      1.135244
     123A      1.142600   124A      1.146177   125A      1.160289
     126A      1.198746   127A      1.206832   128A      1.217509
     129A      1.233008   130A      1.245088   131A      1.258679
     132A      1.265881   133A      1.276250   134A      1.294315
     135A      1.312719   136A      1.326614   137A      1.330959
     138A      1.359796   139A      1.383923   140A      1.420921
     141A      1.448872   142A      1.484013   143A      1.488956
     144A      1.528511   145A      1.561811   146A      1.570896
     147A      1.581940   148A      1.602423   149A      1.639237
     150A      1.647098   151A      1.662206   152A      1.690047
     153A      1.691070   154A      1.702506   155A      1.715774
     156A      1.738290   157A      1.757686   158A      1.765562
     159A      1.795435   160A      1.802644   161A      1.825080
     162A      1.833504   163A      1.864266   164A      1.873001
     165A      1.876471   166A      1.890880   167A      1.896869
     168A      1.906459   169A      1.915411   170A      1.932092
     171A      1.932768   172A      1.946039   173A      1.952779
     174A      1.957862   175A      1.959189   176A      1.962574
     177A      1.966226   178A      1.975980   179A      1.989367
     180A      1.991586   181A      2.013181   182A      2.034154
     183A      2.060135   184A      2.067042   185A      2.088448
     186A      2.095747   187A      2.103485   188A      2.108929
     189A      2.116590   190A      2.125910   191A      2.143934
     192A      2.145068   193A      2.171933   194A      2.177018
     195A      2.182803   196A      2.236319   197A      2.249521
     198A      2.280410   199A      2.296362   200A      2.306311
     201A      2.319904   202A      2.324126   203A      2.338543
     204A      2.362215   205A      2.391181   206A      2.446944
     207A      2.449412   208A      2.462225   209A      2.465307
     210A      2.483153   211A      2.546307   212A      2.572768
     213A      2.575527   214A      2.579982   215A      2.590527
     216A      2.647919   217A      2.660403   218A      2.683927
     219A      2.733433   220A      2.767112   221A      2.770872
     222A      2.780061   223A      2.785955   224A      2.802534
     225A      2.817607   226A      2.837814   227A      2.851209
     228A      2.861505   229A      2.877688   230A      2.884844
     231A      2.920680   232A      2.966601   233A      2.983064
     234A      2.994848   235A      3.040612   236A      3.059961
     237A      3.082167   238A      3.130988   239A      3.210397
     240A      3.316933   241A      3.382790   242A      3.722326
     243A      3.955716

    Final Occupation by Irrep:
              A
    DOCC [    44 ]

  @RHF Final Energy:  -479.76496532014755

   => Energetics <=

    Nuclear Repulsion Energy =            647.2454666114307429
    One-Electron Energy =               -1932.4184208171952832
    Two-Electron Energy =                 805.4079888856171010
    Total Energy =                       -479.7649653201475530

Computation Completed

Properties will be evaluated at   0.000000,   0.000000,   0.000000 [a0]

Properties computed using the SCF density matrix

  Nuclear Dipole Moment: [e a0]
     X:   -18.7919      Y:     1.9987      Z:    -0.8170

  Electronic Dipole Moment: [e a0]
     X:    19.5038      Y:    -1.7194      Z:     1.0453

  Dipole Moment: [e a0]
     X:     0.7118      Y:     0.2793      Z:     0.2282     Total:     0.7980

  Dipole Moment: [D]
     X:     1.8093      Y:     0.7100      Z:     0.5801     Total:     2.0283

*** tstop() called on ds3 at Mon Apr 27 13:42:16 2020
Module time:
	user time   =     182.96 seconds =       3.05 minutes
	system time =      94.97 seconds =       1.58 minutes
	total time  =        325 seconds =       5.42 minutes
Total time:
	user time   =     182.96 seconds =       3.05 minutes
	system time =      94.97 seconds =       1.58 minutes
	total time  =        325 seconds =       5.42 minutes
                                     G D M A

                                 by Anthony Stone

                           version 2.2.06, 22 June 2011

               Distributed Multipoles from Gaussian wavefunctions

Starting at 13:42:16 on 27 Apr 2020

Using SCF density matrix from file ./SSI/SSI-025ALA-035TRP-1-dimer.test.7311.fchk

                         Distributed Multipole Analysis

Standard DMA

Positions and radii in angstrom
Multipole moments in atomic units, ea_0^k for rank k

C          x = -4.252609  y = -0.525747  z = -0.445280 angstrom
           Maximum rank =  0   Radius =  0.650 angstrom
                   Q00  =  -0.231251

C          x = -4.473609  y =  0.561253  z = -1.479280 angstrom
           Maximum rank =  0   Radius =  0.650 angstrom
                   Q00  =  -0.234057

H          x = -3.873609  y = -1.433747  z = -0.917280 angstrom
           Maximum rank =  0   Radius =  0.325 angstrom
                   Q00  =   0.081107

H          x = -3.546609  y = -0.174747  z =  0.302720 angstrom
           Maximum rank =  0   Radius =  0.325 angstrom
                   Q00  =   0.074073

H          x = -5.183609  y = -0.748747  z =  0.065720 angstrom
           Maximum rank =  0   Radius =  0.325 angstrom
                   Q00  =   0.076331

H          x = -4.782609  y =  1.482253  z = -0.994280 angstrom
           Maximum rank =  0   Radius =  0.325 angstrom
                   Q00  =   0.077280

H          x = -5.262099  y =  0.263682  z = -2.186200 angstrom
           Maximum rank =  0   Radius =  0.325 angstrom
                   Q00  =   0.075942

H          x = -3.541759  y =  0.743683  z = -2.034600 angstrom
           Maximum rank =  0   Radius =  0.325 angstrom
                   Q00  =   0.081965

C          x = -0.190609  y =  1.999253  z =  2.015720 angstrom
           Maximum rank =  0   Radius =  0.650 angstrom
                   Q00  =  -0.210617

C          x =  0.625391  y =  0.146253  z =  0.410720 angstrom
           Maximum rank =  0   Radius =  0.650 angstrom
                   Q00  =  -0.058612

C          x =  0.852391  y =  1.322253  z =  1.176720 angstrom
           Maximum rank =  0   Radius =  0.650 angstrom
                   Q00  =  -0.113363

C          x =  1.848391  y = -0.234747  z = -0.196280 angstrom
           Maximum rank =  0   Radius =  0.650 angstrom
                   Q00  =   0.299677

C          x =  2.175391  y =  1.611253  z =  1.041720 angstrom
           Maximum rank =  0   Radius =  0.650 angstrom
                   Q00  =   0.066884

C          x = -0.508609  y = -0.643747  z =  0.192720 angstrom
           Maximum rank =  0   Radius =  0.650 angstrom
                   Q00  =  -0.101155

C          x = -0.403609  y = -1.765747  z = -0.627280 angstrom
           Maximum rank =  0   Radius =  0.650 angstrom
                   Q00  =  -0.081392

C          x =  0.813391  y = -2.103747  z = -1.238280 angstrom
           Maximum rank =  0   Radius =  0.650 angstrom
                   Q00  =  -0.076264

C          x =  1.959391  y = -1.347747  z = -1.019280 angstrom
           Maximum rank =  0   Radius =  0.650 angstrom
                   Q00  =  -0.121039

N          x =  2.774391  y =  0.687253  z =  0.206720 angstrom
           Maximum rank =  0   Radius =  0.650 angstrom
                   Q00  =  -0.497719

H          x = -1.435609  y = -0.395747  z =  0.680720 angstrom
           Maximum rank =  0   Radius =  0.325 angstrom
                   Q00  =   0.068448

H          x = -1.271609  y = -2.388747  z = -0.790280 angstrom
           Maximum rank =  0   Radius =  0.325 angstrom
                   Q00  =   0.059988

H          x =  0.866391  y = -2.984747  z = -1.859280 angstrom
           Maximum rank =  0   Radius =  0.325 angstrom
                   Q00  =   0.064537

H          x = -0.227609  y =  1.406253  z =  2.911720 angstrom
           Maximum rank =  0   Radius =  0.325 angstrom
                   Q00  =   0.100965

H          x = -1.146609  y =  1.900253  z =  1.500720 angstrom
           Maximum rank =  0   Radius =  0.325 angstrom
                   Q00  =   0.101564

H          x =  2.702391  y =  2.418253  z =  1.529720 angstrom
           Maximum rank =  0   Radius =  0.325 angstrom
                   Q00  =   0.101008

H          x =  3.782391  y =  0.609253  z =  0.113720 angstrom
           Maximum rank =  0   Radius =  0.325 angstrom
                   Q00  =   0.212424

H          x =  2.899391  y = -1.615747  z = -1.473280 angstrom
           Maximum rank =  0   Radius =  0.325 angstrom
                   Q00  =   0.073982

H          x = -0.015619  y =  3.052778  z =  2.279280 angstrom
           Maximum rank =  0   Radius =  0.325 angstrom
                   Q00  =   0.109294

Total multipoles referred to origin at
           x =   0.000000,  y =    0.000000,  z =    0.000000 angstrom
                   Q00  =  -0.000000

Finished at 13:42:16 on 27 Apr 2020

  DMA results are available in the Python driver through the
	  variable('DMA DISTRIBUTED MULTIPOLES')
  and
	  variable('DMA TOTAL MULTIPOLES')
  commands.

    Psi4 stopped on: Monday, 27 April 2020 01:42PM
    Psi4 wall time for execution: 0:05:25.55

*** Psi4 exiting successfully. Buy a developer a beer!
