                               Psi4 1.3.2 release

  ==> Input File <==

--------------------------------------------------------------------------
import numpy as np
set {scf_type pk
basis cc-pvdz
d_convergence 10
gdma_switch   0
gdma_limit    0
gdma_origin   [ 0.0,  0.0,  0.0 ]
}
molecule test {
    units Angstrom
    0 1
    --
    0 1
    C               -0.117801547807874     2.112086889240520     0.478178227758285
    C                1.056198452192126     1.827086889240519    -0.451821772241715
    H               -0.487801547807874     3.128086889240519     0.322178227758285
    H               -0.927801547807874     1.417086889240519     0.261178227758285
    H                0.171198452192126     1.982086889240519     1.522178227758285
    H                1.517198452192126     0.888086889240519    -0.147821772241715
    H                1.802658452192126     2.630316889240520    -0.364545172241715
    H                0.718058452192126     1.722936889240519    -1.493366772241715
    C                0.113198452192126    -1.679913110759481     0.410178227758285
    C               -1.049801547807874    -2.264913110759481    -0.433821772241715
    H                0.409198452192126    -2.391913110759481     1.182178227758285
    H                0.952198452192126    -1.481913110759481    -0.240821772241715
    H               -0.144801547807874    -0.730913110759481     0.876178227758285
    H               -1.327801547807874    -1.495913110759481    -1.157821772241715
    H               -1.925921547807874    -2.433593110759480     0.209570927758285
    H               -0.777741547807874    -3.167053110759481    -1.001386972241715

}
e, wfn = energy('scf', return_wfn=True)
gdma(wfn)
dmavals = variable('DMA DISTRIBUTED MULTIPOLES')
charges = np.array(dmavals)
print(charges)
np.save('SSI-025VAL-069ILE-1-dimer.npy', np.array(charges))--------------------------------------------------------------------------

*** tstart() called on ds3
*** at Tue Apr 28 16:56:31 2020

   => Loading Basis Set <=

    Name: CC-PVDZ
    Role: ORBITAL
    Keyword: BASIS
    atoms 1-2, 9-10  entry C          line   138 file /theoryfs2/ds/metcalf/miniconda2/envs/tf2gpu/share/psi4/basis/cc-pvdz.gbs
    atoms 3-8, 11-16 entry H          line    22 file /theoryfs2/ds/metcalf/miniconda2/envs/tf2gpu/share/psi4/basis/cc-pvdz.gbs

         ---------------------------------------------------------
                                   SCF
               by Justin Turney, Rob Parrish, Andy Simmonett
                          and Daniel G. A. Smith
                              RHF Reference
                        1 Threads,    500 MiB Core
         ---------------------------------------------------------

  ==> Geometry <==

    Molecular point group: c1
    Full point group: C1

    Geometry (in Angstrom), charge = 0, multiplicity = 1:

       Center              X                  Y                   Z               Mass
    ------------   -----------------  -----------------  -----------------  -----------------
         C           -0.117801547808     2.112086889241     0.478178227758    12.000000000000
         C            1.056198452192     1.827086889241    -0.451821772242    12.000000000000
         H           -0.487801547808     3.128086889241     0.322178227758     1.007825032230
         H           -0.927801547808     1.417086889241     0.261178227758     1.007825032230
         H            0.171198452192     1.982086889241     1.522178227758     1.007825032230
         H            1.517198452192     0.888086889241    -0.147821772242     1.007825032230
         H            1.802658452192     2.630316889241    -0.364545172242     1.007825032230
         H            0.718058452192     1.722936889241    -1.493366772242     1.007825032230
         C            0.113198452192    -1.679913110759     0.410178227758    12.000000000000
         C           -1.049801547808    -2.264913110759    -0.433821772242    12.000000000000
         H            0.409198452192    -2.391913110759     1.182178227758     1.007825032230
         H            0.952198452192    -1.481913110759    -0.240821772242     1.007825032230
         H           -0.144801547808    -0.730913110759     0.876178227758     1.007825032230
         H           -1.327801547808    -1.495913110759    -1.157821772242     1.007825032230
         H           -1.925921547808    -2.433593110759     0.209570927758     1.007825032230
         H           -0.777741547808    -3.167053110759    -1.001386972242     1.007825032230

  Running in c1 symmetry.

  Rotational constants: A =      0.37809  B =      0.06100  C =      0.05918 [cm^-1]
  Rotational constants: A =  11334.91089  B =   1828.68932  C =   1774.06625 [MHz]
  Nuclear repulsion =  125.724365136024630

  Charge       = 0
  Multiplicity = 1
  Electrons    = 36
  Nalpha       = 18
  Nbeta        = 18

  ==> Algorithm <==

  SCF Algorithm Type is PK.
  DIIS enabled.
  MOM disabled.
  Fractional occupation disabled.
  Guess Type is SAD.
  Energy threshold   = 1.00e-06
  Density threshold  = 1.00e-10
  Integral threshold = 0.00e+00

  ==> Primary Basis <==

  Basis Set: CC-PVDZ
    Blend: CC-PVDZ
    Number of shells: 60
    Number of basis function: 116
    Number of Cartesian functions: 120
    Spherical Harmonics?: true
    Max angular momentum: 2

  ==> Pre-Iterations <==

   -------------------------------------------------------
    Irrep   Nso     Nmo     Nalpha   Nbeta   Ndocc  Nsocc
   -------------------------------------------------------
     A        116     116       0       0       0       0
   -------------------------------------------------------
    Total     116     116      18      18      18       0
   -------------------------------------------------------

  ==> Integral Setup <==

  Using integral reordering PK algorithm.
  Sizing the integral batches needed.
  Building batch lookup table.
   Calculation information:
      Number of atoms:                  16
      Number of AO shells:              60
      Number of primitives:            148
      Number of atomic orbitals:       120
      Number of basis functions:       116

      Integral cutoff                 1.00e-12
      Number of threads:                 1

	Batch   1 pq = [       0,    6786] index = [             0,23028291] size =     23028291
  Task number: 3
  Buffer size: 11059200
  Buffer per thread: 2
  We computed 1571801 shell quartets total.
  Whereas there are 1675365 unique shell quartets.

  ==> DiskJK: Disk-Based J/K Matrices <==

    J tasked:                  Yes
    K tasked:                  Yes
    wK tasked:                  No
    Memory [MiB]:              375
    Schwarz Cutoff:          1E-12

    OpenMP threads:              1

  Minimum eigenvalue in the overlap matrix is 7.5466664134E-03.
  Using Symmetric Orthogonalization.

  SCF Guess: Superposition of Atomic Densities via on-the-fly atomic UHF.

  ==> Iterations <==

                        Total Energy        Delta E     RMS |[F,P]|

   @RHF iter SAD:  -157.33969303481706   -1.57340e+02   0.00000e+00
   @RHF iter   1:  -158.30744487092355   -9.67752e-01   4.17526e-03 DIIS
   @RHF iter   2:  -158.43932352200804   -1.31879e-01   1.77129e-03 DIIS
   @RHF iter   3:  -158.46217738203154   -2.28539e-02   3.49064e-04 DIIS
   @RHF iter   4:  -158.46400488040140   -1.82750e-03   3.90715e-05 DIIS
   @RHF iter   5:  -158.46402888699134   -2.40066e-05   6.78548e-06 DIIS
   @RHF iter   6:  -158.46402954980016   -6.62809e-07   1.34231e-06 DIIS
   @RHF iter   7:  -158.46402956723276   -1.74326e-08   3.46289e-07 DIIS
   @RHF iter   8:  -158.46402956843912   -1.20636e-09   5.13025e-08 DIIS
   @RHF iter   9:  -158.46402956848132   -4.22062e-11   1.27176e-08 DIIS
   @RHF iter  10:  -158.46402956848431   -2.98428e-12   3.31192e-09 DIIS
   @RHF iter  11:  -158.46402956848453   -2.27374e-13   9.74803e-10 DIIS
   @RHF iter  12:  -158.46402956848391    6.25278e-13   2.35211e-10 DIIS
   @RHF iter  13:  -158.46402956848448   -5.68434e-13   3.77764e-11 DIIS
  Energy and wave function converged.

  ==> Post-Iterations <==

    Orbital Energies [Eh]
    ---------------------

    Doubly Occupied:

       1A    -11.222019     2A    -11.218723     3A    -11.217464
       4A    -11.217437     5A     -1.020535     6A     -1.012509
       7A     -0.841122     8A     -0.836804     9A     -0.606876
      10A     -0.598964    11A     -0.596262    12A     -0.586979
      13A     -0.503787    14A     -0.501063    15A     -0.492993
      16A     -0.486123    17A     -0.482152    18A     -0.479403

    Virtual:

      19A      0.168090    20A      0.204598    21A      0.225032
      22A      0.226735    23A      0.248112    24A      0.260715
      25A      0.265531    26A      0.279664    27A      0.281567
      28A      0.306779    29A      0.318976    30A      0.332280
      31A      0.386777    32A      0.403928    33A      0.568165
      34A      0.591170    35A      0.596919    36A      0.604759
      37A      0.622156    38A      0.629461    39A      0.670978
      40A      0.700720    41A      0.730318    42A      0.797825
      43A      0.832504    44A      0.852733    45A      0.876758
      46A      0.883047    47A      0.890123    48A      0.896986
      49A      0.898781    50A      0.909074    51A      0.920960
      52A      0.938976    53A      0.949455    54A      0.962732
      55A      0.987476    56A      1.016279    57A      1.119968
      58A      1.126488    59A      1.134572    60A      1.163072
      61A      1.240891    62A      1.261231    63A      1.451177
      64A      1.473719    65A      1.483529    66A      1.487143
      67A      1.528822    68A      1.610538    69A      1.682032
      70A      1.686131    71A      1.689915    72A      1.715674
      73A      1.853325    74A      1.864659    75A      1.873929
      76A      1.889553    77A      1.893771    78A      1.897241
      79A      1.924373    80A      1.936907    81A      1.943036
      82A      1.949428    83A      1.955544    84A      1.959709
      85A      1.963066    86A      1.983136    87A      1.990545
      88A      2.006370    89A      2.069205    90A      2.119247
      91A      2.137673    92A      2.141282    93A      2.289321
      94A      2.302544    95A      2.312936    96A      2.325303
      97A      2.440619    98A      2.450340    99A      2.455973
     100A      2.471417   101A      2.537640   102A      2.566896
     103A      2.583799   104A      2.595279   105A      2.755573
     106A      2.767509   107A      2.791742   108A      2.797956
     109A      2.842198   110A      2.851042   111A      2.864707
     112A      2.874115   113A      2.940756   114A      2.952100
     115A      2.962233   116A      2.985085

    Final Occupation by Irrep:
              A
    DOCC [    18 ]

  @RHF Final Energy:  -158.46402956848448

   => Energetics <=

    Nuclear Repulsion Energy =            125.7243651360246304
    One-Electron Energy =                -460.5343613744397544
    Two-Electron Energy =                 176.3459666699306467
    Total Energy =                       -158.4640295684844773

Computation Completed

Properties will be evaluated at   0.000000,   0.000000,   0.000000 [a0]

Properties computed using the SCF density matrix

  Nuclear Dipole Moment: [e a0]
     X:    -0.0200      Y:     0.0631      Z:    -0.0303

  Electronic Dipole Moment: [e a0]
     X:     0.0249      Y:    -0.0528      Z:     0.0290

  Dipole Moment: [e a0]
     X:     0.0048      Y:     0.0103      Z:    -0.0013     Total:     0.0114

  Dipole Moment: [D]
     X:     0.0123      Y:     0.0261      Z:    -0.0033     Total:     0.0290

*** tstop() called on ds3 at Tue Apr 28 16:56:41 2020
Module time:
	user time   =       8.20 seconds =       0.14 minutes
	system time =       2.77 seconds =       0.05 minutes
	total time  =         10 seconds =       0.17 minutes
Total time:
	user time   =       8.20 seconds =       0.14 minutes
	system time =       2.77 seconds =       0.05 minutes
	total time  =         10 seconds =       0.17 minutes
                                     G D M A

                                 by Anthony Stone

                           version 2.2.06, 22 June 2011

               Distributed Multipoles from Gaussian wavefunctions

Starting at 16:56:42 on 28 Apr 2020

Using SCF density matrix from file ./SSI/SSI-025VAL-069ILE-1-dimer.test.22979.fchk

                         Distributed Multipole Analysis

Standard DMA

Positions and radii in angstrom
Multipole moments in atomic units, ea_0^k for rank k

C          x = -0.117802  y =  2.112087  z =  0.478178 angstrom
           Maximum rank =  0   Radius =  0.650 angstrom
                   Q00  =  -0.230495

C          x =  1.056198  y =  1.827087  z = -0.451822 angstrom
           Maximum rank =  0   Radius =  0.650 angstrom
                   Q00  =  -0.243025

H          x = -0.487802  y =  3.128087  z =  0.322178 angstrom
           Maximum rank =  0   Radius =  0.325 angstrom
                   Q00  =   0.079408

H          x = -0.927802  y =  1.417087  z =  0.261178 angstrom
           Maximum rank =  0   Radius =  0.325 angstrom
                   Q00  =   0.076541

H          x =  0.171198  y =  1.982087  z =  1.522178 angstrom
           Maximum rank =  0   Radius =  0.325 angstrom
                   Q00  =   0.079734

H          x =  1.517198  y =  0.888087  z = -0.147822 angstrom
           Maximum rank =  0   Radius =  0.325 angstrom
                   Q00  =   0.081151

H          x =  1.802658  y =  2.630317  z = -0.364545 angstrom
           Maximum rank =  0   Radius =  0.325 angstrom
                   Q00  =   0.078155

H          x =  0.718058  y =  1.722937  z = -1.493367 angstrom
           Maximum rank =  0   Radius =  0.325 angstrom
                   Q00  =   0.078931

C          x =  0.113198  y = -1.679913  z =  0.410178 angstrom
           Maximum rank =  0   Radius =  0.650 angstrom
                   Q00  =  -0.238659

C          x = -1.049802  y = -2.264913  z = -0.433822 angstrom
           Maximum rank =  0   Radius =  0.650 angstrom
                   Q00  =  -0.252704

H          x =  0.409198  y = -2.391913  z =  1.182178 angstrom
           Maximum rank =  0   Radius =  0.325 angstrom
                   Q00  =   0.080047

H          x =  0.952198  y = -1.481913  z = -0.240822 angstrom
           Maximum rank =  0   Radius =  0.325 angstrom
                   Q00  =   0.080541

H          x = -0.144802  y = -0.730913  z =  0.876178 angstrom
           Maximum rank =  0   Radius =  0.325 angstrom
                   Q00  =   0.087563

H          x = -1.327802  y = -1.495913  z = -1.157822 angstrom
           Maximum rank =  0   Radius =  0.325 angstrom
                   Q00  =   0.074763

H          x = -1.925922  y = -2.433593  z =  0.209571 angstrom
           Maximum rank =  0   Radius =  0.325 angstrom
                   Q00  =   0.080596

H          x = -0.777742  y = -3.167053  z = -1.001387 angstrom
           Maximum rank =  0   Radius =  0.325 angstrom
                   Q00  =   0.087452

Total multipoles referred to origin at
           x =   0.000000,  y =    0.000000,  z =    0.000000 angstrom
                   Q00  =  -0.000000

Finished at 16:56:42 on 28 Apr 2020

  DMA results are available in the Python driver through the
	  variable('DMA DISTRIBUTED MULTIPOLES')
  and
	  variable('DMA TOTAL MULTIPOLES')
  commands.

    Psi4 stopped on: Tuesday, 28 April 2020 04:56PM
    Psi4 wall time for execution: 0:00:10.83

*** Psi4 exiting successfully. Buy a developer a beer!
