                               Psi4 1.3.2 release

  ==> Input File <==

--------------------------------------------------------------------------
import numpy as np
set {scf_type pk
basis cc-pvdz
d_convergence 10
gdma_switch   0
gdma_limit    0
gdma_origin   [ 0.0,  0.0,  0.0 ]
}
molecule test {
    units Angstrom
    0 1
    --
    0 1
    C               -1.127641402801902    -0.710049419110313    -1.476242323791725
    C               -2.032641402801902    -1.248049419110313    -2.526242323791725
    C                0.246358597198098    -0.649049419110313    -2.146242323791725
    H               -1.124641402801902    -1.348049419110313    -0.591242323791725
    H               -1.438641402801902     0.295950580889687    -1.194242323791725
    H               -1.910641402801902    -2.330049419110313    -2.609242323791725
    H               -3.075641402801902    -0.993049419110313    -2.334242323791725
    H                0.799358597198098     0.197950580889687    -1.733242323791725
    H               -1.654141402801902    -0.756291419110313    -3.434492323791725
    H                0.015698597198098    -0.472844419110313    -3.207252323791725
    H                0.824738597198098    -1.564640419110313    -1.953452323791725
    C                0.846358597198098     0.586950580889687     1.473757676208275
    C                1.933358597198098     0.259950580889687     2.523757676208275
    C                0.119358597198098     1.740950580889687     2.143757676208275
    H                0.193358597198098    -0.278049419110313     1.338757676208275
    H                1.276358597198098     0.892950580889687     0.521757676208275
    H                2.403358597198098    -0.700049419110313     2.318757676208275
    H                2.674358597198098     1.058950580889687     2.583757676208275
    H                0.635358597198098     2.682950580889687     1.947757676208275
    H                1.306558597198098     0.248554580889687     3.427637676208275
    H                0.172888597198098     1.497102580889687     3.215057676208275
    H               -0.921531402801902     1.798373580889687     1.792677676208275

}
e, wfn = energy('scf', return_wfn=True)
gdma(wfn)
dmavals = variable('DMA DISTRIBUTED MULTIPOLES')
charges = np.array(dmavals)
print(charges)
np.save('SSI-020PRO-177PRO-1-dimer.npy', np.array(charges))--------------------------------------------------------------------------

*** tstart() called on ds3
*** at Sun Apr 26 21:18:01 2020

   => Loading Basis Set <=

    Name: CC-PVDZ
    Role: ORBITAL
    Keyword: BASIS
    atoms 1-3, 12-14  entry C          line   138 file /theoryfs2/ds/metcalf/miniconda2/envs/tf2gpu/share/psi4/basis/cc-pvdz.gbs
    atoms 4-11, 15-22 entry H          line    22 file /theoryfs2/ds/metcalf/miniconda2/envs/tf2gpu/share/psi4/basis/cc-pvdz.gbs

         ---------------------------------------------------------
                                   SCF
               by Justin Turney, Rob Parrish, Andy Simmonett
                          and Daniel G. A. Smith
                              RHF Reference
                        1 Threads,    500 MiB Core
         ---------------------------------------------------------

  ==> Geometry <==

    Molecular point group: c1
    Full point group: C1

    Geometry (in Angstrom), charge = 0, multiplicity = 1:

       Center              X                  Y                   Z               Mass
    ------------   -----------------  -----------------  -----------------  -----------------
         C           -1.127641402802    -0.710049419110    -1.476242323792    12.000000000000
         C           -2.032641402802    -1.248049419110    -2.526242323792    12.000000000000
         C            0.246358597198    -0.649049419110    -2.146242323792    12.000000000000
         H           -1.124641402802    -1.348049419110    -0.591242323792     1.007825032230
         H           -1.438641402802     0.295950580890    -1.194242323792     1.007825032230
         H           -1.910641402802    -2.330049419110    -2.609242323792     1.007825032230
         H           -3.075641402802    -0.993049419110    -2.334242323792     1.007825032230
         H            0.799358597198     0.197950580890    -1.733242323792     1.007825032230
         H           -1.654141402802    -0.756291419110    -3.434492323792     1.007825032230
         H            0.015698597198    -0.472844419110    -3.207252323792     1.007825032230
         H            0.824738597198    -1.564640419110    -1.953452323792     1.007825032230
         C            0.846358597198     0.586950580890     1.473757676208    12.000000000000
         C            1.933358597198     0.259950580890     2.523757676208    12.000000000000
         C            0.119358597198     1.740950580890     2.143757676208    12.000000000000
         H            0.193358597198    -0.278049419110     1.338757676208     1.007825032230
         H            1.276358597198     0.892950580890     0.521757676208     1.007825032230
         H            2.403358597198    -0.700049419110     2.318757676208     1.007825032230
         H            2.674358597198     1.058950580890     2.583757676208     1.007825032230
         H            0.635358597198     2.682950580890     1.947757676208     1.007825032230
         H            1.306558597198     0.248554580890     3.427637676208     1.007825032230
         H            0.172888597198     1.497102580890     3.215057676208     1.007825032230
         H           -0.921531402802     1.798373580890     1.792677676208     1.007825032230

  Running in c1 symmetry.

  Rotational constants: A =      0.18563  B =      0.02853  C =      0.02656 [cm^-1]
  Rotational constants: A =   5564.91629  B =    855.19174  C =    796.35663 [MHz]
  Nuclear repulsion =  240.935302518176343

  Charge       = 0
  Multiplicity = 1
  Electrons    = 52
  Nalpha       = 26
  Nbeta        = 26

  ==> Algorithm <==

  SCF Algorithm Type is PK.
  DIIS enabled.
  MOM disabled.
  Fractional occupation disabled.
  Guess Type is SAD.
  Energy threshold   = 1.00e-06
  Density threshold  = 1.00e-10
  Integral threshold = 0.00e+00

  ==> Primary Basis <==

  Basis Set: CC-PVDZ
    Blend: CC-PVDZ
    Number of shells: 84
    Number of basis function: 164
    Number of Cartesian functions: 170
    Spherical Harmonics?: true
    Max angular momentum: 2

  ==> Pre-Iterations <==

   -------------------------------------------------------
    Irrep   Nso     Nmo     Nalpha   Nbeta   Ndocc  Nsocc
   -------------------------------------------------------
     A        164     164       0       0       0       0
   -------------------------------------------------------
    Total     164     164      26      26      26       0
   -------------------------------------------------------

  ==> Integral Setup <==

  Using integral reordering PK algorithm.
  Sizing the integral batches needed.
  Building batch lookup table.
   Calculation information:
      Number of atoms:                  22
      Number of AO shells:              84
      Number of primitives:            212
      Number of atomic orbitals:       170
      Number of basis functions:       164

      Integral cutoff                 1.00e-12
      Number of threads:                 1

	Batch   1 pq = [       0,    9405] index = [             0,44231715] size =     44231715
	Batch   2 pq = [    9405,   13530] index = [      44231715,91537215] size =     47305500
  Task number: 9
  Buffer size: 11059200
  Buffer per thread: 2
  We computed 5343946 shell quartets total.
  Whereas there are 6374235 unique shell quartets.

  ==> DiskJK: Disk-Based J/K Matrices <==

    J tasked:                  Yes
    K tasked:                  Yes
    wK tasked:                  No
    Memory [MiB]:              375
    Schwarz Cutoff:          1E-12

    OpenMP threads:              1

  Minimum eigenvalue in the overlap matrix is 4.5099319597E-03.
  Using Symmetric Orthogonalization.

  SCF Guess: Superposition of Atomic Densities via on-the-fly atomic UHF.

  ==> Iterations <==

                        Total Energy        Delta E     RMS |[F,P]|

   @RHF iter SAD:  -235.63766349101775   -2.35638e+02   0.00000e+00
   @RHF iter   1:  -236.27355525388856   -6.35892e-01   3.57586e-03 DIIS
   @RHF iter   2:  -236.46387273531343   -1.90317e-01   1.58862e-03 DIIS
   @RHF iter   3:  -236.50004227690209   -3.61695e-02   3.10654e-04 DIIS
   @RHF iter   4:  -236.50265573597923   -2.61346e-03   4.76286e-05 DIIS
   @RHF iter   5:  -236.50270558262972   -4.98467e-05   1.36084e-05 DIIS
   @RHF iter   6:  -236.50270971928177   -4.13665e-06   2.54653e-06 DIIS
   @RHF iter   7:  -236.50270987471453   -1.55433e-07   4.77897e-07 DIIS
   @RHF iter   8:  -236.50270988185511   -7.14059e-09   9.27976e-08 DIIS
   @RHF iter   9:  -236.50270988215192   -2.96808e-10   2.90346e-08 DIIS
   @RHF iter  10:  -236.50270988217667   -2.47553e-11   8.01390e-09 DIIS
   @RHF iter  11:  -236.50270988217864   -1.96110e-12   1.53449e-09 DIIS
   @RHF iter  12:  -236.50270988217892   -2.84217e-13   3.84056e-10 DIIS
   @RHF iter  13:  -236.50270988217886    5.68434e-14   1.07404e-10 DIIS
   @RHF iter  14:  -236.50270988217940   -5.40012e-13   2.50797e-11 DIIS
  Energy and wave function converged.

  ==> Post-Iterations <==

    Orbital Energies [Eh]
    ---------------------

    Doubly Occupied:

       1A    -11.217500     2A    -11.215452     3A    -11.214453
       4A    -11.214103     5A    -11.213511     6A    -11.210969
       7A     -1.070103     8A     -1.063646     9A     -0.915191
      10A     -0.909992    11A     -0.800744    12A     -0.795546
      13A     -0.639608    14A     -0.638239    15A     -0.613487
      16A     -0.608492    17A     -0.541465    18A     -0.540372
      19A     -0.516049    20A     -0.508127    21A     -0.486271
      22A     -0.481147    23A     -0.473918    24A     -0.465816
      25A     -0.459042    26A     -0.452770

    Virtual:

      27A      0.172433    28A      0.194879    29A      0.207821
      30A      0.211725    31A      0.223391    32A      0.238442
      33A      0.244491    34A      0.253239    35A      0.266416
      36A      0.282137    37A      0.285577    38A      0.303981
      39A      0.324395    40A      0.328464    41A      0.345205
      42A      0.357603    43A      0.382408    44A      0.388023
      45A      0.412378    46A      0.439965    47A      0.558284
      48A      0.573184    49A      0.586735    50A      0.592042
      51A      0.610943    52A      0.629902    53A      0.637149
      54A      0.651894    55A      0.676914    56A      0.736865
      57A      0.778920    58A      0.792580    59A      0.804068
      60A      0.826940    61A      0.838742    62A      0.853861
      63A      0.860183    64A      0.876231    65A      0.886426
      66A      0.892682    67A      0.894696    68A      0.905462
      69A      0.906874    70A      0.908884    71A      0.912715
      72A      0.917548    73A      0.928995    74A      0.935125
      75A      0.956404    76A      0.962967    77A      0.971776
      78A      0.981379    79A      1.002212    80A      1.009196
      81A      1.088603    82A      1.113796    83A      1.131776
      84A      1.139933    85A      1.186307    86A      1.230349
      87A      1.370841    88A      1.419520    89A      1.456387
      90A      1.466715    91A      1.472611    92A      1.491567
      93A      1.597132    94A      1.616822    95A      1.623165
      96A      1.625977    97A      1.631279    98A      1.650443
      99A      1.727604   100A      1.733814   101A      1.744733
     102A      1.750210   103A      1.796857   104A      1.832194
     105A      1.848257   106A      1.854035   107A      1.864489
     108A      1.886997   109A      1.895468   110A      1.899129
     111A      1.911778   112A      1.921429   113A      1.933237
     114A      1.941887   115A      1.953621   116A      1.974652
     117A      1.984279   118A      1.997284   119A      2.010100
     120A      2.019733   121A      2.023555   122A      2.029857
     123A      2.053417   124A      2.095490   125A      2.108272
     126A      2.128185   127A      2.142497   128A      2.149956
     129A      2.168049   130A      2.196431   131A      2.231577
     132A      2.247743   133A      2.307867   134A      2.316350
     135A      2.328173   136A      2.370665   137A      2.418897
     138A      2.433866   139A      2.458876   140A      2.472407
     141A      2.514763   142A      2.519201   143A      2.541527
     144A      2.549576   145A      2.632463   146A      2.638472
     147A      2.681913   148A      2.692985   149A      2.756882
     150A      2.760985   151A      2.776294   152A      2.781017
     153A      2.790950   154A      2.794102   155A      2.828559
     156A      2.843962   157A      2.870974   158A      2.879927
     159A      2.925015   160A      2.930424   161A      2.942905
     162A      2.955597   163A      3.051924   164A      3.075575

    Final Occupation by Irrep:
              A
    DOCC [    26 ]

  @RHF Final Energy:  -236.50270988217940

   => Energetics <=

    Nuclear Repulsion Energy =            240.9353025181763428
    One-Electron Energy =                -794.3440003834748495
    Two-Electron Energy =                 316.9059879831191893
    Total Energy =                       -236.5027098821793743

Computation Completed

Properties will be evaluated at   0.000000,   0.000000,   0.000000 [a0]

Properties computed using the SCF density matrix

  Nuclear Dipole Moment: [e a0]
     X:     0.1657      Y:     0.2154      Z:     0.0832

  Electronic Dipole Moment: [e a0]
     X:    -0.1717      Y:    -0.2148      Z:    -0.0786

  Dipole Moment: [e a0]
     X:    -0.0060      Y:     0.0006      Z:     0.0046     Total:     0.0076

  Dipole Moment: [D]
     X:    -0.0152      Y:     0.0015      Z:     0.0117     Total:     0.0193

*** tstop() called on ds3 at Sun Apr 26 21:19:53 2020
Module time:
	user time   =      26.95 seconds =       0.45 minutes
	system time =      10.54 seconds =       0.18 minutes
	total time  =        112 seconds =       1.87 minutes
Total time:
	user time   =      26.95 seconds =       0.45 minutes
	system time =      10.54 seconds =       0.18 minutes
	total time  =        112 seconds =       1.87 minutes
                                     G D M A

                                 by Anthony Stone

                           version 2.2.06, 22 June 2011

               Distributed Multipoles from Gaussian wavefunctions

Starting at 21:19:53 on 26 Apr 2020

Using SCF density matrix from file ./SSI/SSI-020PRO-177PRO-1-dimer.test.11302.fchk

                         Distributed Multipole Analysis

Standard DMA

Positions and radii in angstrom
Multipole moments in atomic units, ea_0^k for rank k

C          x = -1.127641  y = -0.710049  z = -1.476242 angstrom
           Maximum rank =  0   Radius =  0.650 angstrom
                   Q00  =  -0.087271

C          x = -2.032641  y = -1.248049  z = -2.526242 angstrom
           Maximum rank =  0   Radius =  0.650 angstrom
                   Q00  =  -0.200565

C          x =  0.246359  y = -0.649049  z = -2.146242 angstrom
           Maximum rank =  0   Radius =  0.650 angstrom
                   Q00  =  -0.213554

H          x = -1.124641  y = -1.348049  z = -0.591242 angstrom
           Maximum rank =  0   Radius =  0.325 angstrom
                   Q00  =   0.051210

H          x = -1.438641  y =  0.295951  z = -1.194242 angstrom
           Maximum rank =  0   Radius =  0.325 angstrom
                   Q00  =   0.052047

H          x = -1.910641  y = -2.330049  z = -2.609242 angstrom
           Maximum rank =  0   Radius =  0.325 angstrom
                   Q00  =   0.075190

H          x = -3.075641  y = -0.993049  z = -2.334242 angstrom
           Maximum rank =  0   Radius =  0.325 angstrom
                   Q00  =   0.078992

H          x =  0.799359  y =  0.197951  z = -1.733242 angstrom
           Maximum rank =  0   Radius =  0.325 angstrom
                   Q00  =   0.086860

H          x = -1.654141  y = -0.756291  z = -3.434492 angstrom
           Maximum rank =  0   Radius =  0.325 angstrom
                   Q00  =   0.045821

H          x =  0.015699  y = -0.472844  z = -3.207252 angstrom
           Maximum rank =  0   Radius =  0.325 angstrom
                   Q00  =   0.041824

H          x =  0.824739  y = -1.564640  z = -1.953452 angstrom
           Maximum rank =  0   Radius =  0.325 angstrom
                   Q00  =   0.070298

C          x =  0.846359  y =  0.586951  z =  1.473758 angstrom
           Maximum rank =  0   Radius =  0.650 angstrom
                   Q00  =  -0.051873

C          x =  1.933359  y =  0.259951  z =  2.523758 angstrom
           Maximum rank =  0   Radius =  0.650 angstrom
                   Q00  =  -0.264729

C          x =  0.119359  y =  1.740951  z =  2.143758 angstrom
           Maximum rank =  0   Radius =  0.650 angstrom
                   Q00  =  -0.231080

H          x =  0.193359  y = -0.278049  z =  1.338758 angstrom
           Maximum rank =  0   Radius =  0.325 angstrom
                   Q00  =   0.057348

H          x =  1.276359  y =  0.892951  z =  0.521758 angstrom
           Maximum rank =  0   Radius =  0.325 angstrom
                   Q00  =   0.057789

H          x =  2.403359  y = -0.700049  z =  2.318758 angstrom
           Maximum rank =  0   Radius =  0.325 angstrom
                   Q00  =   0.082824

H          x =  2.674359  y =  1.058951  z =  2.583758 angstrom
           Maximum rank =  0   Radius =  0.325 angstrom
                   Q00  =   0.081417

H          x =  0.635359  y =  2.682951  z =  1.947758 angstrom
           Maximum rank =  0   Radius =  0.325 angstrom
                   Q00  =   0.081434

H          x =  1.306559  y =  0.248555  z =  3.427638 angstrom
           Maximum rank =  0   Radius =  0.325 angstrom
                   Q00  =   0.049269

H          x =  0.172889  y =  1.497103  z =  3.215058 angstrom
           Maximum rank =  0   Radius =  0.325 angstrom
                   Q00  =   0.058858

H          x = -0.921531  y =  1.798374  z =  1.792678 angstrom
           Maximum rank =  0   Radius =  0.325 angstrom
                   Q00  =   0.077888

Total multipoles referred to origin at
           x =   0.000000,  y =    0.000000,  z =    0.000000 angstrom
                   Q00  =  -0.000000

Finished at 21:19:53 on 26 Apr 2020

  DMA results are available in the Python driver through the
	  variable('DMA DISTRIBUTED MULTIPOLES')
  and
	  variable('DMA TOTAL MULTIPOLES')
  commands.

    Psi4 stopped on: Sunday, 26 April 2020 09:19PM
    Psi4 wall time for execution: 0:01:52.37

*** Psi4 exiting successfully. Buy a developer a beer!
