                               Psi4 1.3.2 release

  ==> Input File <==

--------------------------------------------------------------------------
import numpy as np
set {scf_type pk
basis cc-pvdz
d_convergence 10
gdma_switch   0
gdma_limit    0
gdma_origin   [ 0.0,  0.0,  0.0 ]
}
molecule test {
    units Angstrom
    0 1
    --
    0 1
    C                0.171469245097102     3.119928715330390    -0.271156334350452
    C               -1.270530754902898     1.093928715330389     0.163843665649548
    C               -0.780530754902898     2.041928715330390    -0.737156334350452
    C               -2.175530754902898     0.116928715330390    -0.247156334350452
    C               -1.243530754902898     2.013928715330390    -2.057156334350451
    C               -2.630530754902898     0.084928715330390    -1.569156334350452
    C               -2.169530754902897     1.044928715330389    -2.478156334350452
    O               -3.534530754902898    -0.872071284669610    -1.963156334350452
    H               -0.962530754902898     1.118928715330390     1.200843665649548
    H               -2.554530754902898    -0.598071284669610     0.463843665649548
    H                0.400469245097102     2.988928715330390     0.787843665649548
    H               -0.368530754902898     4.062928715330390    -0.356156334350452
    H               -0.901530754902898     2.754928715330390    -2.769156334350451
    H               -2.513530754902898     1.035928715330390    -3.502156334350452
    H               -3.791530754902897    -0.763071284669610    -2.898156334350452
    H                1.108429245097102     3.206148715330390    -0.840946334350452
    C                1.844469245097102    -3.517071284669611     1.086843665649548
    C                1.457469245097102    -0.962071284669611     0.929843665649548
    C                2.123469245097102    -2.064071284669610     1.360843665649548
    C                3.116469245097103    -0.295071284669610     2.207843665649548
    N                2.095469245097102     0.131928715330390     1.473843665649548
    N                3.152469245097103    -1.618071284669611     2.162843665649548
    H                0.570469245097102    -0.964071284669611     0.307843665649548
    H                1.719469245097102     1.069928715330389     1.532843665649548
    H                0.897469245097102    -3.569071284669610     0.553843665649548
    H                1.735469245097102    -4.046071284669611     2.030843665649548
    H                3.764469245097102     0.318928715330389     2.817843665649549
    H                2.611819245097102    -4.015961284669610     0.476693665649548

}
e, wfn = energy('scf', return_wfn=True)
gdma(wfn)
dmavals = variable('DMA DISTRIBUTED MULTIPOLES')
charges = np.array(dmavals)
print(charges)
np.save('SSI-033TYR-062HIE-1-dimer.npy', np.array(charges))--------------------------------------------------------------------------

*** tstart() called on ds3
*** at Mon Apr 27 23:10:20 2020

   => Loading Basis Set <=

    Name: CC-PVDZ
    Role: ORBITAL
    Keyword: BASIS
    atoms 1-7, 17-20  entry C          line   138 file /theoryfs2/ds/metcalf/miniconda2/envs/tf2gpu/share/psi4/basis/cc-pvdz.gbs
    atoms 8           entry O          line   198 file /theoryfs2/ds/metcalf/miniconda2/envs/tf2gpu/share/psi4/basis/cc-pvdz.gbs
    atoms 9-16, 23-28 entry H          line    22 file /theoryfs2/ds/metcalf/miniconda2/envs/tf2gpu/share/psi4/basis/cc-pvdz.gbs
    atoms 21-22       entry N          line   168 file /theoryfs2/ds/metcalf/miniconda2/envs/tf2gpu/share/psi4/basis/cc-pvdz.gbs

         ---------------------------------------------------------
                                   SCF
               by Justin Turney, Rob Parrish, Andy Simmonett
                          and Daniel G. A. Smith
                              RHF Reference
                        1 Threads,    500 MiB Core
         ---------------------------------------------------------

  ==> Geometry <==

    Molecular point group: c1
    Full point group: C1

    Geometry (in Angstrom), charge = 0, multiplicity = 1:

       Center              X                  Y                   Z               Mass
    ------------   -----------------  -----------------  -----------------  -----------------
         C            0.171469245097     3.119928715330    -0.271156334350    12.000000000000
         C           -1.270530754903     1.093928715330     0.163843665650    12.000000000000
         C           -0.780530754903     2.041928715330    -0.737156334350    12.000000000000
         C           -2.175530754903     0.116928715330    -0.247156334350    12.000000000000
         C           -1.243530754903     2.013928715330    -2.057156334350    12.000000000000
         C           -2.630530754903     0.084928715330    -1.569156334350    12.000000000000
         C           -2.169530754903     1.044928715330    -2.478156334350    12.000000000000
         O           -3.534530754903    -0.872071284670    -1.963156334350    15.994914619570
         H           -0.962530754903     1.118928715330     1.200843665650     1.007825032230
         H           -2.554530754903    -0.598071284670     0.463843665650     1.007825032230
         H            0.400469245097     2.988928715330     0.787843665650     1.007825032230
         H           -0.368530754903     4.062928715330    -0.356156334350     1.007825032230
         H           -0.901530754903     2.754928715330    -2.769156334350     1.007825032230
         H           -2.513530754903     1.035928715330    -3.502156334350     1.007825032230
         H           -3.791530754903    -0.763071284670    -2.898156334350     1.007825032230
         H            1.108429245097     3.206148715330    -0.840946334350     1.007825032230
         C            1.844469245097    -3.517071284670     1.086843665650    12.000000000000
         C            1.457469245097    -0.962071284670     0.929843665650    12.000000000000
         C            2.123469245097    -2.064071284670     1.360843665650    12.000000000000
         C            3.116469245097    -0.295071284670     2.207843665650    12.000000000000
         N            2.095469245097     0.131928715330     1.473843665650    14.003074004430
         N            3.152469245097    -1.618071284670     2.162843665650    14.003074004430
         H            0.570469245097    -0.964071284670     0.307843665650     1.007825032230
         H            1.719469245097     1.069928715330     1.532843665650     1.007825032230
         H            0.897469245097    -3.569071284670     0.553843665650     1.007825032230
         H            1.735469245097    -4.046071284670     2.030843665650     1.007825032230
         H            3.764469245097     0.318928715330     2.817843665650     1.007825032230
         H            2.611819245097    -4.015961284670     0.476693665650     1.007825032230

  Running in c1 symmetry.

  Rotational constants: A =      0.03341  B =      0.01079  C =      0.00863 [cm^-1]
  Rotational constants: A =   1001.64158  B =    323.61174  C =    258.85796 [MHz]
  Nuclear repulsion =  807.308113923281212

  Charge       = 0
  Multiplicity = 1
  Electrons    = 102
  Nalpha       = 51
  Nbeta        = 51

  ==> Algorithm <==

  SCF Algorithm Type is PK.
  DIIS enabled.
  MOM disabled.
  Fractional occupation disabled.
  Guess Type is SAD.
  Energy threshold   = 1.00e-06
  Density threshold  = 1.00e-10
  Integral threshold = 0.00e+00

  ==> Primary Basis <==

  Basis Set: CC-PVDZ
    Blend: CC-PVDZ
    Number of shells: 126
    Number of basis function: 266
    Number of Cartesian functions: 280
    Spherical Harmonics?: true
    Max angular momentum: 2

  ==> Pre-Iterations <==

   -------------------------------------------------------
    Irrep   Nso     Nmo     Nalpha   Nbeta   Ndocc  Nsocc
   -------------------------------------------------------
     A        266     266       0       0       0       0
   -------------------------------------------------------
    Total     266     266      51      51      51       0
   -------------------------------------------------------

  ==> Integral Setup <==

  Using integral reordering PK algorithm.
  Sizing the integral batches needed.
  Building batch lookup table.
   Calculation information:
      Number of atoms:                  28
      Number of AO shells:             126
      Number of primitives:            378
      Number of atomic orbitals:       280
      Number of basis functions:       266

      Integral cutoff                 1.00e-12
      Number of threads:                 1

	Batch   1 pq = [       0,    9405] index = [             0,44231715] size =     44231715
	Batch   2 pq = [    9405,   13301] index = [      44231715,88464951] size =     44233236
	Batch   3 pq = [   13301,   16290] index = [      88464951,132690195] size =     44225244
	Batch   4 pq = [   16290,   18810] index = [     132690195,176917455] size =     44227260
	Batch   5 pq = [   18810,   21030] index = [     176917455,221140965] size =     44223510
	Batch   6 pq = [   21030,   23037] index = [     221140965,265363203] size =     44222238
	Batch   7 pq = [   23037,   24883] index = [     265363203,309594286] size =     44231083
	Batch   8 pq = [   24883,   26601] index = [     309594286,353819901] size =     44225615
	Batch   9 pq = [   26601,   28214] index = [     353819901,398029005] size =     44209104
	Batch  10 pq = [   28214,   29740] index = [     398029005,442248670] size =     44219665
	Batch  11 pq = [   29740,   31191] index = [     442248670,486454836] size =     44206166
	Batch  12 pq = [   31191,   32578] index = [     486454836,530679331] size =     44224495
	Batch  13 pq = [   32578,   33908] index = [     530679331,574893186] size =     44213855
	Batch  14 pq = [   33908,   35188] index = [     574893186,619115266] size =     44222080
	Batch  15 pq = [   35188,   35511] index = [     619115266,630533316] size =     11418050
  Task number: 58
  Buffer size: 11059200
  Buffer per thread: 2
  We computed 28816196 shell quartets total.
  Whereas there are 32012001 unique shell quartets.

  ==> DiskJK: Disk-Based J/K Matrices <==

    J tasked:                  Yes
    K tasked:                  Yes
    wK tasked:                  No
    Memory [MiB]:              375
    Schwarz Cutoff:          1E-12

    OpenMP threads:              1

  Minimum eigenvalue in the overlap matrix is 3.3491395938E-04.
  Using Symmetric Orthogonalization.

  SCF Guess: Superposition of Atomic Densities via on-the-fly atomic UHF.

  ==> Iterations <==

                        Total Energy        Delta E     RMS |[F,P]|

   @RHF iter SAD:  -607.46020666933782   -6.07460e+02   0.00000e+00
   @RHF iter   1:  -608.18081308577007   -7.20606e-01   2.61150e-03 DIIS
   @RHF iter   2:  -608.43516856059523   -2.54355e-01   1.24889e-03 DIIS
   @RHF iter   3:  -608.48599067121893   -5.08221e-02   3.28379e-04 DIIS
   @RHF iter   4:  -608.49075252027035   -4.76185e-03   1.36062e-04 DIIS
   @RHF iter   5:  -608.49149033154958   -7.37811e-04   2.18523e-05 DIIS
   @RHF iter   6:  -608.49152318298445   -3.28514e-05   1.04538e-05 DIIS
   @RHF iter   7:  -608.49152989150366   -6.70852e-06   3.60795e-06 DIIS
   @RHF iter   8:  -608.49153124736119   -1.35586e-06   1.51636e-06 DIIS
   @RHF iter   9:  -608.49153150166262   -2.54301e-07   6.25446e-07 DIIS
   @RHF iter  10:  -608.49153154948101   -4.78184e-08   2.23800e-07 DIIS
   @RHF iter  11:  -608.49153155627380   -6.79279e-09   7.85784e-08 DIIS
   @RHF iter  12:  -608.49153155715317   -8.79368e-10   3.62094e-08 DIIS
   @RHF iter  13:  -608.49153155728584   -1.32673e-10   1.27276e-08 DIIS
   @RHF iter  14:  -608.49153155730528   -1.94404e-11   5.52588e-09 DIIS
   @RHF iter  15:  -608.49153155731244   -7.16227e-12   2.42285e-09 DIIS
   @RHF iter  16:  -608.49153155731017    2.27374e-12   1.06556e-09 DIIS
   @RHF iter  17:  -608.49153155731392   -3.75167e-12   4.50714e-10 DIIS
   @RHF iter  18:  -608.49153155731096    2.95586e-12   1.53763e-10 DIIS
   @RHF iter  19:  -608.49153155731483   -3.86535e-12   7.81870e-11 DIIS
  Energy and wave function converged.

  ==> Post-Iterations <==

    Orbital Energies [Eh]
    ---------------------

    Doubly Occupied:

       1A    -20.592074     2A    -15.613693     3A    -15.521828
       4A    -11.311529     5A    -11.286119     6A    -11.251568
       7A    -11.250087     8A    -11.247314     9A    -11.246225
      10A    -11.243727    11A    -11.242264    12A    -11.240842
      13A    -11.235027    14A    -11.219344    15A     -1.399854
      16A     -1.336413    17A     -1.158426    18A     -1.147868
      19A     -1.047210    20A     -1.026494    21A     -1.024623
      22A     -0.938153    23A     -0.934758    24A     -0.852406
      25A     -0.811339    26A     -0.810763    27A     -0.756031
      28A     -0.737767    29A     -0.734840    30A     -0.674958
      31A     -0.651573    32A     -0.618524    33A     -0.606786
      34A     -0.597700    35A     -0.595747    36A     -0.592972
      37A     -0.586165    38A     -0.580097    39A     -0.576310
      40A     -0.548662    41A     -0.540068    42A     -0.534312
      43A     -0.516096    44A     -0.510501    45A     -0.494624
      46A     -0.475274    47A     -0.404036    48A     -0.373229
      49A     -0.347115    50A     -0.311721    51A     -0.304213

    Virtual:

      52A      0.116494    53A      0.144041    54A      0.154856
      55A      0.172397    56A      0.191382    57A      0.199940
      58A      0.201901    59A      0.211293    60A      0.221411
      61A      0.234988    62A      0.238143    63A      0.256669
      64A      0.260163    65A      0.264130    66A      0.279838
      67A      0.293871    68A      0.302818    69A      0.311827
      70A      0.355980    71A      0.360212    72A      0.389415
      73A      0.403462    74A      0.413083    75A      0.420507
      76A      0.442931    77A      0.470055    78A      0.479627
      79A      0.484287    80A      0.492860    81A      0.504863
      82A      0.601306    83A      0.610968    84A      0.619976
      85A      0.637034    86A      0.639469    87A      0.647048
      88A      0.650845    89A      0.681742    90A      0.688399
      91A      0.695533    92A      0.700137    93A      0.707691
      94A      0.715244    95A      0.719877    96A      0.728782
      97A      0.748305    98A      0.750556    99A      0.758226
     100A      0.767683   101A      0.774965   102A      0.784993
     103A      0.794019   104A      0.807878   105A      0.827051
     106A      0.832068   107A      0.836081   108A      0.846639
     109A      0.857993   110A      0.867483   111A      0.876097
     112A      0.885015   113A      0.886623   114A      0.887619
     115A      0.896423   116A      0.904395   117A      0.912068
     118A      0.926691   119A      0.934972   120A      0.946442
     121A      0.950722   122A      0.968876   123A      0.976896
     124A      0.999060   125A      1.011016   126A      1.032367
     127A      1.041924   128A      1.067778   129A      1.077662
     130A      1.098959   131A      1.104675   132A      1.121931
     133A      1.127047   134A      1.134459   135A      1.143571
     136A      1.159977   137A      1.164206   138A      1.177600
     139A      1.194111   140A      1.224230   141A      1.235189
     142A      1.255521   143A      1.259888   144A      1.273856
     145A      1.275792   146A      1.296141   147A      1.304448
     148A      1.314698   149A      1.330080   150A      1.335301
     151A      1.349198   152A      1.366510   153A      1.370256
     154A      1.394919   155A      1.440964   156A      1.457650
     157A      1.483293   158A      1.493827   159A      1.499083
     160A      1.502930   161A      1.532727   162A      1.559061
     163A      1.583171   164A      1.593044   165A      1.609688
     166A      1.623421   167A      1.650731   168A      1.673224
     169A      1.690012   170A      1.695026   171A      1.697661
     172A      1.722656   173A      1.736816   174A      1.763697
     175A      1.785390   176A      1.795214   177A      1.803591
     178A      1.816707   179A      1.832817   180A      1.854230
     181A      1.870313   182A      1.873481   183A      1.892261
     184A      1.897992   185A      1.908066   186A      1.911280
     187A      1.925659   188A      1.927414   189A      1.933600
     190A      1.945013   191A      1.957501   192A      1.961282
     193A      1.973887   194A      1.981280   195A      1.984374
     196A      2.002982   197A      2.018457   198A      2.026768
     199A      2.036629   200A      2.053092   201A      2.064358
     202A      2.067753   203A      2.094602   204A      2.109248
     205A      2.121530   206A      2.125986   207A      2.138743
     208A      2.168590   209A      2.180552   210A      2.185391
     211A      2.198502   212A      2.213706   213A      2.228026
     214A      2.246681   215A      2.258064   216A      2.293208
     217A      2.321443   218A      2.347052   219A      2.358282
     220A      2.368151   221A      2.376036   222A      2.396492
     223A      2.426799   224A      2.460703   225A      2.469295
     226A      2.474988   227A      2.477804   228A      2.493054
     229A      2.515536   230A      2.522816   231A      2.561818
     232A      2.600682   233A      2.611069   234A      2.622275
     235A      2.691648   236A      2.713902   237A      2.737963
     238A      2.756488   239A      2.762741   240A      2.774194
     241A      2.780265   242A      2.792843   243A      2.801289
     244A      2.837623   245A      2.845788   246A      2.882153
     247A      2.907436   248A      2.911584   249A      2.932930
     250A      2.949926   251A      2.990114   252A      2.997349
     253A      3.060404   254A      3.076719   255A      3.116715
     256A      3.184342   257A      3.232576   258A      3.248370
     259A      3.262519   260A      3.326429   261A      3.479756
     262A      3.552280   263A      3.644826   264A      3.782295
     265A      3.938485   266A      4.160531

    Final Occupation by Irrep:
              A
    DOCC [    51 ]

  @RHF Final Energy:  -608.49153155731483

   => Energetics <=

    Nuclear Repulsion Energy =            807.3081139232812120
    One-Electron Energy =               -2428.2807569421197513
    Two-Electron Energy =                1012.4811114615235965
    Total Energy =                       -608.4915315573148291

Computation Completed

Properties will be evaluated at   0.000000,   0.000000,   0.000000 [a0]

Properties computed using the SCF density matrix

  Nuclear Dipole Moment: [e a0]
     X:     1.5764      Y:     2.4379      Z:    -0.2020

  Electronic Dipole Moment: [e a0]
     X:    -2.3902      Y:    -0.9378      Z:    -0.6747

  Dipole Moment: [e a0]
     X:    -0.8139      Y:     1.5001      Z:    -0.8766     Total:     1.9187

  Dipole Moment: [D]
     X:    -2.0687      Y:     3.8129      Z:    -2.2282     Total:     4.8767

*** tstop() called on ds3 at Mon Apr 27 23:16:37 2020
Module time:
	user time   =     271.90 seconds =       4.53 minutes
	system time =     111.26 seconds =       1.85 minutes
	total time  =        377 seconds =       6.28 minutes
Total time:
	user time   =     271.90 seconds =       4.53 minutes
	system time =     111.26 seconds =       1.85 minutes
	total time  =        377 seconds =       6.28 minutes
                                     G D M A

                                 by Anthony Stone

                           version 2.2.06, 22 June 2011

               Distributed Multipoles from Gaussian wavefunctions

Starting at 23:16:37 on 27 Apr 2020

Using SCF density matrix from file ./SSI/SSI-033TYR-062HIE-1-dimer.test.1413.fchk

                         Distributed Multipole Analysis

Standard DMA

Positions and radii in angstrom
Multipole moments in atomic units, ea_0^k for rank k

C          x =  0.171469  y =  3.119929  z = -0.271156 angstrom
           Maximum rank =  0   Radius =  0.650 angstrom
                   Q00  =  -0.205801

C          x = -1.270531  y =  1.093929  z =  0.163844 angstrom
           Maximum rank =  0   Radius =  0.650 angstrom
                   Q00  =   0.031515

C          x = -0.780531  y =  2.041929  z = -0.737156 angstrom
           Maximum rank =  0   Radius =  0.650 angstrom
                   Q00  =  -0.135514

C          x = -2.175531  y =  0.116929  z = -0.247156 angstrom
           Maximum rank =  0   Radius =  0.650 angstrom
                   Q00  =  -0.124115

C          x = -1.243531  y =  2.013929  z = -2.057156 angstrom
           Maximum rank =  0   Radius =  0.650 angstrom
                   Q00  =  -0.024989

C          x = -2.630531  y =  0.084929  z = -1.569156 angstrom
           Maximum rank =  0   Radius =  0.650 angstrom
                   Q00  =   0.334756

C          x = -2.169531  y =  1.044929  z = -2.478156 angstrom
           Maximum rank =  0   Radius =  0.650 angstrom
                   Q00  =  -0.190563

O          x = -3.534531  y = -0.872071  z = -1.963156 angstrom
           Maximum rank =  0   Radius =  0.650 angstrom
                   Q00  =  -0.682509

H          x = -0.962531  y =  1.118929  z =  1.200844 angstrom
           Maximum rank =  0   Radius =  0.325 angstrom
                   Q00  =   0.060187

H          x = -2.554531  y = -0.598071  z =  0.463844 angstrom
           Maximum rank =  0   Radius =  0.325 angstrom
                   Q00  =   0.085509

H          x =  0.400469  y =  2.988929  z =  0.787844 angstrom
           Maximum rank =  0   Radius =  0.325 angstrom
                   Q00  =   0.081123

H          x = -0.368531  y =  4.062929  z = -0.356156 angstrom
           Maximum rank =  0   Radius =  0.325 angstrom
                   Q00  =   0.105216

H          x = -0.901531  y =  2.754929  z = -2.769156 angstrom
           Maximum rank =  0   Radius =  0.325 angstrom
                   Q00  =   0.071940

H          x = -2.513531  y =  1.035929  z = -3.502156 angstrom
           Maximum rank =  0   Radius =  0.325 angstrom
                   Q00  =   0.077421

H          x = -3.791531  y = -0.763071  z = -2.898156 angstrom
           Maximum rank =  0   Radius =  0.325 angstrom
                   Q00  =   0.413184

H          x =  1.108429  y =  3.206149  z = -0.840946 angstrom
           Maximum rank =  0   Radius =  0.325 angstrom
                   Q00  =   0.104130

C          x =  1.844469  y = -3.517071  z =  1.086844 angstrom
           Maximum rank =  0   Radius =  0.650 angstrom
                   Q00  =  -0.191159

C          x =  1.457469  y = -0.962071  z =  0.929844 angstrom
           Maximum rank =  0   Radius =  0.650 angstrom
                   Q00  =   0.001400

C          x =  2.123469  y = -2.064071  z =  1.360844 angstrom
           Maximum rank =  0   Radius =  0.650 angstrom
                   Q00  =   0.213896

C          x =  3.116469  y = -0.295071  z =  2.207844 angstrom
           Maximum rank =  0   Radius =  0.650 angstrom
                   Q00  =   0.467236

N          x =  2.095469  y =  0.131929  z =  1.473844 angstrom
           Maximum rank =  0   Radius =  0.650 angstrom
                   Q00  =  -0.478142

N          x =  3.152469  y = -1.618071  z =  2.162844 angstrom
           Maximum rank =  0   Radius =  0.650 angstrom
                   Q00  =  -0.770750

H          x =  0.570469  y = -0.964071  z =  0.307844 angstrom
           Maximum rank =  0   Radius =  0.325 angstrom
                   Q00  =   0.111960

H          x =  1.719469  y =  1.069929  z =  1.532844 angstrom
           Maximum rank =  0   Radius =  0.325 angstrom
                   Q00  =   0.214128

H          x =  0.897469  y = -3.569071  z =  0.553844 angstrom
           Maximum rank =  0   Radius =  0.325 angstrom
                   Q00  =   0.092011

H          x =  1.735469  y = -4.046071  z =  2.030844 angstrom
           Maximum rank =  0   Radius =  0.325 angstrom
                   Q00  =   0.110615

H          x =  3.764469  y =  0.318929  z =  2.817844 angstrom
           Maximum rank =  0   Radius =  0.325 angstrom
                   Q00  =   0.120555

H          x =  2.611819  y = -4.015961  z =  0.476694 angstrom
           Maximum rank =  0   Radius =  0.325 angstrom
                   Q00  =   0.106761

Total multipoles referred to origin at
           x =   0.000000,  y =    0.000000,  z =    0.000000 angstrom
                   Q00  =  -0.000000

Finished at 23:16:37 on 27 Apr 2020

  DMA results are available in the Python driver through the
	  variable('DMA DISTRIBUTED MULTIPOLES')
  and
	  variable('DMA TOTAL MULTIPOLES')
  commands.

    Psi4 stopped on: Monday, 27 April 2020 11:16PM
    Psi4 wall time for execution: 0:06:17.29

*** Psi4 exiting successfully. Buy a developer a beer!
