                               Psi4 1.3.2 release

  ==> Input File <==

--------------------------------------------------------------------------
import numpy as np
set {scf_type pk
basis cc-pvdz
d_convergence 10
gdma_switch   0
gdma_limit    0
gdma_origin   [ 0.0,  0.0,  0.0 ]
}
molecule test {
    units Angstrom
    0 1
    --
    0 1
    C                2.120642511685052     0.480766005506607     1.173090233761418
    C                0.825642511685052     1.120766005506607     0.750090233761418
    O                0.257642511685052     0.770766005506607    -0.281909766238582
    N                0.343642511685052     2.062766005506607     1.546090233761418
    H                2.695642511685052     1.183766005506607     1.770090233761418
    H                2.687642511685052     0.248766005506607     0.274090233761418
    H               -0.510357488314948     2.531766005506606     1.296090233761418
    H                0.848642511685052     2.294766005506606     2.392090233761418
    H                1.969032511685052    -0.448403994493393     1.742000233761418
    C               -1.986357488314948    -2.540233994493394    -1.061909766238582
    O               -1.233357488314948    -1.648233994493393    -1.878909766238582
    H               -1.854357488314948    -1.070233994493393    -2.339909766238581
    H               -2.620357488314948    -3.150233994493393    -1.707909766238582
    H               -1.311127488314948    -3.191783994493393    -0.487849766238582
    H               -2.623837488314948    -1.956183994493393    -0.381839766238582

}
e, wfn = energy('scf', return_wfn=True)
gdma(wfn)
dmavals = variable('DMA DISTRIBUTED MULTIPOLES')
charges = np.array(dmavals)
print(charges)
np.save('SSI-052ASN-143THR-1-dimer.npy', np.array(charges))--------------------------------------------------------------------------

*** tstart() called on ds3
*** at Tue Apr 28 10:43:19 2020

   => Loading Basis Set <=

    Name: CC-PVDZ
    Role: ORBITAL
    Keyword: BASIS
    atoms 1-2, 10    entry C          line   138 file /theoryfs2/ds/metcalf/miniconda2/envs/tf2gpu/share/psi4/basis/cc-pvdz.gbs
    atoms 3, 11      entry O          line   198 file /theoryfs2/ds/metcalf/miniconda2/envs/tf2gpu/share/psi4/basis/cc-pvdz.gbs
    atoms 4          entry N          line   168 file /theoryfs2/ds/metcalf/miniconda2/envs/tf2gpu/share/psi4/basis/cc-pvdz.gbs
    atoms 5-9, 12-15 entry H          line    22 file /theoryfs2/ds/metcalf/miniconda2/envs/tf2gpu/share/psi4/basis/cc-pvdz.gbs

         ---------------------------------------------------------
                                   SCF
               by Justin Turney, Rob Parrish, Andy Simmonett
                          and Daniel G. A. Smith
                              RHF Reference
                        1 Threads,    500 MiB Core
         ---------------------------------------------------------

  ==> Geometry <==

    Molecular point group: c1
    Full point group: C1

    Geometry (in Angstrom), charge = 0, multiplicity = 1:

       Center              X                  Y                   Z               Mass
    ------------   -----------------  -----------------  -----------------  -----------------
         C            2.120642511685     0.480766005507     1.173090233761    12.000000000000
         C            0.825642511685     1.120766005507     0.750090233761    12.000000000000
         O            0.257642511685     0.770766005507    -0.281909766239    15.994914619570
         N            0.343642511685     2.062766005507     1.546090233761    14.003074004430
         H            2.695642511685     1.183766005507     1.770090233761     1.007825032230
         H            2.687642511685     0.248766005507     0.274090233761     1.007825032230
         H           -0.510357488315     2.531766005507     1.296090233761     1.007825032230
         H            0.848642511685     2.294766005507     2.392090233761     1.007825032230
         H            1.969032511685    -0.448403994493     1.742000233761     1.007825032230
         C           -1.986357488315    -2.540233994493    -1.061909766239    12.000000000000
         O           -1.233357488315    -1.648233994493    -1.878909766239    15.994914619570
         H           -1.854357488315    -1.070233994493    -2.339909766239     1.007825032230
         H           -2.620357488315    -3.150233994493    -1.707909766239     1.007825032230
         H           -1.311127488315    -3.191783994493    -0.487849766239     1.007825032230
         H           -2.623837488315    -1.956183994493    -0.381839766239     1.007825032230

  Running in c1 symmetry.

  Rotational constants: A =      0.20698  B =      0.03252  C =      0.03095 [cm^-1]
  Rotational constants: A =   6205.02810  B =    974.85295  C =    927.94381 [MHz]
  Nuclear repulsion =  226.812423166046273

  Charge       = 0
  Multiplicity = 1
  Electrons    = 50
  Nalpha       = 25
  Nbeta        = 25

  ==> Algorithm <==

  SCF Algorithm Type is PK.
  DIIS enabled.
  MOM disabled.
  Fractional occupation disabled.
  Guess Type is SAD.
  Energy threshold   = 1.00e-06
  Density threshold  = 1.00e-10
  Integral threshold = 0.00e+00

  ==> Primary Basis <==

  Basis Set: CC-PVDZ
    Blend: CC-PVDZ
    Number of shells: 63
    Number of basis function: 129
    Number of Cartesian functions: 135
    Spherical Harmonics?: true
    Max angular momentum: 2

  ==> Pre-Iterations <==

   -------------------------------------------------------
    Irrep   Nso     Nmo     Nalpha   Nbeta   Ndocc  Nsocc
   -------------------------------------------------------
     A        129     129       0       0       0       0
   -------------------------------------------------------
    Total     129     129      25      25      25       0
   -------------------------------------------------------

  ==> Integral Setup <==

  Using integral reordering PK algorithm.
  Sizing the integral batches needed.
  Building batch lookup table.
   Calculation information:
      Number of atoms:                  15
      Number of AO shells:              63
      Number of primitives:            177
      Number of atomic orbitals:       135
      Number of basis functions:       129

      Integral cutoff                 1.00e-12
      Number of threads:                 1

	Batch   1 pq = [       0,    8385] index = [             0,35158305] size =     35158305
  Task number: 4
  Buffer size: 11059200
  Buffer per thread: 2
  We computed 1438562 shell quartets total.
  Whereas there are 2033136 unique shell quartets.

  ==> DiskJK: Disk-Based J/K Matrices <==

    J tasked:                  Yes
    K tasked:                  Yes
    wK tasked:                  No
    Memory [MiB]:              375
    Schwarz Cutoff:          1E-12

    OpenMP threads:              1

  Minimum eigenvalue in the overlap matrix is 4.4915497116E-03.
  Using Symmetric Orthogonalization.

  SCF Guess: Superposition of Atomic Densities via on-the-fly atomic UHF.

  ==> Iterations <==

                        Total Energy        Delta E     RMS |[F,P]|

   @RHF iter SAD:  -321.66258422628329   -3.21663e+02   0.00000e+00
   @RHF iter   1:  -322.81571126704517   -1.15313e+00   5.10344e-03 DIIS
   @RHF iter   2:  -322.97870791895895   -1.62997e-01   3.02770e-03 DIIS
   @RHF iter   3:  -323.03327629291317   -5.45684e-02   5.59951e-04 DIIS
   @RHF iter   4:  -323.03635652112558   -3.08023e-03   2.24579e-04 DIIS
   @RHF iter   5:  -323.03688133157414   -5.24810e-04   4.72357e-05 DIIS
   @RHF iter   6:  -323.03691735586239   -3.60243e-05   2.12131e-05 DIIS
   @RHF iter   7:  -323.03692505553494   -7.69967e-06   7.89116e-06 DIIS
   @RHF iter   8:  -323.03692655552680   -1.49999e-06   2.72023e-06 DIIS
   @RHF iter   9:  -323.03692673312344   -1.77597e-07   7.97404e-07 DIIS
   @RHF iter  10:  -323.03692674556021   -1.24368e-08   2.76403e-07 DIIS
   @RHF iter  11:  -323.03692674683521   -1.27500e-09   4.84171e-08 DIIS
   @RHF iter  12:  -323.03692674688432   -4.91127e-11   1.34142e-08 DIIS
   @RHF iter  13:  -323.03692674688745   -3.12639e-12   3.91282e-09 DIIS
   @RHF iter  14:  -323.03692674688733    1.13687e-13   1.39119e-09 DIIS
   @RHF iter  15:  -323.03692674688841   -1.08002e-12   4.36809e-10 DIIS
   @RHF iter  16:  -323.03692674688853   -1.13687e-13   1.62512e-10 DIIS
   @RHF iter  17:  -323.03692674688796    5.68434e-13   6.07066e-11 DIIS
  Energy and wave function converged.

  ==> Post-Iterations <==

    Orbital Energies [Eh]
    ---------------------

    Doubly Occupied:

       1A    -20.524106     2A    -20.494111     3A    -15.584431
       4A    -11.338482     5A    -11.260404     6A    -11.234800
       7A     -1.359069     8A     -1.322730     9A     -1.212765
      10A     -0.996171    11A     -0.900549    12A     -0.793763
      13A     -0.724778    14A     -0.656669    15A     -0.648854
      16A     -0.606583    17A     -0.595577    18A     -0.568496
      19A     -0.560937    20A     -0.552172    21A     -0.515617
      22A     -0.473330    23A     -0.418024    24A     -0.401216
      25A     -0.395938

    Virtual:

      26A      0.168846    27A      0.196963    28A      0.206920
      29A      0.219755    30A      0.233270    31A      0.241579
      32A      0.273830    33A      0.277951    34A      0.282793
      35A      0.292830    36A      0.375377    37A      0.388608
      38A      0.470112    39A      0.564708    40A      0.634986
      41A      0.651840    42A      0.654054    43A      0.662742
      44A      0.701035    45A      0.717786    46A      0.741450
      47A      0.747572    48A      0.755884    49A      0.817937
      50A      0.844439    51A      0.863532    52A      0.876448
      53A      0.896946    54A      0.908362    55A      0.911870
      56A      0.921645    57A      0.946779    58A      1.005992
      59A      1.014447    60A      1.050334    61A      1.102202
      62A      1.136969    63A      1.143037    64A      1.181027
      65A      1.183579    66A      1.295662    67A      1.327645
      68A      1.345257    69A      1.364566    70A      1.400141
      71A      1.424358    72A      1.435825    73A      1.473829
      74A      1.484259    75A      1.489001    76A      1.633944
      77A      1.642745    78A      1.658934    79A      1.680050
      80A      1.683422    81A      1.725367    82A      1.816815
      83A      1.865627    84A      1.871328    85A      1.882578
      86A      1.898381    87A      1.909429    88A      1.910942
      89A      1.931561    90A      1.960190    91A      1.977747
      92A      1.989180    93A      2.046535    94A      2.048289
      95A      2.085100    96A      2.159790    97A      2.181428
      98A      2.224053    99A      2.282011   100A      2.307076
     101A      2.375670   102A      2.387115   103A      2.419647
     104A      2.460514   105A      2.483104   106A      2.531579
     107A      2.548140   108A      2.579768   109A      2.626221
     110A      2.748873   111A      2.759733   112A      2.760300
     113A      2.763516   114A      2.783569   115A      2.804048
     116A      2.857926   117A      2.972156   118A      3.100778
     119A      3.146406   120A      3.293594   121A      3.325989
     122A      3.403486   123A      3.462543   124A      3.510020
     125A      3.540515   126A      3.611792   127A      3.876252
     128A      3.918348   129A      4.108960

    Final Occupation by Irrep:
              A
    DOCC [    25 ]

  @RHF Final Energy:  -323.03692674688796

   => Energetics <=

    Nuclear Repulsion Energy =            226.8124231660462726
    One-Electron Energy =                -891.4195545052729130
    Two-Electron Energy =                 341.5702045923386549
    Total Energy =                       -323.0369267468879571

Computation Completed

Properties will be evaluated at   0.000000,   0.000000,   0.000000 [a0]

Properties computed using the SCF density matrix

  Nuclear Dipole Moment: [e a0]
     X:    -0.6798      Y:    -3.3455      Z:     2.3821

  Electronic Dipole Moment: [e a0]
     X:     0.5369      Y:     4.0130      Z:    -0.9041

  Dipole Moment: [e a0]
     X:    -0.1429      Y:     0.6675      Z:     1.4780     Total:     1.6280

  Dipole Moment: [D]
     X:    -0.3633      Y:     1.6967      Z:     3.7566     Total:     4.1379

*** tstop() called on ds3 at Tue Apr 28 10:43:47 2020
Module time:
	user time   =      10.20 seconds =       0.17 minutes
	system time =       4.96 seconds =       0.08 minutes
	total time  =         28 seconds =       0.47 minutes
Total time:
	user time   =      10.20 seconds =       0.17 minutes
	system time =       4.96 seconds =       0.08 minutes
	total time  =         28 seconds =       0.47 minutes
                                     G D M A

                                 by Anthony Stone

                           version 2.2.06, 22 June 2011

               Distributed Multipoles from Gaussian wavefunctions

Starting at 10:43:47 on 28 Apr 2020

Using SCF density matrix from file ./SSI/SSI-052ASN-143THR-1-dimer.test.13152.fchk

                         Distributed Multipole Analysis

Standard DMA

Positions and radii in angstrom
Multipole moments in atomic units, ea_0^k for rank k

C          x =  2.120643  y =  0.480766  z =  1.173090 angstrom
           Maximum rank =  0   Radius =  0.650 angstrom
                   Q00  =  -0.266290

C          x =  0.825643  y =  1.120766  z =  0.750090 angstrom
           Maximum rank =  0   Radius =  0.650 angstrom
                   Q00  =   0.824533

O          x =  0.257643  y =  0.770766  z = -0.281910 angstrom
           Maximum rank =  0   Radius =  0.650 angstrom
                   Q00  =  -0.788059

N          x =  0.343643  y =  2.062766  z =  1.546090 angstrom
           Maximum rank =  0   Radius =  0.650 angstrom
                   Q00  =  -0.528441

H          x =  2.695643  y =  1.183766  z =  1.770090 angstrom
           Maximum rank =  0   Radius =  0.325 angstrom
                   Q00  =   0.073450

H          x =  2.687643  y =  0.248766  z =  0.274090 angstrom
           Maximum rank =  0   Radius =  0.325 angstrom
                   Q00  =   0.132289

H          x = -0.510357  y =  2.531766  z =  1.296090 angstrom
           Maximum rank =  0   Radius =  0.325 angstrom
                   Q00  =   0.220501

H          x =  0.848643  y =  2.294766  z =  2.392090 angstrom
           Maximum rank =  0   Radius =  0.325 angstrom
                   Q00  =   0.201622

H          x =  1.969033  y = -0.448404  z =  1.742000 angstrom
           Maximum rank =  0   Radius =  0.325 angstrom
                   Q00  =   0.130609

C          x = -1.986357  y = -2.540234  z = -1.061910 angstrom
           Maximum rank =  0   Radius =  0.650 angstrom
                   Q00  =  -0.036355

O          x = -1.233357  y = -1.648234  z = -1.878910 angstrom
           Maximum rank =  0   Radius =  0.650 angstrom
                   Q00  =  -0.577865

H          x = -1.854357  y = -1.070234  z = -2.339910 angstrom
           Maximum rank =  0   Radius =  0.325 angstrom
                   Q00  =   0.381707

H          x = -2.620357  y = -3.150234  z = -1.707910 angstrom
           Maximum rank =  0   Radius =  0.325 angstrom
                   Q00  =   0.057734

H          x = -1.311127  y = -3.191784  z = -0.487850 angstrom
           Maximum rank =  0   Radius =  0.325 angstrom
                   Q00  =   0.112071

H          x = -2.623837  y = -1.956184  z = -0.381840 angstrom
           Maximum rank =  0   Radius =  0.325 angstrom
                   Q00  =   0.062492

Total multipoles referred to origin at
           x =   0.000000,  y =    0.000000,  z =    0.000000 angstrom
                   Q00  =  -0.000000

Finished at 10:43:47 on 28 Apr 2020

  DMA results are available in the Python driver through the
	  variable('DMA DISTRIBUTED MULTIPOLES')
  and
	  variable('DMA TOTAL MULTIPOLES')
  commands.

    Psi4 stopped on: Tuesday, 28 April 2020 10:43AM
    Psi4 wall time for execution: 0:00:27.67

*** Psi4 exiting successfully. Buy a developer a beer!
