                               Psi4 1.3.2 release

  ==> Input File <==

--------------------------------------------------------------------------
import numpy as np
set {scf_type pk
basis cc-pvdz
d_convergence 10
gdma_switch   0
gdma_limit    0
gdma_origin   [ 0.0,  0.0,  0.0 ]
}
molecule test {
    units Angstrom
    1 1
    --
    1 1
    C                4.075590742318229    -1.238521247894581    -0.339277715819019
    C                0.137590742318229    -2.447521247894581     0.756722284180981
    C                0.824590742318229    -3.159521247894581    -0.228277715819019
    C                0.709590742318229    -1.342521247894581     1.384722284180981
    C                2.090590742318228    -2.754521247894581    -0.588277715819019
    C                1.995590742318228    -0.952521247894581     1.020722284180981
    C                2.683590742318228    -1.659521247894581     0.027722284180981
    H               -0.855409257681771    -2.765521247894581     1.046722284180981
    H                0.373590742318229    -4.020521247894581    -0.699277715819019
    H                0.166590742318229    -0.803521247894581     2.147722284180981
    H                2.617590742318229    -3.285521247894581    -1.365277715819019
    H                2.458590742318229    -0.102521247894581     1.503722284180981
    H                4.211590742318229    -0.190521247894581    -0.099277715819019
    H                4.171590742318229    -1.352521247894581    -1.407277715819019
    H                4.866160742318229    -1.828751247894581     0.147172284180981
    C               -1.796409257681771     0.412478752105419    -0.609277715819019
    C               -1.691409257681771     0.501478752105419    -2.127277715819019
    C               -1.983409257681771     2.751478752105419     0.231722284180981
    N               -2.480409257681771     1.542478752105419    -0.003277715819019
    N               -0.749409257681771     3.103478752105419    -0.064277715819019
    N               -2.786409257681771     3.627478752105420     0.808722284180981
    H               -2.339409257681771    -0.499521247894581    -0.354277715819019
    H               -0.795409257681771     0.326478752105419    -0.182277715819019
    H               -1.214409257681772     1.438478752105419    -2.415277715819019
    H               -2.688409257681771     0.468478752105419    -2.560277715819019
    H               -3.440409257681771     1.403478752105419     0.313722284180981
    H               -0.130409257681771     2.440478752105419    -0.498277715819019
    H               -0.425409257681771     4.038478752105419     0.129722284180981
    H               -3.719409257681772     3.302478752105419     1.056722284180980
    H               -2.486409257681771     4.565478752105419     1.017722284180981
    H               -1.073449257681772    -0.339771247894581    -2.474297715819020

}
e, wfn = energy('scf', return_wfn=True)
gdma(wfn)
dmavals = variable('DMA DISTRIBUTED MULTIPOLES')
charges = np.array(dmavals)
print(charges)
np.save('SSI-105PHE-130ARG-1-dimer.npy', np.array(charges))--------------------------------------------------------------------------

*** tstart() called on ds3
*** at Sun Apr 26 22:17:53 2020

   => Loading Basis Set <=

    Name: CC-PVDZ
    Role: ORBITAL
    Keyword: BASIS
    atoms 1-7, 16-18  entry C          line   138 file /theoryfs2/ds/metcalf/miniconda2/envs/tf2gpu/share/psi4/basis/cc-pvdz.gbs
    atoms 8-15, 22-31 entry H          line    22 file /theoryfs2/ds/metcalf/miniconda2/envs/tf2gpu/share/psi4/basis/cc-pvdz.gbs
    atoms 19-21       entry N          line   168 file /theoryfs2/ds/metcalf/miniconda2/envs/tf2gpu/share/psi4/basis/cc-pvdz.gbs

         ---------------------------------------------------------
                                   SCF
               by Justin Turney, Rob Parrish, Andy Simmonett
                          and Daniel G. A. Smith
                              RHF Reference
                        1 Threads,    500 MiB Core
         ---------------------------------------------------------

  ==> Geometry <==

    Molecular point group: c1
    Full point group: C1

    Geometry (in Angstrom), charge = 1, multiplicity = 1:

       Center              X                  Y                   Z               Mass
    ------------   -----------------  -----------------  -----------------  -----------------
         C            4.075590742318    -1.238521247895    -0.339277715819    12.000000000000
         C            0.137590742318    -2.447521247895     0.756722284181    12.000000000000
         C            0.824590742318    -3.159521247895    -0.228277715819    12.000000000000
         C            0.709590742318    -1.342521247895     1.384722284181    12.000000000000
         C            2.090590742318    -2.754521247895    -0.588277715819    12.000000000000
         C            1.995590742318    -0.952521247895     1.020722284181    12.000000000000
         C            2.683590742318    -1.659521247895     0.027722284181    12.000000000000
         H           -0.855409257682    -2.765521247895     1.046722284181     1.007825032230
         H            0.373590742318    -4.020521247895    -0.699277715819     1.007825032230
         H            0.166590742318    -0.803521247895     2.147722284181     1.007825032230
         H            2.617590742318    -3.285521247895    -1.365277715819     1.007825032230
         H            2.458590742318    -0.102521247895     1.503722284181     1.007825032230
         H            4.211590742318    -0.190521247895    -0.099277715819     1.007825032230
         H            4.171590742318    -1.352521247895    -1.407277715819     1.007825032230
         H            4.866160742318    -1.828751247895     0.147172284181     1.007825032230
         C           -1.796409257682     0.412478752105    -0.609277715819    12.000000000000
         C           -1.691409257682     0.501478752105    -2.127277715819    12.000000000000
         C           -1.983409257682     2.751478752105     0.231722284181    12.000000000000
         N           -2.480409257682     1.542478752105    -0.003277715819    14.003074004430
         N           -0.749409257682     3.103478752105    -0.064277715819    14.003074004430
         N           -2.786409257682     3.627478752105     0.808722284181    14.003074004430
         H           -2.339409257682    -0.499521247895    -0.354277715819     1.007825032230
         H           -0.795409257682     0.326478752105    -0.182277715819     1.007825032230
         H           -1.214409257682     1.438478752105    -2.415277715819     1.007825032230
         H           -2.688409257682     0.468478752105    -2.560277715819     1.007825032230
         H           -3.440409257682     1.403478752105     0.313722284181     1.007825032230
         H           -0.130409257682     2.440478752105    -0.498277715819     1.007825032230
         H           -0.425409257682     4.038478752105     0.129722284181     1.007825032230
         H           -3.719409257682     3.302478752105     1.056722284181     1.007825032230
         H           -2.486409257682     4.565478752105     1.017722284181     1.007825032230
         H           -1.073449257682    -0.339771247895    -2.474297715819     1.007825032230

  Running in c1 symmetry.

  Rotational constants: A =      0.04123  B =      0.01024  C =      0.00954 [cm^-1]
  Rotational constants: A =   1235.90272  B =    307.01196  C =    286.02219 [MHz]
  Nuclear repulsion =  759.781408081175528

  Charge       = 1
  Multiplicity = 1
  Electrons    = 98
  Nalpha       = 49
  Nbeta        = 49

  ==> Algorithm <==

  SCF Algorithm Type is PK.
  DIIS enabled.
  MOM disabled.
  Fractional occupation disabled.
  Guess Type is SAD.
  Energy threshold   = 1.00e-06
  Density threshold  = 1.00e-10
  Integral threshold = 0.00e+00

  ==> Primary Basis <==

  Basis Set: CC-PVDZ
    Blend: CC-PVDZ
    Number of shells: 132
    Number of basis function: 272
    Number of Cartesian functions: 285
    Spherical Harmonics?: true
    Max angular momentum: 2

  ==> Pre-Iterations <==

   -------------------------------------------------------
    Irrep   Nso     Nmo     Nalpha   Nbeta   Ndocc  Nsocc
   -------------------------------------------------------
     A        272     272       0       0       0       0
   -------------------------------------------------------
    Total     272     272      49      49      49       0
   -------------------------------------------------------

  ==> Integral Setup <==

  Using integral reordering PK algorithm.
  Sizing the integral batches needed.
  Building batch lookup table.
   Calculation information:
      Number of atoms:                  31
      Number of AO shells:             132
      Number of primitives:            376
      Number of atomic orbitals:       285
      Number of basis functions:       272

      Integral cutoff                 1.00e-12
      Number of threads:                 1

	Batch   1 pq = [       0,    9405] index = [             0,44231715] size =     44231715
	Batch   2 pq = [    9405,   13301] index = [      44231715,88464951] size =     44233236
	Batch   3 pq = [   13301,   16290] index = [      88464951,132690195] size =     44225244
	Batch   4 pq = [   16290,   18810] index = [     132690195,176917455] size =     44227260
	Batch   5 pq = [   18810,   21030] index = [     176917455,221140965] size =     44223510
	Batch   6 pq = [   21030,   23037] index = [     221140965,265363203] size =     44222238
	Batch   7 pq = [   23037,   24883] index = [     265363203,309594286] size =     44231083
	Batch   8 pq = [   24883,   26601] index = [     309594286,353819901] size =     44225615
	Batch   9 pq = [   26601,   28214] index = [     353819901,398029005] size =     44209104
	Batch  10 pq = [   28214,   29740] index = [     398029005,442248670] size =     44219665
	Batch  11 pq = [   29740,   31191] index = [     442248670,486454836] size =     44206166
	Batch  12 pq = [   31191,   32578] index = [     486454836,530679331] size =     44224495
	Batch  13 pq = [   32578,   33908] index = [     530679331,574893186] size =     44213855
	Batch  14 pq = [   33908,   35188] index = [     574893186,619115266] size =     44222080
	Batch  15 pq = [   35188,   36423] index = [     619115266,663335676] size =     44220410
	Batch  16 pq = [   36423,   37128] index = [     663335676,689262756] size =     25927080
  Task number: 63
  Buffer size: 11059200
  Buffer per thread: 2
  We computed 35283519 shell quartets total.
  Whereas there are 38531031 unique shell quartets.

  ==> DiskJK: Disk-Based J/K Matrices <==

    J tasked:                  Yes
    K tasked:                  Yes
    wK tasked:                  No
    Memory [MiB]:              375
    Schwarz Cutoff:          1E-12

    OpenMP threads:              1

  Minimum eigenvalue in the overlap matrix is 3.1105517520E-04.
  Using Symmetric Orthogonalization.

  SCF Guess: Superposition of Atomic Densities via on-the-fly atomic UHF.

  ==> Iterations <==

                        Total Energy        Delta E     RMS |[F,P]|

   @RHF iter SAD:  -551.69314338921311   -5.51693e+02   0.00000e+00
   @RHF iter   1:  -552.08228470304221   -3.89141e-01   2.51640e-03 DIIS
   @RHF iter   2:  -552.34372539579795   -2.61441e-01   9.92187e-04 DIIS
   @RHF iter   3:  -552.38098666122573   -3.72613e-02   2.42514e-04 DIIS
   @RHF iter   4:  -552.38449482343060   -3.50816e-03   5.45973e-05 DIIS
   @RHF iter   5:  -552.38464055258555   -1.45729e-04   1.85257e-05 DIIS
   @RHF iter   6:  -552.38465920421038   -1.86516e-05   5.79483e-06 DIIS
   @RHF iter   7:  -552.38466109630372   -1.89209e-06   1.62230e-06 DIIS
   @RHF iter   8:  -552.38466131275118   -2.16447e-07   4.39566e-07 DIIS
   @RHF iter   9:  -552.38466132759550   -1.48443e-08   1.23651e-07 DIIS
   @RHF iter  10:  -552.38466132909400   -1.49851e-09   5.53700e-08 DIIS
   @RHF iter  11:  -552.38466132945666   -3.62661e-10   2.41793e-08 DIIS
   @RHF iter  12:  -552.38466132956160   -1.04933e-10   1.18400e-08 DIIS
   @RHF iter  13:  -552.38466132958615   -2.45564e-11   5.15331e-09 DIIS
   @RHF iter  14:  -552.38466132959559   -9.43601e-12   1.69158e-09 DIIS
   @RHF iter  15:  -552.38466132959161    3.97904e-12   5.79045e-10 DIIS
   @RHF iter  16:  -552.38466132959434   -2.72848e-12   2.48326e-10 DIIS
   @RHF iter  17:  -552.38466132959275    1.59162e-12   7.34784e-11 DIIS
  Energy and wave function converged.

  ==> Post-Iterations <==

    Orbital Energies [Eh]
    ---------------------

    Doubly Occupied:

       1A    -15.786075     2A    -15.782040     3A    -15.776333
       4A    -11.583641     5A    -11.421186     6A    -11.358540
       7A    -11.329578     8A    -11.327771     9A    -11.323882
      10A    -11.322681    11A    -11.322601    12A    -11.315491
      13A    -11.304827    14A     -1.540476    15A     -1.398825
      16A     -1.385993    17A     -1.244117    18A     -1.177522
      19A     -1.131584    20A     -1.106189    21A     -1.056421
      22A     -1.015384    23A     -1.003769    24A     -0.967020
      25A     -0.925170    26A     -0.914853    27A     -0.885431
      28A     -0.860295    29A     -0.848749    30A     -0.816091
      31A     -0.789675    32A     -0.780215    33A     -0.751670
      34A     -0.721218    35A     -0.720339    36A     -0.693859
      37A     -0.677707    38A     -0.665315    39A     -0.657386
      40A     -0.645492    41A     -0.641363    42A     -0.619337
      43A     -0.613059    44A     -0.579453    45A     -0.575440
      46A     -0.568086    47A     -0.564995    48A     -0.426407
      49A     -0.409406

    Virtual:

      50A     -0.009187    51A      0.024976    52A      0.030908
      53A      0.040546    54A      0.044216    55A      0.048694
      56A      0.069228    57A      0.085436    58A      0.095978
      59A      0.116595    60A      0.119165    61A      0.131893
      62A      0.140465    63A      0.144657    64A      0.153062
      65A      0.163137    66A      0.178203    67A      0.194287
      68A      0.199653    69A      0.203990    70A      0.211862
      71A      0.234648    72A      0.238593    73A      0.280034
      74A      0.292813    75A      0.296891    76A      0.336421
      77A      0.352638    78A      0.362876    79A      0.371035
      80A      0.396628    81A      0.403116    82A      0.449089
      83A      0.465759    84A      0.476903    85A      0.484974
      86A      0.502106    87A      0.516274    88A      0.526740
      89A      0.535744    90A      0.546074    91A      0.550320
      92A      0.556728    93A      0.559189    94A      0.584375
      95A      0.589739    96A      0.600577    97A      0.614201
      98A      0.634346    99A      0.645931   100A      0.649897
     101A      0.656018   102A      0.667497   103A      0.678019
     104A      0.685767   105A      0.691403   106A      0.717198
     107A      0.734985   108A      0.739930   109A      0.746716
     110A      0.753150   111A      0.759959   112A      0.771938
     113A      0.774770   114A      0.777645   115A      0.791796
     116A      0.792437   117A      0.800935   118A      0.803038
     119A      0.811409   120A      0.811712   121A      0.819205
     122A      0.844922   123A      0.848035   124A      0.850928
     125A      0.866953   126A      0.868400   127A      0.874114
     128A      0.896598   129A      0.905877   130A      0.920585
     131A      0.937927   132A      0.949702   133A      0.952578
     134A      0.972518   135A      0.994001   136A      1.030573
     137A      1.050736   138A      1.060324   139A      1.065481
     140A      1.092041   141A      1.101042   142A      1.116679
     143A      1.124095   144A      1.146164   145A      1.152563
     146A      1.158637   147A      1.170848   148A      1.176969
     149A      1.198821   150A      1.211213   151A      1.215755
     152A      1.222872   153A      1.228307   154A      1.231156
     155A      1.240966   156A      1.293862   157A      1.323986
     158A      1.330676   159A      1.361072   160A      1.393553
     161A      1.417235   162A      1.428559   163A      1.457857
     164A      1.479606   165A      1.492394   166A      1.517895
     167A      1.525429   168A      1.544816   169A      1.580431
     170A      1.597800   171A      1.621719   172A      1.635292
     173A      1.638482   174A      1.651629   175A      1.659347
     176A      1.666412   177A      1.686927   178A      1.698960
     179A      1.705917   180A      1.719131   181A      1.725969
     182A      1.731654   183A      1.739468   184A      1.758753
     185A      1.775454   186A      1.786783   187A      1.794384
     188A      1.801526   189A      1.811477   190A      1.818096
     191A      1.826505   192A      1.828657   193A      1.834840
     194A      1.841140   195A      1.851317   196A      1.858026
     197A      1.866074   198A      1.872976   199A      1.893612
     200A      1.894138   201A      1.911979   202A      1.918818
     203A      1.931229   204A      1.940362   205A      1.958185
     206A      1.980222   207A      1.990022   208A      2.009408
     209A      2.025390   210A      2.040546   211A      2.059332
     212A      2.065448   213A      2.068455   214A      2.069401
     215A      2.093569   216A      2.098747   217A      2.125678
     218A      2.142403   219A      2.164858   220A      2.187856
     221A      2.196911   222A      2.209897   223A      2.215786
     224A      2.221432   225A      2.235847   226A      2.246313
     227A      2.258743   228A      2.270363   229A      2.289910
     230A      2.318278   231A      2.328757   232A      2.353705
     233A      2.376601   234A      2.388313   235A      2.390469
     236A      2.424042   237A      2.438708   238A      2.454390
     239A      2.464905   240A      2.488088   241A      2.538539
     242A      2.572119   243A      2.616174   244A      2.626807
     245A      2.650396   246A      2.658240   247A      2.674942
     248A      2.693616   249A      2.701208   250A      2.706990
     251A      2.717072   252A      2.753586   253A      2.768683
     254A      2.783714   255A      2.802083   256A      2.806960
     257A      2.815766   258A      2.876990   259A      2.888961
     260A      2.895845   261A      2.919947   262A      2.940806
     263A      2.967918   264A      3.070207   265A      3.085116
     266A      3.115158   267A      3.117302   268A      3.149034
     269A      3.217598   270A      3.568018   271A      3.651124
     272A      3.888374

    Final Occupation by Irrep:
              A
    DOCC [    49 ]

  @RHF Final Energy:  -552.38466132959275

   => Energetics <=

    Nuclear Repulsion Energy =            759.7814080811755275
    One-Electron Energy =               -2241.6662146524213313
    Two-Electron Energy =                 929.5001452416531720
    Total Energy =                       -552.3846613295927455

Computation Completed

Properties will be evaluated at   0.000000,   0.000000,   0.000000 [a0]

Properties computed using the SCF density matrix

  Nuclear Dipole Moment: [e a0]
     X:    -0.2664      Y:     2.5963      Z:    -4.4013

  Electronic Dipole Moment: [e a0]
     X:    -2.9514      Y:     1.8433      Z:     4.5264

  Dipole Moment: [e a0]
     X:    -3.2178      Y:     4.4396      Z:     0.1251     Total:     5.4846

  Dipole Moment: [D]
     X:    -8.1789      Y:    11.2844      Z:     0.3180     Total:    13.9404

*** tstop() called on ds3 at Sun Apr 26 22:24:38 2020
Module time:
	user time   =     263.21 seconds =       4.39 minutes
	system time =     106.52 seconds =       1.78 minutes
	total time  =        405 seconds =       6.75 minutes
Total time:
	user time   =     263.21 seconds =       4.39 minutes
	system time =     106.52 seconds =       1.78 minutes
	total time  =        405 seconds =       6.75 minutes
                                     G D M A

                                 by Anthony Stone

                           version 2.2.06, 22 June 2011

               Distributed Multipoles from Gaussian wavefunctions

Starting at 22:24:38 on 26 Apr 2020

Using SCF density matrix from file ./SSI/SSI-105PHE-130ARG-1-dimer.test.30092.fchk

                         Distributed Multipole Analysis

Standard DMA

Positions and radii in angstrom
Multipole moments in atomic units, ea_0^k for rank k

C          x =  4.075591  y = -1.238521  z = -0.339278 angstrom
           Maximum rank =  0   Radius =  0.650 angstrom
                   Q00  =  -0.191227

C          x =  0.137591  y = -2.447521  z =  0.756722 angstrom
           Maximum rank =  0   Radius =  0.650 angstrom
                   Q00  =  -0.021003

C          x =  0.824591  y = -3.159521  z = -0.228278 angstrom
           Maximum rank =  0   Radius =  0.650 angstrom
                   Q00  =  -0.065696

C          x =  0.709591  y = -1.342521  z =  1.384722 angstrom
           Maximum rank =  0   Radius =  0.650 angstrom
                   Q00  =  -0.102418

C          x =  2.090591  y = -2.754521  z = -0.588278 angstrom
           Maximum rank =  0   Radius =  0.650 angstrom
                   Q00  =  -0.084345

C          x =  1.995591  y = -0.952521  z =  1.020722 angstrom
           Maximum rank =  0   Radius =  0.650 angstrom
                   Q00  =  -0.098316

C          x =  2.683591  y = -1.659521  z =  0.027722 angstrom
           Maximum rank =  0   Radius =  0.650 angstrom
                   Q00  =  -0.083578

H          x = -0.855409  y = -2.765521  z =  1.046722 angstrom
           Maximum rank =  0   Radius =  0.325 angstrom
                   Q00  =   0.060473

H          x =  0.373591  y = -4.020521  z = -0.699278 angstrom
           Maximum rank =  0   Radius =  0.325 angstrom
                   Q00  =   0.079914

H          x =  0.166591  y = -0.803521  z =  2.147722 angstrom
           Maximum rank =  0   Radius =  0.325 angstrom
                   Q00  =   0.057915

H          x =  2.617591  y = -3.285521  z = -1.365278 angstrom
           Maximum rank =  0   Radius =  0.325 angstrom
                   Q00  =   0.070819

H          x =  2.458591  y = -0.102521  z =  1.503722 angstrom
           Maximum rank =  0   Radius =  0.325 angstrom
                   Q00  =   0.059561

H          x =  4.211591  y = -0.190521  z = -0.099278 angstrom
           Maximum rank =  0   Radius =  0.325 angstrom
                   Q00  =   0.092689

H          x =  4.171591  y = -1.352521  z = -1.407278 angstrom
           Maximum rank =  0   Radius =  0.325 angstrom
                   Q00  =   0.102243

H          x =  4.866161  y = -1.828751  z =  0.147172 angstrom
           Maximum rank =  0   Radius =  0.325 angstrom
                   Q00  =   0.121115

C          x = -1.796409  y =  0.412479  z = -0.609278 angstrom
           Maximum rank =  0   Radius =  0.650 angstrom
                   Q00  =   0.006043

C          x = -1.691409  y =  0.501479  z = -2.127278 angstrom
           Maximum rank =  0   Radius =  0.650 angstrom
                   Q00  =  -0.229910

C          x = -1.983409  y =  2.751479  z =  0.231722 angstrom
           Maximum rank =  0   Radius =  0.650 angstrom
                   Q00  =   1.080389

N          x = -2.480409  y =  1.542479  z = -0.003278 angstrom
           Maximum rank =  0   Radius =  0.650 angstrom
                   Q00  =  -0.491618

N          x = -0.749409  y =  3.103479  z = -0.064278 angstrom
           Maximum rank =  0   Radius =  0.650 angstrom
                   Q00  =  -0.582476

N          x = -2.786409  y =  3.627479  z =  0.808722 angstrom
           Maximum rank =  0   Radius =  0.650 angstrom
                   Q00  =  -0.599568

H          x = -2.339409  y = -0.499521  z = -0.354278 angstrom
           Maximum rank =  0   Radius =  0.325 angstrom
                   Q00  =   0.129168

H          x = -0.795409  y =  0.326479  z = -0.182278 angstrom
           Maximum rank =  0   Radius =  0.325 angstrom
                   Q00  =   0.082171

H          x = -1.214409  y =  1.438479  z = -2.415278 angstrom
           Maximum rank =  0   Radius =  0.325 angstrom
                   Q00  =   0.078792

H          x = -2.688409  y =  0.468479  z = -2.560278 angstrom
           Maximum rank =  0   Radius =  0.325 angstrom
                   Q00  =   0.107414

H          x = -3.440409  y =  1.403479  z =  0.313722 angstrom
           Maximum rank =  0   Radius =  0.325 angstrom
                   Q00  =   0.222280

H          x = -0.130409  y =  2.440479  z = -0.498278 angstrom
           Maximum rank =  0   Radius =  0.325 angstrom
                   Q00  =   0.274300

H          x = -0.425409  y =  4.038479  z =  0.129722 angstrom
           Maximum rank =  0   Radius =  0.325 angstrom
                   Q00  =   0.269237

H          x = -3.719409  y =  3.302479  z =  1.056722 angstrom
           Maximum rank =  0   Radius =  0.325 angstrom
                   Q00  =   0.260969

H          x = -2.486409  y =  4.565479  z =  1.017722 angstrom
           Maximum rank =  0   Radius =  0.325 angstrom
                   Q00  =   0.268766

H          x = -1.073449  y = -0.339771  z = -2.474298 angstrom
           Maximum rank =  0   Radius =  0.325 angstrom
                   Q00  =   0.125898

Total multipoles referred to origin at
           x =   0.000000,  y =    0.000000,  z =    0.000000 angstrom
                   Q00  =   1.000000

Finished at 22:24:38 on 26 Apr 2020

  DMA results are available in the Python driver through the
	  variable('DMA DISTRIBUTED MULTIPOLES')
  and
	  variable('DMA TOTAL MULTIPOLES')
  commands.

    Psi4 stopped on: Sunday, 26 April 2020 10:24PM
    Psi4 wall time for execution: 0:06:45.65

*** Psi4 exiting successfully. Buy a developer a beer!
