                               Psi4 1.3.2 release

  ==> Input File <==

--------------------------------------------------------------------------
import numpy as np
set {scf_type pk
basis cc-pvdz
d_convergence 10
gdma_switch   0
gdma_limit    0
gdma_origin   [ 0.0,  0.0,  0.0 ]
}
molecule test {
    units Angstrom
    1 1
    --
    1 1
    C                1.736563243288954    -1.713692518373602    -0.839591935672665
    C               -0.557436756711047    -0.815692518373602    -0.600591935672665
    N                0.689563243288953    -0.700692518373602    -1.030591935672665
    N               -0.952436756711047    -1.900692518373602     0.040408064327335
    N               -1.405436756711047     0.174307481626398    -0.779591935672665
    H                0.940563243288953     0.150307481626398    -1.523591935672665
    H               -0.326436756711046    -2.677692518373602     0.162408064327335
    H               -1.896436756711047    -1.942692518373602     0.407408064327335
    H               -1.091436756711046     1.045307481626398    -1.175591935672665
    H               -2.406436756711047    -0.029692518373602    -0.721591935672665
    H                2.372563243288954    -1.732692518373602    -1.725591935672665
    H                1.322563243288954    -2.716692518373602    -0.721591935672665
    H                2.351743243288953    -1.453452518373602     0.034378064327335
    C                0.923563243288953     2.181307481626398     1.303408064327335
    C               -0.396436756711047     2.734307481626398     1.848408064327335
    H                1.751563243288953     2.846307481626398     1.540408064327335
    H                1.120563243288953     1.210307481626398     1.759408064327335
    H                0.876563243288954     2.041307481626398     0.225408064327335
    H               -1.190436756711046     2.023307481626398     1.627408064327335
    H               -0.631986756711047     3.701397481626398     1.380158064327335
    H               -0.328926756711047     2.844907481626398     2.940748064327335

}
e, wfn = energy('scf', return_wfn=True)
gdma(wfn)
dmavals = variable('DMA DISTRIBUTED MULTIPOLES')
charges = np.array(dmavals)
print(charges)
np.save('SSI-089ARG-131VAL-1-dimer.npy', np.array(charges))--------------------------------------------------------------------------

*** tstart() called on ds3
*** at Mon Apr 27 10:50:54 2020

   => Loading Basis Set <=

    Name: CC-PVDZ
    Role: ORBITAL
    Keyword: BASIS
    atoms 1-2, 14-15  entry C          line   138 file /theoryfs2/ds/metcalf/miniconda2/envs/tf2gpu/share/psi4/basis/cc-pvdz.gbs
    atoms 3-5         entry N          line   168 file /theoryfs2/ds/metcalf/miniconda2/envs/tf2gpu/share/psi4/basis/cc-pvdz.gbs
    atoms 6-13, 16-21 entry H          line    22 file /theoryfs2/ds/metcalf/miniconda2/envs/tf2gpu/share/psi4/basis/cc-pvdz.gbs

         ---------------------------------------------------------
                                   SCF
               by Justin Turney, Rob Parrish, Andy Simmonett
                          and Daniel G. A. Smith
                              RHF Reference
                        1 Threads,    500 MiB Core
         ---------------------------------------------------------

  ==> Geometry <==

    Molecular point group: c1
    Full point group: C1

    Geometry (in Angstrom), charge = 1, multiplicity = 1:

       Center              X                  Y                   Z               Mass
    ------------   -----------------  -----------------  -----------------  -----------------
         C            1.736563243289    -1.713692518374    -0.839591935673    12.000000000000
         C           -0.557436756711    -0.815692518374    -0.600591935673    12.000000000000
         N            0.689563243289    -0.700692518374    -1.030591935673    14.003074004430
         N           -0.952436756711    -1.900692518374     0.040408064327    14.003074004430
         N           -1.405436756711     0.174307481626    -0.779591935673    14.003074004430
         H            0.940563243289     0.150307481626    -1.523591935673     1.007825032230
         H           -0.326436756711    -2.677692518374     0.162408064327     1.007825032230
         H           -1.896436756711    -1.942692518374     0.407408064327     1.007825032230
         H           -1.091436756711     1.045307481626    -1.175591935673     1.007825032230
         H           -2.406436756711    -0.029692518374    -0.721591935673     1.007825032230
         H            2.372563243289    -1.732692518374    -1.725591935673     1.007825032230
         H            1.322563243289    -2.716692518374    -0.721591935673     1.007825032230
         H            2.351743243289    -1.453452518374     0.034378064327     1.007825032230
         C            0.923563243289     2.181307481626     1.303408064327    12.000000000000
         C           -0.396436756711     2.734307481626     1.848408064327    12.000000000000
         H            1.751563243289     2.846307481626     1.540408064327     1.007825032230
         H            1.120563243289     1.210307481626     1.759408064327     1.007825032230
         H            0.876563243289     2.041307481626     0.225408064327     1.007825032230
         H           -1.190436756711     2.023307481626     1.627408064327     1.007825032230
         H           -0.631986756711     3.701397481626     1.380158064327     1.007825032230
         H           -0.328926756711     2.844907481626     2.940748064327     1.007825032230

  Running in c1 symmetry.

  Rotational constants: A =      0.09872  B =      0.03853  C =      0.03196 [cm^-1]
  Rotational constants: A =   2959.49835  B =   1155.24934  C =    958.18099 [MHz]
  Nuclear repulsion =  325.986503070692549

  Charge       = 1
  Multiplicity = 1
  Electrons    = 58
  Nalpha       = 29
  Nbeta        = 29

  ==> Algorithm <==

  SCF Algorithm Type is PK.
  DIIS enabled.
  MOM disabled.
  Fractional occupation disabled.
  Guess Type is SAD.
  Energy threshold   = 1.00e-06
  Density threshold  = 1.00e-10
  Integral threshold = 0.00e+00

  ==> Primary Basis <==

  Basis Set: CC-PVDZ
    Blend: CC-PVDZ
    Number of shells: 84
    Number of basis function: 168
    Number of Cartesian functions: 175
    Spherical Harmonics?: true
    Max angular momentum: 2

  ==> Pre-Iterations <==

   -------------------------------------------------------
    Irrep   Nso     Nmo     Nalpha   Nbeta   Ndocc  Nsocc
   -------------------------------------------------------
     A        168     168       0       0       0       0
   -------------------------------------------------------
    Total     168     168      29      29      29       0
   -------------------------------------------------------

  ==> Integral Setup <==

  Using integral reordering PK algorithm.
  Sizing the integral batches needed.
  Building batch lookup table.
   Calculation information:
      Number of atoms:                  21
      Number of AO shells:              84
      Number of primitives:            224
      Number of atomic orbitals:       175
      Number of basis functions:       168

      Integral cutoff                 1.00e-12
      Number of threads:                 1

	Batch   1 pq = [       0,    9405] index = [             0,44231715] size =     44231715
	Batch   2 pq = [    9405,   13301] index = [      44231715,88464951] size =     44233236
	Batch   3 pq = [   13301,   14196] index = [      88464951,100770306] size =     12305355
  Task number: 10
  Buffer size: 11059200
  Buffer per thread: 2
  We computed 5996138 shell quartets total.
  Whereas there are 6374235 unique shell quartets.

  ==> DiskJK: Disk-Based J/K Matrices <==

    J tasked:                  Yes
    K tasked:                  Yes
    wK tasked:                  No
    Memory [MiB]:              375
    Schwarz Cutoff:          1E-12

    OpenMP threads:              1

  Minimum eigenvalue in the overlap matrix is 3.6148752591E-03.
  Using Symmetric Orthogonalization.

  SCF Guess: Superposition of Atomic Densities via on-the-fly atomic UHF.

  ==> Iterations <==

                        Total Energy        Delta E     RMS |[F,P]|

   @RHF iter SAD:  -322.11893749129115   -3.22119e+02   0.00000e+00
   @RHF iter   1:  -322.61454388228645   -4.95606e-01   3.41625e-03 DIIS
   @RHF iter   2:  -322.78670349519848   -1.72160e-01   1.34396e-03 DIIS
   @RHF iter   3:  -322.81197124297250   -2.52677e-02   3.18569e-04 DIIS
   @RHF iter   4:  -322.81436794370217   -2.39670e-03   4.90829e-05 DIIS
   @RHF iter   5:  -322.81442739555087   -5.94518e-05   2.01168e-05 DIIS
   @RHF iter   6:  -322.81443543945574   -8.04390e-06   4.19450e-06 DIIS
   @RHF iter   7:  -322.81443603060876   -5.91153e-07   1.46558e-06 DIIS
   @RHF iter   8:  -322.81443607891930   -4.83105e-08   4.47790e-07 DIIS
   @RHF iter   9:  -322.81443608380260   -4.88330e-09   1.04038e-07 DIIS
   @RHF iter  10:  -322.81443608410473   -3.02123e-10   3.14410e-08 DIIS
   @RHF iter  11:  -322.81443608413173   -2.70006e-11   9.05503e-09 DIIS
   @RHF iter  12:  -322.81443608413372   -1.98952e-12   3.32512e-09 DIIS
   @RHF iter  13:  -322.81443608413366    5.68434e-14   1.29307e-09 DIIS
   @RHF iter  14:  -322.81443608413480   -1.13687e-12   3.24058e-10 DIIS
   @RHF iter  15:  -322.81443608413571   -9.09495e-13   6.72029e-11 DIIS
  Energy and wave function converged.

  ==> Post-Iterations <==

    Orbital Energies [Eh]
    ---------------------

    Doubly Occupied:

       1A    -15.789770     2A    -15.788144     3A    -15.787833
       4A    -11.589491     5A    -11.443941     6A    -11.333908
       7A    -11.327273     8A     -1.547081     9A     -1.402404
      10A     -1.392278    11A     -1.142189    12A     -1.130690
      13A     -1.038154    14A     -0.980944    15A     -0.950130
      16A     -0.936998    17A     -0.865117    18A     -0.858295
      19A     -0.822974    20A     -0.791923    21A     -0.745420
      22A     -0.726452    23A     -0.711053    24A     -0.709515
      25A     -0.619104    26A     -0.612330    27A     -0.600870
      28A     -0.597775    29A     -0.583655

    Virtual:

      30A     -0.012701    31A      0.018679    32A      0.021838
      33A      0.031336    34A      0.058243    35A      0.075608
      36A      0.089513    37A      0.109941    38A      0.117616
      39A      0.138545    40A      0.148200    41A      0.166446
      42A      0.171584    43A      0.183778    44A      0.192876
      45A      0.205600    46A      0.281549    47A      0.282304
      48A      0.332618    49A      0.341549    50A      0.424737
      51A      0.435153    52A      0.477075    53A      0.484459
      54A      0.490744    55A      0.514351    56A      0.522654
      57A      0.527144    58A      0.550134    59A      0.555828
      60A      0.571088    61A      0.598586    62A      0.629959
      63A      0.678766    64A      0.683166    65A      0.697013
      66A      0.713736    67A      0.731817    68A      0.747295
      69A      0.752433    70A      0.760049    71A      0.782123
      72A      0.784813    73A      0.795631    74A      0.801177
      75A      0.811476    76A      0.824829    77A      0.845578
      78A      0.875088    79A      0.898507    80A      0.910672
      81A      0.930878    82A      0.944980    83A      1.008830
      84A      1.016135    85A      1.032422    86A      1.051780
      87A      1.100840    88A      1.132226    89A      1.143365
      90A      1.161750    91A      1.194083    92A      1.206846
      93A      1.248164    94A      1.298683    95A      1.359490
      96A      1.365798    97A      1.378759    98A      1.444390
      99A      1.458408   100A      1.492360   101A      1.531792
     102A      1.546048   103A      1.573754   104A      1.578131
     105A      1.598827   106A      1.604637   107A      1.664890
     108A      1.683556   109A      1.708687   110A      1.727749
     111A      1.736570   112A      1.747357   113A      1.753009
     114A      1.768949   115A      1.781299   116A      1.787259
     117A      1.800858   118A      1.821924   119A      1.833420
     120A      1.841218   121A      1.845597   122A      1.852931
     123A      1.879365   124A      1.882158   125A      1.890981
     126A      1.970247   127A      1.996644   128A      1.997623
     129A      2.010525   130A      2.026671   131A      2.127480
     132A      2.145239   133A      2.160214   134A      2.186651
     135A      2.205994   136A      2.226702   137A      2.253807
     138A      2.290093   139A      2.329486   140A      2.342889
     141A      2.349136   142A      2.352129   143A      2.368913
     144A      2.432678   145A      2.449082   146A      2.459139
     147A      2.463048   148A      2.530965   149A      2.575076
     150A      2.590186   151A      2.632786   152A      2.657898
     153A      2.679744   154A      2.704460   155A      2.735725
     156A      2.745452   157A      2.753681   158A      2.781507
     159A      2.810701   160A      2.837830   161A      2.851479
     162A      2.859179   163A      2.902320   164A      3.043368
     165A      3.089704   166A      3.129986   167A      3.553148
     168A      3.634998

    Final Occupation by Irrep:
              A
    DOCC [    29 ]

  @RHF Final Energy:  -322.81443608413571

   => Energetics <=

    Nuclear Repulsion Energy =            325.9865030706925495
    One-Electron Energy =               -1071.9504558567796266
    Two-Electron Energy =                 423.1495167019513133
    Total Energy =                       -322.8144360841357070

Computation Completed

Properties will be evaluated at   0.000000,   0.000000,   0.000000 [a0]

Properties computed using the SCF density matrix

  Nuclear Dipole Moment: [e a0]
     X:     2.6898      Y:     4.9852      Z:     3.9517

  Electronic Dipole Moment: [e a0]
     X:    -3.3717      Y:    -6.5573      Z:    -5.0577

  Dipole Moment: [e a0]
     X:    -0.6819      Y:    -1.5720      Z:    -1.1060     Total:     2.0395

  Dipole Moment: [D]
     X:    -1.7333      Y:    -3.9957      Z:    -2.8113     Total:     5.1840

*** tstop() called on ds3 at Mon Apr 27 10:56:07 2020
Module time:
	user time   =      35.20 seconds =       0.59 minutes
	system time =      12.24 seconds =       0.20 minutes
	total time  =        313 seconds =       5.22 minutes
Total time:
	user time   =      35.20 seconds =       0.59 minutes
	system time =      12.24 seconds =       0.20 minutes
	total time  =        313 seconds =       5.22 minutes
                                     G D M A

                                 by Anthony Stone

                           version 2.2.06, 22 June 2011

               Distributed Multipoles from Gaussian wavefunctions

Starting at 10:56:7 on 27 Apr 2020

Using SCF density matrix from file ./SSI/SSI-089ARG-131VAL-1-dimer.test.2739.fchk

                         Distributed Multipole Analysis

Standard DMA

Positions and radii in angstrom
Multipole moments in atomic units, ea_0^k for rank k

C          x =  1.736563  y = -1.713693  z = -0.839592 angstrom
           Maximum rank =  0   Radius =  0.650 angstrom
                   Q00  =  -0.123857

C          x = -0.557437  y = -0.815693  z = -0.600592 angstrom
           Maximum rank =  0   Radius =  0.650 angstrom
                   Q00  =   1.080241

N          x =  0.689563  y = -0.700693  z = -1.030592 angstrom
           Maximum rank =  0   Radius =  0.650 angstrom
                   Q00  =  -0.494264

N          x = -0.952437  y = -1.900693  z =  0.040408 angstrom
           Maximum rank =  0   Radius =  0.650 angstrom
                   Q00  =  -0.587644

N          x = -1.405437  y =  0.174307  z = -0.779592 angstrom
           Maximum rank =  0   Radius =  0.650 angstrom
                   Q00  =  -0.595413

H          x =  0.940563  y =  0.150307  z = -1.523592 angstrom
           Maximum rank =  0   Radius =  0.325 angstrom
                   Q00  =   0.241455

H          x = -0.326437  y = -2.677693  z =  0.162408 angstrom
           Maximum rank =  0   Radius =  0.325 angstrom
                   Q00  =   0.271711

H          x = -1.896437  y = -1.942693  z =  0.407408 angstrom
           Maximum rank =  0   Radius =  0.325 angstrom
                   Q00  =   0.268985

H          x = -1.091437  y =  1.045307  z = -1.175592 angstrom
           Maximum rank =  0   Radius =  0.325 angstrom
                   Q00  =   0.269524

H          x = -2.406437  y = -0.029693  z = -0.721592 angstrom
           Maximum rank =  0   Radius =  0.325 angstrom
                   Q00  =   0.268278

H          x =  2.372563  y = -1.732693  z = -1.725592 angstrom
           Maximum rank =  0   Radius =  0.325 angstrom
                   Q00  =   0.156113

H          x =  1.322563  y = -2.716693  z = -0.721592 angstrom
           Maximum rank =  0   Radius =  0.325 angstrom
                   Q00  =   0.111434

H          x =  2.351743  y = -1.453453  z =  0.034378 angstrom
           Maximum rank =  0   Radius =  0.325 angstrom
                   Q00  =   0.134459

C          x =  0.923563  y =  2.181307  z =  1.303408 angstrom
           Maximum rank =  0   Radius =  0.650 angstrom
                   Q00  =  -0.231251

C          x = -0.396437  y =  2.734307  z =  1.848408 angstrom
           Maximum rank =  0   Radius =  0.650 angstrom
                   Q00  =  -0.235078

H          x =  1.751563  y =  2.846307  z =  1.540408 angstrom
           Maximum rank =  0   Radius =  0.325 angstrom
                   Q00  =   0.114286

H          x =  1.120563  y =  1.210307  z =  1.759408 angstrom
           Maximum rank =  0   Radius =  0.325 angstrom
                   Q00  =   0.070626

H          x =  0.876563  y =  2.041307  z =  0.225408 angstrom
           Maximum rank =  0   Radius =  0.325 angstrom
                   Q00  =   0.025447

H          x = -1.190437  y =  2.023307  z =  1.627408 angstrom
           Maximum rank =  0   Radius =  0.325 angstrom
                   Q00  =   0.053895

H          x = -0.631987  y =  3.701397  z =  1.380158 angstrom
           Maximum rank =  0   Radius =  0.325 angstrom
                   Q00  =   0.093722

H          x = -0.328927  y =  2.844907  z =  2.940748 angstrom
           Maximum rank =  0   Radius =  0.325 angstrom
                   Q00  =   0.107330

Total multipoles referred to origin at
           x =   0.000000,  y =    0.000000,  z =    0.000000 angstrom
                   Q00  =   1.000000

Finished at 10:56:7 on 27 Apr 2020

  DMA results are available in the Python driver through the
	  variable('DMA DISTRIBUTED MULTIPOLES')
  and
	  variable('DMA TOTAL MULTIPOLES')
  commands.

    Psi4 stopped on: Monday, 27 April 2020 10:56AM
    Psi4 wall time for execution: 0:05:12.80

*** Psi4 exiting successfully. Buy a developer a beer!
