                               Psi4 1.3.2 release

  ==> Input File <==

--------------------------------------------------------------------------
import numpy as np
set {scf_type pk
basis cc-pvdz
d_convergence 10
gdma_switch   0
gdma_limit    0
gdma_origin   [ 0.0,  0.0,  0.0 ]
}
molecule test {
    units Angstrom
    0 1
    --
    0 1
    C                0.801483923288562     2.138923853565712    -0.815586473582825
    C               -0.581516076711438     2.398923853565712    -1.371586473582825
    H                1.513483923288562     2.871923853565712    -1.194586473582825
    H                0.777483923288562     2.206923853565712     0.271413526417175
    H                1.131483923288563     1.139923853565712    -1.093586473582825
    H               -1.295516076711438     1.792923853565712    -0.819586473582825
    H               -0.668526076711438     2.177840853565712    -2.445626473582825
    H               -0.856866076711438     3.455603853565712    -1.238926473582825
    C                0.207483923288562    -1.108076146434288     0.510413526417175
    C               -0.758516076711438    -2.023076146434288    -0.273586473582825
    C                0.344483923288562    -1.485076146434288     1.983413526417175
    H                1.187483923288562    -1.146076146434288     0.032413526417175
    H               -0.168516076711438    -0.088076146434288     0.455413526417175
    H               -0.735516076711438    -1.725076146434288    -1.324586473582825
    H               -0.629516076711438    -1.411076146434288     2.470413526417175
    H                0.696483923288562    -2.513076146434288     2.072413526417175
    H               -1.783126076711438    -1.924066146434288     0.114203526417175
    H               -0.390736076711438    -3.057964146434288    -0.212406473582825
    H                1.062113923288562    -0.846463146434288     2.519303526417175

}
e, wfn = energy('scf', return_wfn=True)
gdma(wfn)
dmavals = variable('DMA DISTRIBUTED MULTIPOLES')
charges = np.array(dmavals)
print(charges)
np.save('SSI-170THR-180GLU-1-dimer.npy', np.array(charges))--------------------------------------------------------------------------

*** tstart() called on ds3
*** at Sun Apr 26 18:02:35 2020

   => Loading Basis Set <=

    Name: CC-PVDZ
    Role: ORBITAL
    Keyword: BASIS
    atoms 1-2, 9-11  entry C          line   138 file /theoryfs2/ds/metcalf/miniconda2/envs/tf2gpu/share/psi4/basis/cc-pvdz.gbs
    atoms 3-8, 12-19 entry H          line    22 file /theoryfs2/ds/metcalf/miniconda2/envs/tf2gpu/share/psi4/basis/cc-pvdz.gbs

         ---------------------------------------------------------
                                   SCF
               by Justin Turney, Rob Parrish, Andy Simmonett
                          and Daniel G. A. Smith
                              RHF Reference
                        1 Threads,    500 MiB Core
         ---------------------------------------------------------

  ==> Geometry <==

    Molecular point group: c1
    Full point group: C1

    Geometry (in Angstrom), charge = 0, multiplicity = 1:

       Center              X                  Y                   Z               Mass
    ------------   -----------------  -----------------  -----------------  -----------------
         C            0.801483923289     2.138923853566    -0.815586473583    12.000000000000
         C           -0.581516076711     2.398923853566    -1.371586473583    12.000000000000
         H            1.513483923289     2.871923853566    -1.194586473583     1.007825032230
         H            0.777483923289     2.206923853566     0.271413526417     1.007825032230
         H            1.131483923289     1.139923853566    -1.093586473583     1.007825032230
         H           -1.295516076711     1.792923853566    -0.819586473583     1.007825032230
         H           -0.668526076711     2.177840853566    -2.445626473583     1.007825032230
         H           -0.856866076711     3.455603853566    -1.238926473583     1.007825032230
         C            0.207483923289    -1.108076146434     0.510413526417    12.000000000000
         C           -0.758516076711    -2.023076146434    -0.273586473583    12.000000000000
         C            0.344483923289    -1.485076146434     1.983413526417    12.000000000000
         H            1.187483923289    -1.146076146434     0.032413526417     1.007825032230
         H           -0.168516076711    -0.088076146434     0.455413526417     1.007825032230
         H           -0.735516076711    -1.725076146434    -1.324586473583     1.007825032230
         H           -0.629516076711    -1.411076146434     2.470413526417     1.007825032230
         H            0.696483923289    -2.513076146434     2.072413526417     1.007825032230
         H           -1.783126076711    -1.924066146434     0.114203526417     1.007825032230
         H           -0.390736076711    -3.057964146434    -0.212406473583     1.007825032230
         H            1.062113923289    -0.846463146434     2.519303526417     1.007825032230

  Running in c1 symmetry.

  Rotational constants: A =      0.20144  B =      0.04741  C =      0.04161 [cm^-1]
  Rotational constants: A =   6038.95158  B =   1421.19242  C =   1247.58556 [MHz]
  Nuclear repulsion =  181.292183312181209

  Charge       = 0
  Multiplicity = 1
  Electrons    = 44
  Nalpha       = 22
  Nbeta        = 22

  ==> Algorithm <==

  SCF Algorithm Type is PK.
  DIIS enabled.
  MOM disabled.
  Fractional occupation disabled.
  Guess Type is SAD.
  Energy threshold   = 1.00e-06
  Density threshold  = 1.00e-10
  Integral threshold = 0.00e+00

  ==> Primary Basis <==

  Basis Set: CC-PVDZ
    Blend: CC-PVDZ
    Number of shells: 72
    Number of basis function: 140
    Number of Cartesian functions: 145
    Spherical Harmonics?: true
    Max angular momentum: 2

  ==> Pre-Iterations <==

   -------------------------------------------------------
    Irrep   Nso     Nmo     Nalpha   Nbeta   Ndocc  Nsocc
   -------------------------------------------------------
     A        140     140       0       0       0       0
   -------------------------------------------------------
    Total     140     140      22      22      22       0
   -------------------------------------------------------

  ==> Integral Setup <==

  Using integral reordering PK algorithm.
  Sizing the integral batches needed.
  Building batch lookup table.
   Calculation information:
      Number of atoms:                  19
      Number of AO shells:              72
      Number of primitives:            180
      Number of atomic orbitals:       145
      Number of basis functions:       140

      Integral cutoff                 1.00e-12
      Number of threads:                 1

	Batch   1 pq = [       0,    9405] index = [             0,44231715] size =     44231715
	Batch   2 pq = [    9405,    9870] index = [      44231715,48713385] size =      4481670
  Task number: 5
  Buffer size: 11059200
  Buffer per thread: 2
  We computed 3061855 shell quartets total.
  Whereas there are 3454506 unique shell quartets.

  ==> DiskJK: Disk-Based J/K Matrices <==

    J tasked:                  Yes
    K tasked:                  Yes
    wK tasked:                  No
    Memory [MiB]:              375
    Schwarz Cutoff:          1E-12

    OpenMP threads:              1

  Minimum eigenvalue in the overlap matrix is 5.4993918777E-03.
  Using Symmetric Orthogonalization.

  SCF Guess: Superposition of Atomic Densities via on-the-fly atomic UHF.

  ==> Iterations <==

                        Total Energy        Delta E     RMS |[F,P]|

   @RHF iter SAD:  -196.37896159177933   -1.96379e+02   0.00000e+00
   @RHF iter   1:  -197.31063115421037   -9.31670e-01   3.80116e-03 DIIS
   @RHF iter   2:  -197.47110791463714   -1.60477e-01   1.63506e-03 DIIS
   @RHF iter   3:  -197.49937798868322   -2.82701e-02   3.26214e-04 DIIS
   @RHF iter   4:  -197.50161771712408   -2.23973e-03   4.78264e-05 DIIS
   @RHF iter   5:  -197.50165573244666   -3.80153e-05   1.47971e-05 DIIS
   @RHF iter   6:  -197.50165904295736   -3.31051e-06   2.39865e-06 DIIS
   @RHF iter   7:  -197.50165914819522   -1.05238e-07   4.57799e-07 DIIS
   @RHF iter   8:  -197.50165915255050   -4.35529e-09   1.22938e-07 DIIS
   @RHF iter   9:  -197.50165915284026   -2.89759e-10   3.73677e-08 DIIS
   @RHF iter  10:  -197.50165915287261   -3.23439e-11   8.19172e-09 DIIS
   @RHF iter  11:  -197.50165915287334   -7.38964e-13   1.56763e-09 DIIS
   @RHF iter  12:  -197.50165915287363   -2.84217e-13   3.17557e-10 DIIS
   @RHF iter  13:  -197.50165915287380   -1.70530e-13   7.06268e-11 DIIS
  Energy and wave function converged.

  ==> Post-Iterations <==

    Orbital Energies [Eh]
    ---------------------

    Doubly Occupied:

       1A    -11.219914     2A    -11.219277     3A    -11.217836
       4A    -11.215879     5A    -11.214933     6A     -1.050963
       7A     -1.021845     8A     -0.923798     9A     -0.837291
      10A     -0.795940    11A     -0.628257    12A     -0.603590
      13A     -0.597410    14A     -0.589022    15A     -0.545032
      16A     -0.534135    17A     -0.507044    18A     -0.485932
      19A     -0.483294    20A     -0.471776    21A     -0.470834
      22A     -0.461594

    Virtual:

      23A      0.167990    24A      0.199858    25A      0.213345
      26A      0.214205    27A      0.242583    28A      0.252194
      29A      0.254787    30A      0.265606    31A      0.275226
      32A      0.288156    33A      0.294637    34A      0.305593
      35A      0.328065    36A      0.349586    37A      0.376036
      38A      0.399097    39A      0.430484    40A      0.564491
      41A      0.586415    42A      0.597857    43A      0.607177
      44A      0.609977    45A      0.619567    46A      0.624165
      47A      0.670270    48A      0.692780    49A      0.792305
      50A      0.798083    51A      0.813049    52A      0.852117
      53A      0.859547    54A      0.873828    55A      0.879235
      56A      0.890322    57A      0.895381    58A      0.897464
      59A      0.902547    60A      0.903956    61A      0.913216
      62A      0.919298    63A      0.937912    64A      0.950092
      65A      0.965475    66A      0.980887    67A      0.982404
      68A      1.034736    69A      1.120318    70A      1.123337
      71A      1.130445    72A      1.168088    73A      1.230044
      74A      1.237955    75A      1.376484    76A      1.469215
      77A      1.470491    78A      1.483473    79A      1.490195
      80A      1.521717    81A      1.594420    82A      1.620050
      83A      1.674918    84A      1.684787    85A      1.693561
      86A      1.697605    87A      1.725854    88A      1.860951
      89A      1.863362    90A      1.875532    91A      1.880565
      92A      1.890601    93A      1.898664    94A      1.914118
      95A      1.923158    96A      1.932898    97A      1.949788
      98A      1.953681    99A      1.959862   100A      1.967006
     101A      1.970065   102A      1.974430   103A      1.986742
     104A      1.992413   105A      2.010747   106A      2.022443
     107A      2.059491   108A      2.116544   109A      2.127762
     110A      2.137356   111A      2.164393   112A      2.286714
     113A      2.298674   114A      2.322620   115A      2.324333
     116A      2.330168   117A      2.339048   118A      2.448614
     119A      2.461216   120A      2.501358   121A      2.539543
     122A      2.563170   123A      2.578583   124A      2.584097
     125A      2.617228   126A      2.626865   127A      2.753675
     128A      2.758986   129A      2.765198   130A      2.783243
     131A      2.797107   132A      2.814323   133A      2.862950
     134A      2.870958   135A      2.908068   136A      2.953085
     137A      2.962123   138A      2.967011   139A      3.007564
     140A      3.090820

    Final Occupation by Irrep:
              A
    DOCC [    22 ]

  @RHF Final Energy:  -197.50165915287380

   => Energetics <=

    Nuclear Repulsion Energy =            181.2921833121812085
    One-Electron Energy =                -623.3964957717030302
    Two-Electron Energy =                 244.6026533066479942
    Total Energy =                       -197.5016591528737990

Computation Completed

Properties will be evaluated at   0.000000,   0.000000,   0.000000 [a0]

Properties computed using the SCF density matrix

  Nuclear Dipole Moment: [e a0]
     X:    -0.1498      Y:     0.8749      Z:    -0.3691

  Electronic Dipole Moment: [e a0]
     X:     0.1754      Y:    -0.8504      Z:     0.3560

  Dipole Moment: [e a0]
     X:     0.0257      Y:     0.0245      Z:    -0.0131     Total:     0.0378

  Dipole Moment: [D]
     X:     0.0652      Y:     0.0622      Z:    -0.0334     Total:     0.0961

*** tstop() called on ds3 at Sun Apr 26 18:02:55 2020
Module time:
	user time   =      15.23 seconds =       0.25 minutes
	system time =       5.57 seconds =       0.09 minutes
	total time  =         20 seconds =       0.33 minutes
Total time:
	user time   =      15.23 seconds =       0.25 minutes
	system time =       5.57 seconds =       0.09 minutes
	total time  =         20 seconds =       0.33 minutes
                                     G D M A

                                 by Anthony Stone

                           version 2.2.06, 22 June 2011

               Distributed Multipoles from Gaussian wavefunctions

Starting at 18:2:55 on 26 Apr 2020

Using SCF density matrix from file ./SSI/SSI-170THR-180GLU-1-dimer.test.17539.fchk

                         Distributed Multipole Analysis

Standard DMA

Positions and radii in angstrom
Multipole moments in atomic units, ea_0^k for rank k

C          x =  0.801484  y =  2.138924  z = -0.815586 angstrom
           Maximum rank =  0   Radius =  0.650 angstrom
                   Q00  =  -0.219884

C          x = -0.581516  y =  2.398924  z = -1.371586 angstrom
           Maximum rank =  0   Radius =  0.650 angstrom
                   Q00  =  -0.243013

H          x =  1.513484  y =  2.871924  z = -1.194586 angstrom
           Maximum rank =  0   Radius =  0.325 angstrom
                   Q00  =   0.078129

H          x =  0.777484  y =  2.206924  z =  0.271414 angstrom
           Maximum rank =  0   Radius =  0.325 angstrom
                   Q00  =   0.076297

H          x =  1.131484  y =  1.139924  z = -1.093586 angstrom
           Maximum rank =  0   Radius =  0.325 angstrom
                   Q00  =   0.081668

H          x = -1.295516  y =  1.792924  z = -0.819586 angstrom
           Maximum rank =  0   Radius =  0.325 angstrom
                   Q00  =   0.075166

H          x = -0.668526  y =  2.177841  z = -2.445626 angstrom
           Maximum rank =  0   Radius =  0.325 angstrom
                   Q00  =   0.079261

H          x = -0.856866  y =  3.455604  z = -1.238926 angstrom
           Maximum rank =  0   Radius =  0.325 angstrom
                   Q00  =   0.075243

C          x =  0.207484  y = -1.108076  z =  0.510414 angstrom
           Maximum rank =  0   Radius =  0.650 angstrom
                   Q00  =  -0.066019

C          x = -0.758516  y = -2.023076  z = -0.273586 angstrom
           Maximum rank =  0   Radius =  0.650 angstrom
                   Q00  =  -0.256588

C          x =  0.344484  y = -1.485076  z =  1.983414 angstrom
           Maximum rank =  0   Radius =  0.650 angstrom
                   Q00  =  -0.249131

H          x =  1.187484  y = -1.146076  z =  0.032414 angstrom
           Maximum rank =  0   Radius =  0.325 angstrom
                   Q00  =   0.046409

H          x = -0.168516  y = -0.088076  z =  0.455414 angstrom
           Maximum rank =  0   Radius =  0.325 angstrom
                   Q00  =   0.045736

H          x = -0.735516  y = -1.725076  z = -1.324586 angstrom
           Maximum rank =  0   Radius =  0.325 angstrom
                   Q00  =   0.084292

H          x = -0.629516  y = -1.411076  z =  2.470414 angstrom
           Maximum rank =  0   Radius =  0.325 angstrom
                   Q00  =   0.075651

H          x =  0.696484  y = -2.513076  z =  2.072414 angstrom
           Maximum rank =  0   Radius =  0.325 angstrom
                   Q00  =   0.075389

H          x = -1.783126  y = -1.924066  z =  0.114204 angstrom
           Maximum rank =  0   Radius =  0.325 angstrom
                   Q00  =   0.079861

H          x = -0.390736  y = -3.057964  z = -0.212406 angstrom
           Maximum rank =  0   Radius =  0.325 angstrom
                   Q00  =   0.077496

H          x =  1.062114  y = -0.846463  z =  2.519304 angstrom
           Maximum rank =  0   Radius =  0.325 angstrom
                   Q00  =   0.084038

Total multipoles referred to origin at
           x =   0.000000,  y =    0.000000,  z =    0.000000 angstrom
                   Q00  =  -0.000000

Finished at 18:2:55 on 26 Apr 2020

  DMA results are available in the Python driver through the
	  variable('DMA DISTRIBUTED MULTIPOLES')
  and
	  variable('DMA TOTAL MULTIPOLES')
  commands.

    Psi4 stopped on: Sunday, 26 April 2020 06:02PM
    Psi4 wall time for execution: 0:00:20.68

*** Psi4 exiting successfully. Buy a developer a beer!
