                               Psi4 1.3.2 release

  ==> Input File <==

--------------------------------------------------------------------------
import numpy as np
set {scf_type pk
basis cc-pvdz
d_convergence 10
gdma_switch   0
gdma_limit    0
gdma_origin   [ 0.0,  0.0,  0.0 ]
}
molecule test {
    units Angstrom
    0 1
    --
    0 1
    C                0.546101180476412    -3.245073179347219     2.269290106434624
    C                2.316101180476412    -0.736073179347218    -0.042709893565377
    C                1.664101180476412    -1.290073179347218     1.059290106434623
    C                2.424101180476412    -1.466073179347218    -1.229709893565377
    C                1.196101180476412    -2.611073179347219     1.037290106434623
    C                1.963101180476412    -2.799073179347219    -1.285709893565377
    C                1.282101180476412    -3.341073179347219    -0.155709893565377
    H                2.680101180476412     0.276926820652782     0.004290106434623
    H                1.569101180476412    -0.705073179347218     1.963290106434623
    H                2.910101180476412    -1.027073179347218    -2.089709893565376
    H                2.069101180476412    -3.378073179347218    -2.193709893565376
    H                1.263101180476412    -3.158073179347219     3.087290106434623
    H                0.375101180476412    -4.310073179347218     2.102290106434623
    H                0.895101180476412    -4.350073179347219    -0.202709893565377
    H               -0.392362819523588    -2.764779179347219     2.583300106434624
    C               -2.751898819523588     1.086926820652782     1.570290106434624
    C               -1.065898819523588     1.115926820652782    -0.327709893565377
    C               -2.047898819523588     1.778926820652782     0.426290106434623
    C               -0.438898819523588     1.774926820652782    -1.373709893565377
    C               -2.357898819523588     3.113926820652781     0.136290106434623
    C               -0.750898819523588     3.104926820652781    -1.665709893565377
    C               -1.712898819523588     3.788926820652782    -0.914709893565377
    H               -0.808898819523588     0.087926820652782    -0.109709893565377
    H                0.315101180476412     1.259926820652782    -1.948709893565377
    H               -2.679898819523588     1.701926820652782     2.469290106434624
    H               -2.235898819523588     0.150926820652782     1.776290106434623
    H               -3.107898819523588     3.628926820652781     0.718290106434623
    H               -0.234898819523588     3.592926820652781    -2.477709893565377
    H               -1.961898819523588     4.817926820652782    -1.134709893565377
    H               -3.815322819523588     0.889810820652782     1.369600106434623

}
e, wfn = energy('scf', return_wfn=True)
gdma(wfn)
dmavals = variable('DMA DISTRIBUTED MULTIPOLES')
charges = np.array(dmavals)
print(charges)
np.save('SSI-106PHE-109PHE-1-dimer.npy', np.array(charges))--------------------------------------------------------------------------

*** tstart() called on ds3
*** at Tue Apr 28 21:55:48 2020

   => Loading Basis Set <=

    Name: CC-PVDZ
    Role: ORBITAL
    Keyword: BASIS
    atoms 1-7, 16-22  entry C          line   138 file /theoryfs2/ds/metcalf/miniconda2/envs/tf2gpu/share/psi4/basis/cc-pvdz.gbs
    atoms 8-15, 23-30 entry H          line    22 file /theoryfs2/ds/metcalf/miniconda2/envs/tf2gpu/share/psi4/basis/cc-pvdz.gbs

         ---------------------------------------------------------
                                   SCF
               by Justin Turney, Rob Parrish, Andy Simmonett
                          and Daniel G. A. Smith
                              RHF Reference
                        1 Threads,    500 MiB Core
         ---------------------------------------------------------

  ==> Geometry <==

    Molecular point group: c1
    Full point group: C1

    Geometry (in Angstrom), charge = 0, multiplicity = 1:

       Center              X                  Y                   Z               Mass
    ------------   -----------------  -----------------  -----------------  -----------------
         C            0.546101180476    -3.245073179347     2.269290106435    12.000000000000
         C            2.316101180476    -0.736073179347    -0.042709893565    12.000000000000
         C            1.664101180476    -1.290073179347     1.059290106435    12.000000000000
         C            2.424101180476    -1.466073179347    -1.229709893565    12.000000000000
         C            1.196101180476    -2.611073179347     1.037290106435    12.000000000000
         C            1.963101180476    -2.799073179347    -1.285709893565    12.000000000000
         C            1.282101180476    -3.341073179347    -0.155709893565    12.000000000000
         H            2.680101180476     0.276926820653     0.004290106435     1.007825032230
         H            1.569101180476    -0.705073179347     1.963290106435     1.007825032230
         H            2.910101180476    -1.027073179347    -2.089709893565     1.007825032230
         H            2.069101180476    -3.378073179347    -2.193709893565     1.007825032230
         H            1.263101180476    -3.158073179347     3.087290106435     1.007825032230
         H            0.375101180476    -4.310073179347     2.102290106435     1.007825032230
         H            0.895101180476    -4.350073179347    -0.202709893565     1.007825032230
         H           -0.392362819524    -2.764779179347     2.583300106435     1.007825032230
         C           -2.751898819524     1.086926820653     1.570290106435    12.000000000000
         C           -1.065898819524     1.115926820653    -0.327709893565    12.000000000000
         C           -2.047898819524     1.778926820653     0.426290106435    12.000000000000
         C           -0.438898819524     1.774926820653    -1.373709893565    12.000000000000
         C           -2.357898819524     3.113926820653     0.136290106435    12.000000000000
         C           -0.750898819524     3.104926820653    -1.665709893565    12.000000000000
         C           -1.712898819524     3.788926820653    -0.914709893565    12.000000000000
         H           -0.808898819524     0.087926820653    -0.109709893565     1.007825032230
         H            0.315101180476     1.259926820653    -1.948709893565     1.007825032230
         H           -2.679898819524     1.701926820653     2.469290106435     1.007825032230
         H           -2.235898819524     0.150926820653     1.776290106435     1.007825032230
         H           -3.107898819524     3.628926820653     0.718290106435     1.007825032230
         H           -0.234898819524     3.592926820653    -2.477709893565     1.007825032230
         H           -1.961898819524     4.817926820653    -1.134709893565     1.007825032230
         H           -3.815322819524     0.889810820653     1.369600106435     1.007825032230

  Running in c1 symmetry.

  Rotational constants: A =      0.03690  B =      0.01052  C =      0.00876 [cm^-1]
  Rotational constants: A =   1106.32569  B =    315.38551  C =    262.72048 [MHz]
  Nuclear repulsion =  766.423423357223214

  Charge       = 0
  Multiplicity = 1
  Electrons    = 100
  Nalpha       = 50
  Nbeta        = 50

  ==> Algorithm <==

  SCF Algorithm Type is PK.
  DIIS enabled.
  MOM disabled.
  Fractional occupation disabled.
  Guess Type is SAD.
  Energy threshold   = 1.00e-06
  Density threshold  = 1.00e-10
  Integral threshold = 0.00e+00

  ==> Primary Basis <==

  Basis Set: CC-PVDZ
    Blend: CC-PVDZ
    Number of shells: 132
    Number of basis function: 276
    Number of Cartesian functions: 290
    Spherical Harmonics?: true
    Max angular momentum: 2

  ==> Pre-Iterations <==

   -------------------------------------------------------
    Irrep   Nso     Nmo     Nalpha   Nbeta   Ndocc  Nsocc
   -------------------------------------------------------
     A        276     276       0       0       0       0
   -------------------------------------------------------
    Total     276     276      50      50      50       0
   -------------------------------------------------------

  ==> Integral Setup <==

  Using integral reordering PK algorithm.
  Sizing the integral batches needed.
  Building batch lookup table.
   Calculation information:
      Number of atoms:                  30
      Number of AO shells:             132
      Number of primitives:            388
      Number of atomic orbitals:       290
      Number of basis functions:       276

      Integral cutoff                 1.00e-12
      Number of threads:                 1

	Batch   1 pq = [       0,    9405] index = [             0,44231715] size =     44231715
	Batch   2 pq = [    9405,   13301] index = [      44231715,88464951] size =     44233236
	Batch   3 pq = [   13301,   16290] index = [      88464951,132690195] size =     44225244
	Batch   4 pq = [   16290,   18810] index = [     132690195,176917455] size =     44227260
	Batch   5 pq = [   18810,   21030] index = [     176917455,221140965] size =     44223510
	Batch   6 pq = [   21030,   23037] index = [     221140965,265363203] size =     44222238
	Batch   7 pq = [   23037,   24883] index = [     265363203,309594286] size =     44231083
	Batch   8 pq = [   24883,   26601] index = [     309594286,353819901] size =     44225615
	Batch   9 pq = [   26601,   28214] index = [     353819901,398029005] size =     44209104
	Batch  10 pq = [   28214,   29740] index = [     398029005,442248670] size =     44219665
	Batch  11 pq = [   29740,   31191] index = [     442248670,486454836] size =     44206166
	Batch  12 pq = [   31191,   32578] index = [     486454836,530679331] size =     44224495
	Batch  13 pq = [   32578,   33908] index = [     530679331,574893186] size =     44213855
	Batch  14 pq = [   33908,   35188] index = [     574893186,619115266] size =     44222080
	Batch  15 pq = [   35188,   36423] index = [     619115266,663335676] size =     44220410
	Batch  16 pq = [   36423,   37617] index = [     663335676,707538153] size =     44202477
	Batch  17 pq = [   37617,   38226] index = [     707538153,730632651] size =     23094498
  Task number: 67
  Buffer size: 11059200
  Buffer per thread: 2
  We computed 35827803 shell quartets total.
  Whereas there are 38531031 unique shell quartets.

  ==> DiskJK: Disk-Based J/K Matrices <==

    J tasked:                  Yes
    K tasked:                  Yes
    wK tasked:                  No
    Memory [MiB]:              375
    Schwarz Cutoff:          1E-12

    OpenMP threads:              1

  Minimum eigenvalue in the overlap matrix is 3.1740062618E-04.
  Using Symmetric Orthogonalization.

  SCF Guess: Superposition of Atomic Densities via on-the-fly atomic UHF.

  ==> Iterations <==

                        Total Energy        Delta E     RMS |[F,P]|

   @RHF iter SAD:  -538.11600449746254   -5.38116e+02   0.00000e+00
   @RHF iter   1:  -539.23400908797532   -1.11800e+00   2.25900e-03 DIIS
   @RHF iter   2:  -539.47935435490911   -2.45345e-01   9.05239e-04 DIIS
   @RHF iter   3:  -539.51390476733241   -3.45504e-02   2.12083e-04 DIIS
   @RHF iter   4:  -539.51696535924941   -3.06059e-03   5.14879e-05 DIIS
   @RHF iter   5:  -539.51709398630362   -1.28627e-04   1.62343e-05 DIIS
   @RHF iter   6:  -539.51710669134832   -1.27050e-05   4.39073e-06 DIIS
   @RHF iter   7:  -539.51710781964584   -1.12830e-06   1.09310e-06 DIIS
   @RHF iter   8:  -539.51710793008886   -1.10443e-07   3.56556e-07 DIIS
   @RHF iter   9:  -539.51710795307713   -2.29883e-08   1.80258e-07 DIIS
   @RHF iter  10:  -539.51710795844303   -5.36591e-09   9.00015e-08 DIIS
   @RHF iter  11:  -539.51710796043346   -1.99043e-09   3.03869e-08 DIIS
   @RHF iter  12:  -539.51710796065322   -2.19757e-10   1.37072e-08 DIIS
   @RHF iter  13:  -539.51710796067505   -2.18279e-11   3.81953e-09 DIIS
   @RHF iter  14:  -539.51710796068085   -5.79803e-12   1.14004e-09 DIIS
   @RHF iter  15:  -539.51710796067641    4.43379e-12   5.97948e-10 DIIS
   @RHF iter  16:  -539.51710796068085   -4.43379e-12   2.63112e-10 DIIS
   @RHF iter  17:  -539.51710796067937    1.47793e-12   1.18930e-10 DIIS
   @RHF iter  18:  -539.51710796067732    2.04636e-12   4.94992e-11 DIIS
  Energy and wave function converged.

  ==> Post-Iterations <==

    Orbital Energies [Eh]
    ---------------------

    Doubly Occupied:

       1A    -11.247922     2A    -11.244889     3A    -11.239246
       4A    -11.238649     5A    -11.238173     6A    -11.237510
       7A    -11.234797     8A    -11.234762     9A    -11.234718
      10A    -11.229423    11A    -11.228482    12A    -11.228094
      13A    -11.226709    14A    -11.225217    15A     -1.147177
      16A     -1.143812    17A     -1.040888    18A     -1.037069
      19A     -1.008473    20A     -1.005599    21A     -0.931547
      22A     -0.925588    23A     -0.825733    24A     -0.818407
      25A     -0.795747    26A     -0.790092    27A     -0.689939
      28A     -0.684613    29A     -0.634861    30A     -0.627441
      31A     -0.626710    32A     -0.623745    33A     -0.583045
      34A     -0.579584    35A     -0.575461    36A     -0.571446
      37A     -0.561778    38A     -0.556280    39A     -0.538823
      40A     -0.532077    41A     -0.488837    42A     -0.485900
      43A     -0.480840    44A     -0.480393    45A     -0.478664
      46A     -0.475931    47A     -0.333034    48A     -0.324714
      49A     -0.323714    50A     -0.315504

    Virtual:

      51A      0.124819    52A      0.136060    53A      0.140266
      54A      0.146647    55A      0.165895    56A      0.187222
      57A      0.196698    58A      0.212095    59A      0.214015
      60A      0.228985    61A      0.240897    62A      0.245256
      63A      0.252680    64A      0.262146    65A      0.268515
      66A      0.274492    67A      0.279238    68A      0.291494
      69A      0.302756    70A      0.324565    71A      0.356677
      72A      0.366601    73A      0.374383    74A      0.380865
      75A      0.444350    76A      0.452119    77A      0.457740
      78A      0.462351    79A      0.466747    80A      0.479083
      81A      0.492962    82A      0.503678    83A      0.562321
      84A      0.568858    85A      0.588726    86A      0.603016
      87A      0.621008    88A      0.631479    89A      0.654903
      90A      0.674446    91A      0.688444    92A      0.692667
      93A      0.695016    94A      0.706694    95A      0.711832
      96A      0.717405    97A      0.723588    98A      0.734664
      99A      0.738445   100A      0.743280   101A      0.743940
     102A      0.745964   103A      0.750609   104A      0.753468
     105A      0.764976   106A      0.779148   107A      0.780919
     108A      0.788935   109A      0.799629   110A      0.806498
     111A      0.827650   112A      0.834938   113A      0.844020
     114A      0.857299   115A      0.861595   116A      0.866916
     117A      0.878663   118A      0.885735   119A      0.887106
     120A      0.892323   121A      0.893237   122A      0.896611
     123A      0.907291   124A      0.911732   125A      0.921913
     126A      0.934081   127A      0.943676   128A      0.949897
     129A      0.971091   130A      0.979808   131A      0.984145
     132A      1.012437   133A      1.026717   134A      1.036849
     135A      1.042477   136A      1.059601   137A      1.097107
     138A      1.118033   139A      1.127867   140A      1.137634
     141A      1.139631   142A      1.158598   143A      1.163839
     144A      1.175293   145A      1.194878   146A      1.200096
     147A      1.212805   148A      1.228005   149A      1.237261
     150A      1.239831   151A      1.244648   152A      1.254828
     153A      1.259343   154A      1.264947   155A      1.287002
     156A      1.300736   157A      1.308332   158A      1.310102
     159A      1.312118   160A      1.318984   161A      1.326052
     162A      1.341171   163A      1.413557   164A      1.425103
     165A      1.488194   166A      1.515410   167A      1.520165
     168A      1.537287   169A      1.546826   170A      1.557408
     171A      1.594170   172A      1.612176   173A      1.678682
     174A      1.681423   175A      1.685365   176A      1.699081
     177A      1.730336   178A      1.734172   179A      1.741602
     180A      1.746361   181A      1.757164   182A      1.765693
     183A      1.787450   184A      1.793781   185A      1.810218
     186A      1.814960   187A      1.848093   188A      1.858382
     189A      1.865472   190A      1.877907   191A      1.890394
     192A      1.893500   193A      1.902245   194A      1.906125
     195A      1.909546   196A      1.921087   197A      1.922778
     198A      1.925688   199A      1.931075   200A      1.938027
     201A      1.945969   202A      1.954218   203A      1.957409
     204A      1.965164   205A      1.969824   206A      1.985661
     207A      1.994534   208A      2.015473   209A      2.020905
     210A      2.030560   211A      2.039586   212A      2.054591
     213A      2.060650   214A      2.080542   215A      2.106832
     216A      2.111012   217A      2.117430   218A      2.127141
     219A      2.142349   220A      2.146598   221A      2.156326
     222A      2.165806   223A      2.169158   224A      2.175458
     225A      2.179241   226A      2.201162   227A      2.220232
     228A      2.247608   229A      2.259997   230A      2.272555
     231A      2.276027   232A      2.290885   233A      2.297918
     234A      2.303794   235A      2.314130   236A      2.326983
     237A      2.343677   238A      2.366394   239A      2.433556
     240A      2.445225   241A      2.453633   242A      2.478949
     243A      2.502092   244A      2.514693   245A      2.522626
     246A      2.533824   247A      2.611910   248A      2.629776
     249A      2.714850   250A      2.733497   251A      2.743190
     252A      2.755687   253A      2.759104   254A      2.767977
     255A      2.782769   256A      2.789309   257A      2.799279
     258A      2.822806   259A      2.838401   260A      2.846202
     261A      2.851357   262A      2.875398   263A      2.953060
     264A      2.961291   265A      2.971487   266A      2.994178
     267A      3.000070   268A      3.034563   269A      3.126270
     270A      3.151013   271A      3.168809   272A      3.198629
     273A      3.269230   274A      3.294286   275A      3.898076
     276A      3.953477

    Final Occupation by Irrep:
              A
    DOCC [    50 ]

  @RHF Final Energy:  -539.51710796067732

   => Energetics <=

    Nuclear Repulsion Energy =            766.4234233572232142
    One-Electron Energy =               -2249.2169435208361392
    Two-Electron Energy =                 943.2764122029354894
    Total Energy =                       -539.5171079606773219

Computation Completed

Properties will be evaluated at   0.000000,   0.000000,   0.000000 [a0]

Properties computed using the SCF density matrix

  Nuclear Dipole Moment: [e a0]
     X:    -2.9627      Y:    -3.0805      Z:     5.5470

  Electronic Dipole Moment: [e a0]
     X:     2.9413      Y:     2.8908      Z:    -5.3258

  Dipole Moment: [e a0]
     X:    -0.0214      Y:    -0.1897      Z:     0.2212     Total:     0.2922

  Dipole Moment: [D]
     X:    -0.0543      Y:    -0.4822      Z:     0.5623     Total:     0.7427

*** tstop() called on ds3 at Tue Apr 28 22:03:15 2020
Module time:
	user time   =     289.02 seconds =       4.82 minutes
	system time =     110.53 seconds =       1.84 minutes
	total time  =        447 seconds =       7.45 minutes
Total time:
	user time   =     289.02 seconds =       4.82 minutes
	system time =     110.53 seconds =       1.84 minutes
	total time  =        447 seconds =       7.45 minutes
                                     G D M A

                                 by Anthony Stone

                           version 2.2.06, 22 June 2011

               Distributed Multipoles from Gaussian wavefunctions

Starting at 22:3:16 on 28 Apr 2020

Using SCF density matrix from file ./SSI/SSI-106PHE-109PHE-1-dimer.test.4822.fchk

                         Distributed Multipole Analysis

Standard DMA

Positions and radii in angstrom
Multipole moments in atomic units, ea_0^k for rank k

C          x =  0.546101  y = -3.245073  z =  2.269290 angstrom
           Maximum rank =  0   Radius =  0.650 angstrom
                   Q00  =  -0.209774

C          x =  2.316101  y = -0.736073  z = -0.042710 angstrom
           Maximum rank =  0   Radius =  0.650 angstrom
                   Q00  =  -0.063039

C          x =  1.664101  y = -1.290073  z =  1.059290 angstrom
           Maximum rank =  0   Radius =  0.650 angstrom
                   Q00  =  -0.019946

C          x =  2.424101  y = -1.466073  z = -1.229710 angstrom
           Maximum rank =  0   Radius =  0.650 angstrom
                   Q00  =  -0.070705

C          x =  1.196101  y = -2.611073  z =  1.037290 angstrom
           Maximum rank =  0   Radius =  0.650 angstrom
                   Q00  =  -0.107790

C          x =  1.963101  y = -2.799073  z = -1.285710 angstrom
           Maximum rank =  0   Radius =  0.650 angstrom
                   Q00  =  -0.076795

C          x =  1.282101  y = -3.341073  z = -0.155710 angstrom
           Maximum rank =  0   Radius =  0.650 angstrom
                   Q00  =  -0.092423

H          x =  2.680101  y =  0.276927  z =  0.004290 angstrom
           Maximum rank =  0   Radius =  0.325 angstrom
                   Q00  =   0.071246

H          x =  1.569101  y = -0.705073  z =  1.963290 angstrom
           Maximum rank =  0   Radius =  0.325 angstrom
                   Q00  =   0.059706

H          x =  2.910101  y = -1.027073  z = -2.089710 angstrom
           Maximum rank =  0   Radius =  0.325 angstrom
                   Q00  =   0.065206

H          x =  2.069101  y = -3.378073  z = -2.193710 angstrom
           Maximum rank =  0   Radius =  0.325 angstrom
                   Q00  =   0.073771

H          x =  1.263101  y = -3.158073  z =  3.087290 angstrom
           Maximum rank =  0   Radius =  0.325 angstrom
                   Q00  =   0.102601

H          x =  0.375101  y = -4.310073  z =  2.102290 angstrom
           Maximum rank =  0   Radius =  0.325 angstrom
                   Q00  =   0.101320

H          x =  0.895101  y = -4.350073  z = -0.202710 angstrom
           Maximum rank =  0   Radius =  0.325 angstrom
                   Q00  =   0.065781

H          x = -0.392363  y = -2.764779  z =  2.583300 angstrom
           Maximum rank =  0   Radius =  0.325 angstrom
                   Q00  =   0.102919

C          x = -2.751899  y =  1.086927  z =  1.570290 angstrom
           Maximum rank =  0   Radius =  0.650 angstrom
                   Q00  =  -0.206718

C          x = -1.065899  y =  1.115927  z = -0.327710 angstrom
           Maximum rank =  0   Radius =  0.650 angstrom
                   Q00  =  -0.073717

C          x = -2.047899  y =  1.778927  z =  0.426290 angstrom
           Maximum rank =  0   Radius =  0.650 angstrom
                   Q00  =  -0.104015

C          x = -0.438899  y =  1.774927  z = -1.373710 angstrom
           Maximum rank =  0   Radius =  0.650 angstrom
                   Q00  =  -0.016358

C          x = -2.357899  y =  3.113927  z =  0.136290 angstrom
           Maximum rank =  0   Radius =  0.650 angstrom
                   Q00  =  -0.077121

C          x = -0.750899  y =  3.104927  z = -1.665710 angstrom
           Maximum rank =  0   Radius =  0.650 angstrom
                   Q00  =  -0.059507

C          x = -1.712899  y =  3.788927  z = -0.914710 angstrom
           Maximum rank =  0   Radius =  0.650 angstrom
                   Q00  =  -0.077005

H          x = -0.808899  y =  0.087927  z = -0.109710 angstrom
           Maximum rank =  0   Radius =  0.325 angstrom
                   Q00  =   0.071137

H          x =  0.315101  y =  1.259927  z = -1.948710 angstrom
           Maximum rank =  0   Radius =  0.325 angstrom
                   Q00  =   0.063739

H          x = -2.679899  y =  1.701927  z =  2.469290 angstrom
           Maximum rank =  0   Radius =  0.325 angstrom
                   Q00  =   0.097766

H          x = -2.235899  y =  0.150927  z =  1.776290 angstrom
           Maximum rank =  0   Radius =  0.325 angstrom
                   Q00  =   0.096061

H          x = -3.107899  y =  3.628927  z =  0.718290 angstrom
           Maximum rank =  0   Radius =  0.325 angstrom
                   Q00  =   0.054881

H          x = -0.234899  y =  3.592927  z = -2.477710 angstrom
           Maximum rank =  0   Radius =  0.325 angstrom
                   Q00  =   0.058917

H          x = -1.961899  y =  4.817927  z = -1.134710 angstrom
           Maximum rank =  0   Radius =  0.325 angstrom
                   Q00  =   0.066539

H          x = -3.815323  y =  0.889811  z =  1.369600 angstrom
           Maximum rank =  0   Radius =  0.325 angstrom
                   Q00  =   0.103322

Total multipoles referred to origin at
           x =   0.000000,  y =    0.000000,  z =    0.000000 angstrom
                   Q00  =  -0.000000

Finished at 22:3:16 on 28 Apr 2020

  DMA results are available in the Python driver through the
	  variable('DMA DISTRIBUTED MULTIPOLES')
  and
	  variable('DMA TOTAL MULTIPOLES')
  commands.

    Psi4 stopped on: Tuesday, 28 April 2020 10:03PM
    Psi4 wall time for execution: 0:07:27.61

*** Psi4 exiting successfully. Buy a developer a beer!
