                               Psi4 1.3.2 release

  ==> Input File <==

--------------------------------------------------------------------------
import numpy as np
set {scf_type pk
basis cc-pvdz
d_convergence 10
gdma_switch   0
gdma_limit    0
gdma_origin   [ 0.0,  0.0,  0.0 ]
}
molecule test {
    units Angstrom
    0 1
    --
    0 1
    C                2.573371830301414     0.356713244652790    -1.571969500402767
    C               -0.692628169698587     1.064713244652790     0.224030499597233
    C                0.665371830301414     1.015713244652790    -0.079969500402767
    C               -1.622628169698586     0.466713244652790    -0.607969500402767
    C                1.104371830301414     0.350713244652790    -1.216969500402767
    C               -1.202628169698587    -0.187286755347210    -1.757969500402767
    C                0.169371830301413    -0.271286755347210    -2.052969500402767
    H               -1.024628169698587     1.581713244652790     1.114030499597233
    H                1.375371830301414     1.493713244652790     0.579030499597233
    H               -2.676628169698586     0.519713244652790    -0.367969500402767
    H               -1.925628169698586    -0.636286755347210    -2.423969500402767
    H                2.828371830301414    -0.585286755347210    -2.060969500402767
    H                3.158371830301414     0.431713244652790    -0.658969500402767
    H                0.493371830301414    -0.790286755347210    -2.942969500402767
    H                2.856821830301413     1.199181244652790    -2.219969500402767
    C               -0.198628169698587    -1.668286755347210     2.612030499597233
    C               -0.935628169698587    -0.778286755347210     3.637030499597233
    H                0.549371830301413    -2.285286755347210     3.108030499597233
    H               -0.919628169698587    -2.330286755347210     2.131030499597233
    H                0.281371830301413    -1.061286755347210     1.845030499597233
    H               -1.309628169698587    -1.393286755347210     4.454030499597232
    H               -1.775628169698586    -0.299286755347210     3.133030499597233
    H               -0.248453169698587    -0.005214755347210     4.011400499597233

}
e, wfn = energy('scf', return_wfn=True)
gdma(wfn)
dmavals = variable('DMA DISTRIBUTED MULTIPOLES')
charges = np.array(dmavals)
print(charges)
np.save('SSI-052PHE-075ILE-1-dimer.npy', np.array(charges))--------------------------------------------------------------------------

*** tstart() called on ds3
*** at Sun Apr 26 17:38:57 2020

   => Loading Basis Set <=

    Name: CC-PVDZ
    Role: ORBITAL
    Keyword: BASIS
    atoms 1-7, 16-17  entry C          line   138 file /theoryfs2/ds/metcalf/miniconda2/envs/tf2gpu/share/psi4/basis/cc-pvdz.gbs
    atoms 8-15, 18-23 entry H          line    22 file /theoryfs2/ds/metcalf/miniconda2/envs/tf2gpu/share/psi4/basis/cc-pvdz.gbs

         ---------------------------------------------------------
                                   SCF
               by Justin Turney, Rob Parrish, Andy Simmonett
                          and Daniel G. A. Smith
                              RHF Reference
                        1 Threads,    500 MiB Core
         ---------------------------------------------------------

  ==> Geometry <==

    Molecular point group: c1
    Full point group: C1

    Geometry (in Angstrom), charge = 0, multiplicity = 1:

       Center              X                  Y                   Z               Mass
    ------------   -----------------  -----------------  -----------------  -----------------
         C            2.573371830301     0.356713244653    -1.571969500403    12.000000000000
         C           -0.692628169699     1.064713244653     0.224030499597    12.000000000000
         C            0.665371830301     1.015713244653    -0.079969500403    12.000000000000
         C           -1.622628169699     0.466713244653    -0.607969500403    12.000000000000
         C            1.104371830301     0.350713244653    -1.216969500403    12.000000000000
         C           -1.202628169699    -0.187286755347    -1.757969500403    12.000000000000
         C            0.169371830301    -0.271286755347    -2.052969500403    12.000000000000
         H           -1.024628169699     1.581713244653     1.114030499597     1.007825032230
         H            1.375371830301     1.493713244653     0.579030499597     1.007825032230
         H           -2.676628169699     0.519713244653    -0.367969500403     1.007825032230
         H           -1.925628169699    -0.636286755347    -2.423969500403     1.007825032230
         H            2.828371830301    -0.585286755347    -2.060969500403     1.007825032230
         H            3.158371830301     0.431713244653    -0.658969500403     1.007825032230
         H            0.493371830301    -0.790286755347    -2.942969500403     1.007825032230
         H            2.856821830301     1.199181244653    -2.219969500403     1.007825032230
         C           -0.198628169699    -1.668286755347     2.612030499597    12.000000000000
         C           -0.935628169699    -0.778286755347     3.637030499597    12.000000000000
         H            0.549371830301    -2.285286755347     3.108030499597     1.007825032230
         H           -0.919628169699    -2.330286755347     2.131030499597     1.007825032230
         H            0.281371830301    -1.061286755347     1.845030499597     1.007825032230
         H           -1.309628169699    -1.393286755347     4.454030499597     1.007825032230
         H           -1.775628169699    -0.299286755347     3.133030499597     1.007825032230
         H           -0.248453169699    -0.005214755347     4.011400499597     1.007825032230

  Running in c1 symmetry.

  Rotational constants: A =      0.06903  B =      0.02800  C =      0.02372 [cm^-1]
  Rotational constants: A =   2069.34061  B =    839.50270  C =    711.16716 [MHz]
  Nuclear repulsion =  412.347255550136310

  Charge       = 0
  Multiplicity = 1
  Electrons    = 68
  Nalpha       = 34
  Nbeta        = 34

  ==> Algorithm <==

  SCF Algorithm Type is PK.
  DIIS enabled.
  MOM disabled.
  Fractional occupation disabled.
  Guess Type is SAD.
  Energy threshold   = 1.00e-06
  Density threshold  = 1.00e-10
  Integral threshold = 0.00e+00

  ==> Primary Basis <==

  Basis Set: CC-PVDZ
    Blend: CC-PVDZ
    Number of shells: 96
    Number of basis function: 196
    Number of Cartesian functions: 205
    Spherical Harmonics?: true
    Max angular momentum: 2

  ==> Pre-Iterations <==

   -------------------------------------------------------
    Irrep   Nso     Nmo     Nalpha   Nbeta   Ndocc  Nsocc
   -------------------------------------------------------
     A        196     196       0       0       0       0
   -------------------------------------------------------
    Total     196     196      34      34      34       0
   -------------------------------------------------------

  ==> Integral Setup <==

  Using integral reordering PK algorithm.
  Sizing the integral batches needed.
  Building batch lookup table.
   Calculation information:
      Number of atoms:                  23
      Number of AO shells:              96
      Number of primitives:            268
      Number of atomic orbitals:       205
      Number of basis functions:       196

      Integral cutoff                 1.00e-12
      Number of threads:                 1

	Batch   1 pq = [       0,    9405] index = [             0,44231715] size =     44231715
	Batch   2 pq = [    9405,   13301] index = [      44231715,88464951] size =     44233236
	Batch   3 pq = [   13301,   16290] index = [      88464951,132690195] size =     44225244
	Batch   4 pq = [   16290,   18810] index = [     132690195,176917455] size =     44227260
	Batch   5 pq = [   18810,   19306] index = [     176917455,186370471] size =      9453016
  Task number: 17
  Buffer size: 11059200
  Buffer per thread: 2
  We computed 10108532 shell quartets total.
  Whereas there are 10841496 unique shell quartets.

  ==> DiskJK: Disk-Based J/K Matrices <==

    J tasked:                  Yes
    K tasked:                  Yes
    wK tasked:                  No
    Memory [MiB]:              375
    Schwarz Cutoff:          1E-12

    OpenMP threads:              1

  Minimum eigenvalue in the overlap matrix is 3.1436241988E-04.
  Using Symmetric Orthogonalization.

  SCF Guess: Superposition of Atomic Densities via on-the-fly atomic UHF.

  ==> Iterations <==

                        Total Energy        Delta E     RMS |[F,P]|

   @RHF iter SAD:  -347.83593408829546   -3.47836e+02   0.00000e+00
   @RHF iter   1:  -348.76919483687124   -9.33261e-01   2.88124e-03 DIIS
   @RHF iter   2:  -348.96019194101524   -1.90997e-01   1.18971e-03 DIIS
   @RHF iter   3:  -348.98984771833716   -2.96558e-02   2.56418e-04 DIIS
   @RHF iter   4:  -348.99228808769766   -2.44037e-03   5.07318e-05 DIIS
   @RHF iter   5:  -348.99235715859919   -6.90709e-05   1.63823e-05 DIIS
   @RHF iter   6:  -348.99236397118324   -6.81258e-06   4.43624e-06 DIIS
   @RHF iter   7:  -348.99236452289517   -5.51712e-07   1.25220e-06 DIIS
   @RHF iter   8:  -348.99236457159748   -4.87023e-08   2.89279e-07 DIIS
   @RHF iter   9:  -348.99236457674851   -5.15104e-09   1.24200e-07 DIIS
   @RHF iter  10:  -348.99236457783820   -1.08969e-09   5.76365e-08 DIIS
   @RHF iter  11:  -348.99236457820251   -3.64309e-10   2.50472e-08 DIIS
   @RHF iter  12:  -348.99236457827618   -7.36691e-11   1.22262e-08 DIIS
   @RHF iter  13:  -348.99236457828709   -1.09139e-11   3.90589e-09 DIIS
   @RHF iter  14:  -348.99236457828835   -1.25056e-12   1.15741e-09 DIIS
   @RHF iter  15:  -348.99236457828891   -5.68434e-13   3.45013e-10 DIIS
   @RHF iter  16:  -348.99236457828857    3.41061e-13   1.30232e-10 DIIS
   @RHF iter  17:  -348.99236457828863   -5.68434e-14   6.03628e-11 DIIS
  Energy and wave function converged.

  ==> Post-Iterations <==

    Orbital Energies [Eh]
    ---------------------

    Doubly Occupied:

       1A    -11.242167     2A    -11.237893     3A    -11.235044
       4A    -11.233546     5A    -11.230861     6A    -11.230256
       7A    -11.229942     8A    -11.214753     9A    -11.207588
      10A     -1.153118    11A     -1.045239    12A     -1.011525
      13A     -1.007478    14A     -0.931892    15A     -0.831242
      16A     -0.826718    17A     -0.795043    18A     -0.691763
      19A     -0.631746    20A     -0.631096    21A     -0.593184
      22A     -0.589371    23A     -0.582163    24A     -0.575840
      25A     -0.562932    26A     -0.536979    27A     -0.494040
      28A     -0.487514    29A     -0.486130    30A     -0.481348
      31A     -0.479280    32A     -0.476978    33A     -0.331026
      34A     -0.324262

    Virtual:

      35A      0.132309    36A      0.140366    37A      0.172394
      38A      0.194174    39A      0.205412    40A      0.223150
      41A      0.234127    42A      0.240559    43A      0.254321
      44A      0.267802    45A      0.271894    46A      0.272663
      47A      0.284506    48A      0.286545    49A      0.310105
      50A      0.319882    51A      0.364076    52A      0.375486
      53A      0.398923    54A      0.450776    55A      0.464281
      56A      0.479995    57A      0.490182    58A      0.560978
      59A      0.579527    60A      0.596616    61A      0.610723
      62A      0.614232    63A      0.642412    64A      0.666803
      65A      0.668849    66A      0.687308    67A      0.693979
      68A      0.707702    69A      0.736043    70A      0.737658
      71A      0.740049    72A      0.752346    73A      0.758450
      74A      0.777442    75A      0.788241    76A      0.830964
      77A      0.835374    78A      0.847008    79A      0.861139
      80A      0.866526    81A      0.869059    82A      0.879024
      83A      0.893971    84A      0.899462    85A      0.903161
      86A      0.909674    87A      0.913134    88A      0.924713
      89A      0.936124    90A      0.940593    91A      0.947749
      92A      0.977737    93A      0.984642    94A      1.007176
      95A      1.045639    96A      1.057439    97A      1.122778
      98A      1.125006    99A      1.132146   100A      1.143638
     101A      1.154769   102A      1.168724   103A      1.190971
     104A      1.224345   105A      1.241810   106A      1.250110
     107A      1.255803   108A      1.282932   109A      1.300751
     110A      1.309721   111A      1.322103   112A      1.348347
     113A      1.412630   114A      1.474787   115A      1.486464
     116A      1.501654   117A      1.516650   118A      1.559789
     119A      1.577078   120A      1.607868   121A      1.671989
     122A      1.686590   123A      1.698921   124A      1.703392
     125A      1.733375   126A      1.748341   127A      1.764410
     128A      1.796615   129A      1.813968   130A      1.856480
     131A      1.865100   132A      1.877020   133A      1.887393
     134A      1.892389   135A      1.897698   136A      1.910215
     137A      1.918430   138A      1.925304   139A      1.938716
     140A      1.943719   141A      1.953208   142A      1.958288
     143A      1.961862   144A      1.974595   145A      1.977340
     146A      1.981532   147A      1.987804   148A      1.998371
     149A      2.032507   150A      2.068792   151A      2.077812
     152A      2.105837   153A      2.115925   154A      2.137257
     155A      2.140781   156A      2.154600   157A      2.167988
     158A      2.178057   159A      2.185699   160A      2.257480
     161A      2.278766   162A      2.288045   163A      2.292439
     164A      2.298580   165A      2.312053   166A      2.321564
     167A      2.329841   168A      2.457719   169A      2.464874
     170A      2.469887   171A      2.481997   172A      2.491396
     173A      2.537440   174A      2.581726   175A      2.588249
     176A      2.617704   177A      2.737737   178A      2.757142
     179A      2.767111   180A      2.775164   181A      2.784155
     182A      2.807251   183A      2.813019   184A      2.842022
     185A      2.847281   186A      2.870167   187A      2.872931
     188A      2.957044   189A      2.968901   190A      2.988641
     191A      3.016561   192A      3.029377   193A      3.151911
     194A      3.198203   195A      3.294669   196A      3.965935

    Final Occupation by Irrep:
              A
    DOCC [    34 ]

  @RHF Final Energy:  -348.99236457828863

   => Energetics <=

    Nuclear Repulsion Energy =            412.3472555501363104
    One-Electron Energy =               -1287.4393274884612310
    Two-Electron Energy =                 526.0997073600362910
    Total Energy =                       -348.9923645782886297

Computation Completed

Properties will be evaluated at   0.000000,   0.000000,   0.000000 [a0]

Properties computed using the SCF density matrix

  Nuclear Dipole Moment: [e a0]
     X:     1.5589      Y:    -3.9003      Z:     9.0942

  Electronic Dipole Moment: [e a0]
     X:    -1.4372      Y:     3.9340      Z:    -9.2256

  Dipole Moment: [e a0]
     X:     0.1217      Y:     0.0337      Z:    -0.1314     Total:     0.1822

  Dipole Moment: [D]
     X:     0.3092      Y:     0.0857      Z:    -0.3340     Total:     0.4631

*** tstop() called on ds3 at Sun Apr 26 17:40:58 2020
Module time:
	user time   =      71.00 seconds =       1.18 minutes
	system time =      27.26 seconds =       0.45 minutes
	total time  =        121 seconds =       2.02 minutes
Total time:
	user time   =      71.00 seconds =       1.18 minutes
	system time =      27.26 seconds =       0.45 minutes
	total time  =        121 seconds =       2.02 minutes
                                     G D M A

                                 by Anthony Stone

                           version 2.2.06, 22 June 2011

               Distributed Multipoles from Gaussian wavefunctions

Starting at 17:40:58 on 26 Apr 2020

Using SCF density matrix from file ./SSI/SSI-052PHE-075ILE-1-dimer.test.27583.fchk

                         Distributed Multipole Analysis

Standard DMA

Positions and radii in angstrom
Multipole moments in atomic units, ea_0^k for rank k

C          x =  2.573372  y =  0.356713  z = -1.571969 angstrom
           Maximum rank =  0   Radius =  0.650 angstrom
                   Q00  =  -0.204927

C          x = -0.692628  y =  1.064713  z =  0.224030 angstrom
           Maximum rank =  0   Radius =  0.650 angstrom
                   Q00  =   0.017242

C          x =  0.665372  y =  1.015713  z = -0.079970 angstrom
           Maximum rank =  0   Radius =  0.650 angstrom
                   Q00  =  -0.093723

C          x = -1.622628  y =  0.466713  z = -0.607970 angstrom
           Maximum rank =  0   Radius =  0.650 angstrom
                   Q00  =  -0.086119

C          x =  1.104372  y =  0.350713  z = -1.216970 angstrom
           Maximum rank =  0   Radius =  0.650 angstrom
                   Q00  =  -0.094420

C          x = -1.202628  y = -0.187287  z = -1.757970 angstrom
           Maximum rank =  0   Radius =  0.650 angstrom
                   Q00  =  -0.069043

C          x =  0.169372  y = -0.271287  z = -2.052970 angstrom
           Maximum rank =  0   Radius =  0.650 angstrom
                   Q00  =  -0.079692

H          x = -1.024628  y =  1.581713  z =  1.114031 angstrom
           Maximum rank =  0   Radius =  0.325 angstrom
                   Q00  =   0.064757

H          x =  1.375372  y =  1.493713  z =  0.579030 angstrom
           Maximum rank =  0   Radius =  0.325 angstrom
                   Q00  =   0.056634

H          x = -2.676628  y =  0.519713  z = -0.367970 angstrom
           Maximum rank =  0   Radius =  0.325 angstrom
                   Q00  =   0.060422

H          x = -1.925628  y = -0.636287  z = -2.423970 angstrom
           Maximum rank =  0   Radius =  0.325 angstrom
                   Q00  =   0.066716

H          x =  2.828372  y = -0.585287  z = -2.060970 angstrom
           Maximum rank =  0   Radius =  0.325 angstrom
                   Q00  =   0.098946

H          x =  3.158372  y =  0.431713  z = -0.658970 angstrom
           Maximum rank =  0   Radius =  0.325 angstrom
                   Q00  =   0.097703

H          x =  0.493372  y = -0.790287  z = -2.942970 angstrom
           Maximum rank =  0   Radius =  0.325 angstrom
                   Q00  =   0.059663

H          x =  2.856822  y =  1.199181  z = -2.219970 angstrom
           Maximum rank =  0   Radius =  0.325 angstrom
                   Q00  =   0.105432

C          x = -0.198628  y = -1.668287  z =  2.612031 angstrom
           Maximum rank =  0   Radius =  0.650 angstrom
                   Q00  =  -0.235400

C          x = -0.935628  y = -0.778287  z =  3.637030 angstrom
           Maximum rank =  0   Radius =  0.650 angstrom
                   Q00  =  -0.245825

H          x =  0.549372  y = -2.285287  z =  3.108030 angstrom
           Maximum rank =  0   Radius =  0.325 angstrom
                   Q00  =   0.073177

H          x = -0.919628  y = -2.330287  z =  2.131031 angstrom
           Maximum rank =  0   Radius =  0.325 angstrom
                   Q00  =   0.077415

H          x =  0.281372  y = -1.061287  z =  1.845031 angstrom
           Maximum rank =  0   Radius =  0.325 angstrom
                   Q00  =   0.099077

H          x = -1.309628  y = -1.393287  z =  4.454031 angstrom
           Maximum rank =  0   Radius =  0.325 angstrom
                   Q00  =   0.081168

H          x = -1.775628  y = -0.299287  z =  3.133031 angstrom
           Maximum rank =  0   Radius =  0.325 angstrom
                   Q00  =   0.076060

H          x = -0.248453  y = -0.005215  z =  4.011401 angstrom
           Maximum rank =  0   Radius =  0.325 angstrom
                   Q00  =   0.074737

Total multipoles referred to origin at
           x =   0.000000,  y =    0.000000,  z =    0.000000 angstrom
                   Q00  =  -0.000000

Finished at 17:40:58 on 26 Apr 2020

  DMA results are available in the Python driver through the
	  variable('DMA DISTRIBUTED MULTIPOLES')
  and
	  variable('DMA TOTAL MULTIPOLES')
  commands.

    Psi4 stopped on: Sunday, 26 April 2020 05:40PM
    Psi4 wall time for execution: 0:02:01.36

*** Psi4 exiting successfully. Buy a developer a beer!
