                               Psi4 1.3.2 release

  ==> Input File <==

--------------------------------------------------------------------------
import numpy as np
set {scf_type pk
basis cc-pvdz
d_convergence 10
gdma_switch   0
gdma_limit    0
gdma_origin   [ 0.0,  0.0,  0.0 ]
}
molecule test {
    units Angstrom
    0 1
    --
    0 1
    C                2.407748508945785    -0.825709145009114     2.182620681144608
    C               -0.599251491054214     0.088290854990886     0.020620681144608
    C               -1.114251491054214    -1.159709145009114    -0.284379318855392
    C                0.506748508945785     0.220290854990886     0.863620681144608
    C                1.218748508945786    -0.934709145009114     1.273620681144608
    C               -0.415251491054214    -2.289709145009114     0.132620681144608
    C                0.745748508945785    -2.170709145009113     0.891620681144608
    O               -2.262251491054214    -1.370709145009114    -1.071379318855393
    H               -1.126251491054214     0.962290854990886    -0.327379318855392
    H                0.850748508945786     1.204290854990886     1.156620681144608
    H               -0.776251491054214    -3.274709145009113    -0.130379318855392
    H               -2.457251491054214    -2.305709145009113    -1.186379318855392
    H                2.097748508945786    -1.153709145009114     3.173620681144607
    H                2.705748508945786     0.220290854990886     2.261620681144608
    H                1.247748508945786    -3.070709145009114     1.208620681144607
    H                3.274518508945786    -1.428309145009114     1.873470681144608
    C                0.440748508945786     3.321290854990887    -1.824379318855393
    C               -0.618251491054214     4.381290854990886    -1.631379318855392
    H                1.430748508945786     3.771290854990887    -1.860379318855392
    H                0.413748508945786     2.626290854990886    -0.987379318855392
    H                0.264748508945785     2.769290854990887    -2.748379318855393
    H               -0.468251491054214     4.871290854990887    -0.671379318855392
    H               -0.558431491054214     5.106380854990887    -2.456405318855392
    H               -1.628881491054214     3.947220854990886    -1.645994318855392

}
e, wfn = energy('scf', return_wfn=True)
gdma(wfn)
dmavals = variable('DMA DISTRIBUTED MULTIPOLES')
charges = np.array(dmavals)
print(charges)
np.save('SSI-197TYR-284LEU-1-dimer.npy', np.array(charges))--------------------------------------------------------------------------

*** tstart() called on ds3
*** at Mon Apr 27 12:43:34 2020

   => Loading Basis Set <=

    Name: CC-PVDZ
    Role: ORBITAL
    Keyword: BASIS
    atoms 1-7, 17-18  entry C          line   138 file /theoryfs2/ds/metcalf/miniconda2/envs/tf2gpu/share/psi4/basis/cc-pvdz.gbs
    atoms 8           entry O          line   198 file /theoryfs2/ds/metcalf/miniconda2/envs/tf2gpu/share/psi4/basis/cc-pvdz.gbs
    atoms 9-16, 19-24 entry H          line    22 file /theoryfs2/ds/metcalf/miniconda2/envs/tf2gpu/share/psi4/basis/cc-pvdz.gbs

         ---------------------------------------------------------
                                   SCF
               by Justin Turney, Rob Parrish, Andy Simmonett
                          and Daniel G. A. Smith
                              RHF Reference
                        1 Threads,    500 MiB Core
         ---------------------------------------------------------

  ==> Geometry <==

    Molecular point group: c1
    Full point group: C1

    Geometry (in Angstrom), charge = 0, multiplicity = 1:

       Center              X                  Y                   Z               Mass
    ------------   -----------------  -----------------  -----------------  -----------------
         C            2.407748508946    -0.825709145009     2.182620681145    12.000000000000
         C           -0.599251491054     0.088290854991     0.020620681145    12.000000000000
         C           -1.114251491054    -1.159709145009    -0.284379318855    12.000000000000
         C            0.506748508946     0.220290854991     0.863620681145    12.000000000000
         C            1.218748508946    -0.934709145009     1.273620681145    12.000000000000
         C           -0.415251491054    -2.289709145009     0.132620681145    12.000000000000
         C            0.745748508946    -2.170709145009     0.891620681145    12.000000000000
         O           -2.262251491054    -1.370709145009    -1.071379318855    15.994914619570
         H           -1.126251491054     0.962290854991    -0.327379318855     1.007825032230
         H            0.850748508946     1.204290854991     1.156620681145     1.007825032230
         H           -0.776251491054    -3.274709145009    -0.130379318855     1.007825032230
         H           -2.457251491054    -2.305709145009    -1.186379318855     1.007825032230
         H            2.097748508946    -1.153709145009     3.173620681145     1.007825032230
         H            2.705748508946     0.220290854991     2.261620681145     1.007825032230
         H            1.247748508946    -3.070709145009     1.208620681145     1.007825032230
         H            3.274518508946    -1.428309145009     1.873470681145     1.007825032230
         C            0.440748508946     3.321290854991    -1.824379318855    12.000000000000
         C           -0.618251491054     4.381290854991    -1.631379318855    12.000000000000
         H            1.430748508946     3.771290854991    -1.860379318855     1.007825032230
         H            0.413748508946     2.626290854991    -0.987379318855     1.007825032230
         H            0.264748508946     2.769290854991    -2.748379318855     1.007825032230
         H           -0.468251491054     4.871290854991    -0.671379318855     1.007825032230
         H           -0.558431491054     5.106380854991    -2.456405318855     1.007825032230
         H           -1.628881491054     3.947220854991    -1.645994318855     1.007825032230

  Running in c1 symmetry.

  Rotational constants: A =      0.04616  B =      0.02083  C =      0.01495 [cm^-1]
  Rotational constants: A =   1383.70850  B =    624.59835  C =    448.30466 [MHz]
  Nuclear repulsion =  484.190551183155094

  Charge       = 0
  Multiplicity = 1
  Electrons    = 76
  Nalpha       = 38
  Nbeta        = 38

  ==> Algorithm <==

  SCF Algorithm Type is PK.
  DIIS enabled.
  MOM disabled.
  Fractional occupation disabled.
  Guess Type is SAD.
  Energy threshold   = 1.00e-06
  Density threshold  = 1.00e-10
  Integral threshold = 0.00e+00

  ==> Primary Basis <==

  Basis Set: CC-PVDZ
    Blend: CC-PVDZ
    Number of shells: 102
    Number of basis function: 210
    Number of Cartesian functions: 220
    Spherical Harmonics?: true
    Max angular momentum: 2

  ==> Pre-Iterations <==

   -------------------------------------------------------
    Irrep   Nso     Nmo     Nalpha   Nbeta   Ndocc  Nsocc
   -------------------------------------------------------
     A        210     210       0       0       0       0
   -------------------------------------------------------
    Total     210     210      38      38      38       0
   -------------------------------------------------------

  ==> Integral Setup <==

  Using integral reordering PK algorithm.
  Sizing the integral batches needed.
  Building batch lookup table.
   Calculation information:
      Number of atoms:                  24
      Number of AO shells:             102
      Number of primitives:            290
      Number of atomic orbitals:       220
      Number of basis functions:       210

      Integral cutoff                 1.00e-12
      Number of threads:                 1

	Batch   1 pq = [       0,    9405] index = [             0,44231715] size =     44231715
	Batch   2 pq = [    9405,   13301] index = [      44231715,88464951] size =     44233236
	Batch   3 pq = [   13301,   16290] index = [      88464951,132690195] size =     44225244
	Batch   4 pq = [   16290,   18810] index = [     132690195,176917455] size =     44227260
	Batch   5 pq = [   18810,   21030] index = [     176917455,221140965] size =     44223510
	Batch   6 pq = [   21030,   22155] index = [     221140965,245433090] size =     24292125
  Task number: 23
  Buffer size: 11059200
  Buffer per thread: 2
  We computed 10643505 shell quartets total.
  Whereas there are 13799631 unique shell quartets.

  ==> DiskJK: Disk-Based J/K Matrices <==

    J tasked:                  Yes
    K tasked:                  Yes
    wK tasked:                  No
    Memory [MiB]:              375
    Schwarz Cutoff:          1E-12

    OpenMP threads:              1

  Minimum eigenvalue in the overlap matrix is 3.4983973799E-04.
  Using Symmetric Orthogonalization.

  SCF Guess: Superposition of Atomic Densities via on-the-fly atomic UHF.

  ==> Iterations <==

                        Total Energy        Delta E     RMS |[F,P]|

   @RHF iter SAD:  -422.63763279478360   -4.22638e+02   0.00000e+00
   @RHF iter   1:  -423.59353482042127   -9.55902e-01   2.99425e-03 DIIS
   @RHF iter   2:  -423.81063854451753   -2.17104e-01   1.27536e-03 DIIS
   @RHF iter   3:  -423.84614095087863   -3.55024e-02   2.87761e-04 DIIS
   @RHF iter   4:  -423.84905304912320   -2.91210e-03   1.20527e-04 DIIS
   @RHF iter   5:  -423.84942295002332   -3.69901e-04   2.08573e-05 DIIS
   @RHF iter   6:  -423.84944057766614   -1.76276e-05   6.46274e-06 DIIS
   @RHF iter   7:  -423.84944222668753   -1.64902e-06   2.06612e-06 DIIS
   @RHF iter   8:  -423.84944243288584   -2.06198e-07   7.52195e-07 DIIS
   @RHF iter   9:  -423.84944245765030   -2.47645e-08   2.20187e-07 DIIS
   @RHF iter  10:  -423.84944246003857   -2.38828e-09   6.05662e-08 DIIS
   @RHF iter  11:  -423.84944246028635   -2.47780e-10   2.34138e-08 DIIS
   @RHF iter  12:  -423.84944246032859   -4.22347e-11   1.18765e-08 DIIS
   @RHF iter  13:  -423.84944246034684   -1.82467e-11   6.12318e-09 DIIS
   @RHF iter  14:  -423.84944246034723   -3.97904e-13   2.17871e-09 DIIS
   @RHF iter  15:  -423.84944246034934   -2.10321e-12   6.47830e-10 DIIS
   @RHF iter  16:  -423.84944246035070   -1.36424e-12   1.89451e-10 DIIS
   @RHF iter  17:  -423.84944246034945    1.25056e-12   6.75090e-11 DIIS
  Energy and wave function converged.

  ==> Post-Iterations <==

    Orbital Energies [Eh]
    ---------------------

    Doubly Occupied:

       1A    -20.578685     2A    -11.300621     3A    -11.243844
       4A    -11.237864     5A    -11.235944     6A    -11.235387
       7A    -11.234499     8A    -11.229343     9A    -11.216048
      10A    -11.212384    11A     -1.378775    12A     -1.153293
      13A     -1.041908    14A     -1.021131    15A     -1.017636
      16A     -0.928415    17A     -0.842961    18A     -0.833744
      19A     -0.799661    20A     -0.725568    21A     -0.666474
      22A     -0.642171    23A     -0.611788    24A     -0.601881
      25A     -0.596680    26A     -0.584213    27A     -0.580833
      28A     -0.565624    29A     -0.561831    30A     -0.530568
      31A     -0.503265    32A     -0.501142    33A     -0.484831
      34A     -0.482854    35A     -0.478550    36A     -0.467397
      37A     -0.339036    38A     -0.305966

    Virtual:

      39A      0.128823    40A      0.150678    41A      0.171874
      42A      0.181959    43A      0.190423    44A      0.221518
      45A      0.226063    46A      0.238062    47A      0.246787
      48A      0.262331    49A      0.267101    50A      0.271594
      51A      0.278824    52A      0.283218    53A      0.318657
      54A      0.338113    55A      0.369447    56A      0.386088
      57A      0.402855    58A      0.421810    59A      0.456765
      60A      0.491336    61A      0.501091    62A      0.508970
      63A      0.597292    64A      0.606100    65A      0.609738
      66A      0.615996    67A      0.630535    68A      0.639380
      69A      0.658966    70A      0.672345    71A      0.682730
      72A      0.691882    73A      0.698625    74A      0.716671
      75A      0.731075    76A      0.736010    77A      0.766880
      78A      0.774133    79A      0.778467    80A      0.785682
      81A      0.804438    82A      0.826589    83A      0.842430
      84A      0.856806    85A      0.872640    86A      0.879363
      87A      0.884771    88A      0.888198    89A      0.890393
      90A      0.895870    91A      0.900061    92A      0.910391
      93A      0.921706    94A      0.931381    95A      0.937872
      96A      0.947447    97A      0.951465    98A      0.962007
      99A      0.998916   100A      1.023516   101A      1.051596
     102A      1.079877   103A      1.104505   104A      1.126563
     105A      1.134675   106A      1.143160   107A      1.168895
     108A      1.173445   109A      1.205223   110A      1.232743
     111A      1.245323   112A      1.272477   113A      1.282211
     114A      1.289460   115A      1.299772   116A      1.320747
     117A      1.321086   118A      1.357345   119A      1.361590
     120A      1.397957   121A      1.478124   122A      1.482731
     123A      1.487150   124A      1.511678   125A      1.526453
     126A      1.554475   127A      1.579748   128A      1.617444
     129A      1.627972   130A      1.670417   131A      1.685737
     132A      1.698693   133A      1.703445   134A      1.732188
     135A      1.751963   136A      1.779967   137A      1.794987
     138A      1.812691   139A      1.851197   140A      1.864756
     141A      1.873980   142A      1.886616   143A      1.891105
     144A      1.900190   145A      1.904996   146A      1.918631
     147A      1.933545   148A      1.945924   149A      1.949934
     150A      1.952739   151A      1.954260   152A      1.957441
     153A      1.962575   154A      1.972496   155A      1.978693
     156A      1.989964   157A      2.034749   158A      2.041289
     159A      2.060511   160A      2.071941   161A      2.079112
     162A      2.103583   163A      2.107016   164A      2.127494
     165A      2.154272   166A      2.190323   167A      2.208793
     168A      2.225034   169A      2.255562   170A      2.273836
     171A      2.304810   172A      2.310192   173A      2.322490
     174A      2.347142   175A      2.375724   176A      2.389586
     177A      2.452691   178A      2.460543   179A      2.469052
     180A      2.476707   181A      2.492604   182A      2.517627
     183A      2.535445   184A      2.571036   185A      2.583857
     186A      2.608094   187A      2.642734   188A      2.738968
     189A      2.765444   190A      2.768889   191A      2.787303
     192A      2.803376   193A      2.818039   194A      2.842703
     195A      2.860659   196A      2.874361   197A      2.882963
     198A      2.952907   199A      2.965110   200A      2.988472
     201A      2.993558   202A      3.064293   203A      3.124439
     204A      3.236934   205A      3.286576   206A      3.332149
     207A      3.546020   208A      3.610849   209A      3.978743
     210A      4.165901

    Final Occupation by Irrep:
              A
    DOCC [    38 ]

  @RHF Final Energy:  -423.84944246034945

   => Energetics <=

    Nuclear Repulsion Energy =            484.1905511831550939
    One-Electron Energy =               -1534.1343634485249368
    Two-Electron Energy =                 626.0943698050203921
    Total Energy =                       -423.8494424603494508

Computation Completed

Properties will be evaluated at   0.000000,   0.000000,   0.000000 [a0]

Properties computed using the SCF density matrix

  Nuclear Dipole Moment: [e a0]
     X:     4.9300      Y:    13.3481      Z:    -2.1989

  Electronic Dipole Moment: [e a0]
     X:    -4.6343      Y:   -13.8822      Z:     2.4548

  Dipole Moment: [e a0]
     X:     0.2957      Y:    -0.5341      Z:     0.2559     Total:     0.6620

  Dipole Moment: [D]
     X:     0.7515      Y:    -1.3576      Z:     0.6505     Total:     1.6825

*** tstop() called on ds3 at Mon Apr 27 12:45:38 2020
Module time:
	user time   =      85.82 seconds =       1.43 minutes
	system time =      43.44 seconds =       0.72 minutes
	total time  =        124 seconds =       2.07 minutes
Total time:
	user time   =      85.82 seconds =       1.43 minutes
	system time =      43.44 seconds =       0.72 minutes
	total time  =        124 seconds =       2.07 minutes
                                     G D M A

                                 by Anthony Stone

                           version 2.2.06, 22 June 2011

               Distributed Multipoles from Gaussian wavefunctions

Starting at 12:45:38 on 27 Apr 2020

Using SCF density matrix from file ./SSI/SSI-197TYR-284LEU-1-dimer.test.3885.fchk

                         Distributed Multipole Analysis

Standard DMA

Positions and radii in angstrom
Multipole moments in atomic units, ea_0^k for rank k

C          x =  2.407749  y = -0.825709  z =  2.182621 angstrom
           Maximum rank =  0   Radius =  0.650 angstrom
                   Q00  =  -0.203087

C          x = -0.599251  y =  0.088291  z =  0.020621 angstrom
           Maximum rank =  0   Radius =  0.650 angstrom
                   Q00  =  -0.063856

C          x = -1.114251  y = -1.159709  z = -0.284379 angstrom
           Maximum rank =  0   Radius =  0.650 angstrom
                   Q00  =   0.265966

C          x =  0.506749  y =  0.220291  z =  0.863621 angstrom
           Maximum rank =  0   Radius =  0.650 angstrom
                   Q00  =  -0.066368

C          x =  1.218749  y = -0.934709  z =  1.273621 angstrom
           Maximum rank =  0   Radius =  0.650 angstrom
                   Q00  =  -0.126783

C          x = -0.415251  y = -2.289709  z =  0.132621 angstrom
           Maximum rank =  0   Radius =  0.650 angstrom
                   Q00  =  -0.057079

C          x =  0.745749  y = -2.170709  z =  0.891621 angstrom
           Maximum rank =  0   Radius =  0.650 angstrom
                   Q00  =  -0.058773

O          x = -2.262251  y = -1.370709  z = -1.071379 angstrom
           Maximum rank =  0   Radius =  0.650 angstrom
                   Q00  =  -0.679139

H          x = -1.126251  y =  0.962291  z = -0.327379 angstrom
           Maximum rank =  0   Radius =  0.325 angstrom
                   Q00  =   0.081293

H          x =  0.850749  y =  1.204291  z =  1.156621 angstrom
           Maximum rank =  0   Radius =  0.325 angstrom
                   Q00  =   0.071255

H          x = -0.776251  y = -3.274709  z = -0.130379 angstrom
           Maximum rank =  0   Radius =  0.325 angstrom
                   Q00  =   0.067466

H          x = -2.457251  y = -2.305709  z = -1.186379 angstrom
           Maximum rank =  0   Radius =  0.325 angstrom
                   Q00  =   0.409654

H          x =  2.097749  y = -1.153709  z =  3.173621 angstrom
           Maximum rank =  0   Radius =  0.325 angstrom
                   Q00  =   0.098688

H          x =  2.705749  y =  0.220291  z =  2.261621 angstrom
           Maximum rank =  0   Radius =  0.325 angstrom
                   Q00  =   0.096735

H          x =  1.247749  y = -3.070709  z =  1.208621 angstrom
           Maximum rank =  0   Radius =  0.325 angstrom
                   Q00  =   0.064981

H          x =  3.274519  y = -1.428309  z =  1.873471 angstrom
           Maximum rank =  0   Radius =  0.325 angstrom
                   Q00  =   0.100111

C          x =  0.440749  y =  3.321291  z = -1.824379 angstrom
           Maximum rank =  0   Radius =  0.650 angstrom
                   Q00  =  -0.227938

C          x = -0.618251  y =  4.381291  z = -1.631379 angstrom
           Maximum rank =  0   Radius =  0.650 angstrom
                   Q00  =  -0.236310

H          x =  1.430749  y =  3.771291  z = -1.860379 angstrom
           Maximum rank =  0   Radius =  0.325 angstrom
                   Q00  =   0.077187

H          x =  0.413749  y =  2.626291  z = -0.987379 angstrom
           Maximum rank =  0   Radius =  0.325 angstrom
                   Q00  =   0.074270

H          x =  0.264749  y =  2.769291  z = -2.748379 angstrom
           Maximum rank =  0   Radius =  0.325 angstrom
                   Q00  =   0.081415

H          x = -0.468251  y =  4.871291  z = -0.671379 angstrom
           Maximum rank =  0   Radius =  0.325 angstrom
                   Q00  =   0.076364

H          x = -0.558431  y =  5.106381  z = -2.456405 angstrom
           Maximum rank =  0   Radius =  0.325 angstrom
                   Q00  =   0.076919

H          x = -1.628881  y =  3.947221  z = -1.645994 angstrom
           Maximum rank =  0   Radius =  0.325 angstrom
                   Q00  =   0.077031

Total multipoles referred to origin at
           x =   0.000000,  y =    0.000000,  z =    0.000000 angstrom
                   Q00  =  -0.000000

Finished at 12:45:38 on 27 Apr 2020

  DMA results are available in the Python driver through the
	  variable('DMA DISTRIBUTED MULTIPOLES')
  and
	  variable('DMA TOTAL MULTIPOLES')
  commands.

    Psi4 stopped on: Monday, 27 April 2020 12:45PM
    Psi4 wall time for execution: 0:02:03.87

*** Psi4 exiting successfully. Buy a developer a beer!
