                               Psi4 1.3.2 release

  ==> Input File <==

--------------------------------------------------------------------------
import numpy as np
set {scf_type pk
basis cc-pvdz
d_convergence 10
gdma_switch   0
gdma_limit    0
gdma_origin   [ 0.0,  0.0,  0.0 ]
}
molecule test {
    units Angstrom
    -1 1
    --
    -1 1
    C               -0.963392146879382     1.326283398041337     0.116379464859199
    C               -1.259392146879382     1.999283398041337     1.467379464859199
    C               -1.994392146879382     0.282283398041337    -0.262620535140801
    O               -2.312392146879382     0.113283398041337    -1.437620535140801
    N               -2.525392146879383    -0.432716601958663     0.722379464859199
    H               -0.899392146879382     2.067283398041337    -0.677620535140801
    H               -0.001392146879382     0.838283398041337     0.181379464859199
    H               -1.218392146879382     1.229283398041337     2.234379464859199
    H               -3.204392146879382    -1.138716601958663     0.478379464859199
    H               -2.188392146879382    -0.351716601958663     1.662379464859199
    H               -2.271752146879382     2.428953398041337     1.489993464859199
    H               -0.451616146879382     2.693723398041337     1.741691464859199
    C                2.947607853120618    -0.362716601958663     1.018379464859199
    C                2.219607853120618    -0.819716601958663    -0.237620535140801
    O                2.800607853120618    -0.699716601958663    -1.337620535140801
    O                1.064607853120618    -1.294716601958663    -0.134620535140801
    H                3.542607853120618    -1.190716601958663     1.414379464859199
    H                2.213607853120618    -0.078716601958663     1.776379464859199
    H                3.611404853120618     0.490843398041337     0.816349464859199

}
e, wfn = energy('scf', return_wfn=True)
gdma(wfn)
dmavals = variable('DMA DISTRIBUTED MULTIPOLES')
charges = np.array(dmavals)
print(charges)
np.save('SSI-055ASN-058GLU-1-dimer.npy', np.array(charges))--------------------------------------------------------------------------

*** tstart() called on ds3
*** at Mon Apr 27 21:41:07 2020

   => Loading Basis Set <=

    Name: CC-PVDZ
    Role: ORBITAL
    Keyword: BASIS
    atoms 1-3, 13-14  entry C          line   138 file /theoryfs2/ds/metcalf/miniconda2/envs/tf2gpu/share/psi4/basis/cc-pvdz.gbs
    atoms 4, 15-16    entry O          line   198 file /theoryfs2/ds/metcalf/miniconda2/envs/tf2gpu/share/psi4/basis/cc-pvdz.gbs
    atoms 5           entry N          line   168 file /theoryfs2/ds/metcalf/miniconda2/envs/tf2gpu/share/psi4/basis/cc-pvdz.gbs
    atoms 6-12, 17-19 entry H          line    22 file /theoryfs2/ds/metcalf/miniconda2/envs/tf2gpu/share/psi4/basis/cc-pvdz.gbs

         ---------------------------------------------------------
                                   SCF
               by Justin Turney, Rob Parrish, Andy Simmonett
                          and Daniel G. A. Smith
                              RHF Reference
                        1 Threads,    500 MiB Core
         ---------------------------------------------------------

  ==> Geometry <==

    Molecular point group: c1
    Full point group: C1

    Geometry (in Angstrom), charge = -1, multiplicity = 1:

       Center              X                  Y                   Z               Mass
    ------------   -----------------  -----------------  -----------------  -----------------
         C           -0.963392146879     1.326283398041     0.116379464859    12.000000000000
         C           -1.259392146879     1.999283398041     1.467379464859    12.000000000000
         C           -1.994392146879     0.282283398041    -0.262620535141    12.000000000000
         O           -2.312392146879     0.113283398041    -1.437620535141    15.994914619570
         N           -2.525392146879    -0.432716601959     0.722379464859    14.003074004430
         H           -0.899392146879     2.067283398041    -0.677620535141     1.007825032230
         H           -0.001392146879     0.838283398041     0.181379464859     1.007825032230
         H           -1.218392146879     1.229283398041     2.234379464859     1.007825032230
         H           -3.204392146879    -1.138716601959     0.478379464859     1.007825032230
         H           -2.188392146879    -0.351716601959     1.662379464859     1.007825032230
         H           -2.271752146879     2.428953398041     1.489993464859     1.007825032230
         H           -0.451616146879     2.693723398041     1.741691464859     1.007825032230
         C            2.947607853121    -0.362716601959     1.018379464859    12.000000000000
         C            2.219607853121    -0.819716601959    -0.237620535141    12.000000000000
         O            2.800607853121    -0.699716601959    -1.337620535141    15.994914619570
         O            1.064607853121    -1.294716601959    -0.134620535141    15.994914619570
         H            3.542607853121    -1.190716601959     1.414379464859     1.007825032230
         H            2.213607853121    -0.078716601959     1.776379464859     1.007825032230
         H            3.611404853121     0.490843398041     0.816349464859     1.007825032230

  Running in c1 symmetry.

  Rotational constants: A =      0.07343  B =      0.02337  C =      0.02072 [cm^-1]
  Rotational constants: A =   2201.23603  B =    700.61167  C =    621.10562 [MHz]
  Nuclear repulsion =  435.806045794997942

  Charge       = -1
  Multiplicity = 1
  Electrons    = 72
  Nalpha       = 36
  Nbeta        = 36

  ==> Algorithm <==

  SCF Algorithm Type is PK.
  DIIS enabled.
  MOM disabled.
  Fractional occupation disabled.
  Guess Type is SAD.
  Energy threshold   = 1.00e-06
  Density threshold  = 1.00e-10
  Integral threshold = 0.00e+00

  ==> Primary Basis <==

  Basis Set: CC-PVDZ
    Blend: CC-PVDZ
    Number of shells: 84
    Number of basis function: 176
    Number of Cartesian functions: 185
    Spherical Harmonics?: true
    Max angular momentum: 2

  ==> Pre-Iterations <==

   -------------------------------------------------------
    Irrep   Nso     Nmo     Nalpha   Nbeta   Ndocc  Nsocc
   -------------------------------------------------------
     A        176     176       0       0       0       0
   -------------------------------------------------------
    Total     176     176      36      36      36       0
   -------------------------------------------------------

  ==> Integral Setup <==

  Using integral reordering PK algorithm.
  Sizing the integral batches needed.
  Building batch lookup table.
   Calculation information:
      Number of atoms:                  19
      Number of AO shells:              84
      Number of primitives:            248
      Number of atomic orbitals:       185
      Number of basis functions:       176

      Integral cutoff                 1.00e-12
      Number of threads:                 1

	Batch   1 pq = [       0,    9405] index = [             0,44231715] size =     44231715
	Batch   2 pq = [    9405,   13301] index = [      44231715,88464951] size =     44233236
	Batch   3 pq = [   13301,   15576] index = [      88464951,121313676] size =     32848725
  Task number: 11
  Buffer size: 11059200
  Buffer per thread: 2
  We computed 5393426 shell quartets total.
  Whereas there are 6374235 unique shell quartets.

  ==> DiskJK: Disk-Based J/K Matrices <==

    J tasked:                  Yes
    K tasked:                  Yes
    wK tasked:                  No
    Memory [MiB]:              375
    Schwarz Cutoff:          1E-12

    OpenMP threads:              1

  Minimum eigenvalue in the overlap matrix is 3.5014597116E-03.
  Using Symmetric Orthogonalization.

  SCF Guess: Superposition of Atomic Densities via on-the-fly atomic UHF.

  ==> Iterations <==

                        Total Energy        Delta E     RMS |[F,P]|

   @RHF iter SAD:  -472.47276224207303   -4.72473e+02   0.00000e+00
   @RHF iter   1:  -473.91144086550929   -1.43868e+00   4.88181e-03 DIIS
   @RHF iter   2:  -474.17690778952942   -2.65467e-01   2.86454e-03 DIIS
   @RHF iter   3:  -474.26680306072092   -8.98953e-02   4.53464e-04 DIIS
   @RHF iter   4:  -474.27081783265248   -4.01477e-03   1.82521e-04 DIIS
   @RHF iter   5:  -474.27151922640104   -7.01394e-04   3.85744e-05 DIIS
   @RHF iter   6:  -474.27155955392828   -4.03275e-05   2.00846e-05 DIIS
   @RHF iter   7:  -474.27156872521704   -9.17129e-06   5.69078e-06 DIIS
   @RHF iter   8:  -474.27157023427566   -1.50906e-06   2.36138e-06 DIIS
   @RHF iter   9:  -474.27157046112370   -2.26848e-07   8.65388e-07 DIIS
   @RHF iter  10:  -474.27157049121422   -3.00905e-08   2.65997e-07 DIIS
   @RHF iter  11:  -474.27157049320346   -1.98924e-09   1.01755e-07 DIIS
   @RHF iter  12:  -474.27157049342941   -2.25953e-10   2.92761e-08 DIIS
   @RHF iter  13:  -474.27157049345408   -2.46700e-11   8.83295e-09 DIIS
   @RHF iter  14:  -474.27157049345573   -1.64846e-12   2.94724e-09 DIIS
   @RHF iter  15:  -474.27157049345885   -3.12639e-12   1.25629e-09 DIIS
   @RHF iter  16:  -474.27157049346044   -1.59162e-12   5.85068e-10 DIIS
   @RHF iter  17:  -474.27157049345954    9.09495e-13   2.59308e-10 DIIS
   @RHF iter  18:  -474.27157049346090   -1.36424e-12   8.25796e-11 DIIS
  Energy and wave function converged.

  ==> Post-Iterations <==

    Orbital Energies [Eh]
    ---------------------

    Doubly Occupied:

       1A    -20.377483     2A    -20.264042     3A    -20.258660
       4A    -15.466900     5A    -11.219704     6A    -11.131048
       7A    -11.119274     8A    -11.105596     9A    -11.058368
      10A     -1.241587    11A     -1.151896    12A     -1.095810
      13A     -1.037299    14A     -0.931311    15A     -0.802986
      16A     -0.774783    17A     -0.670893    18A     -0.615787
      19A     -0.530405    20A     -0.505886    21A     -0.501451
      22A     -0.474653    23A     -0.440459    24A     -0.424937
      25A     -0.418044    26A     -0.412729    27A     -0.406362
      28A     -0.392053    29A     -0.371991    30A     -0.345188
      31A     -0.306397    32A     -0.282619    33A     -0.279471
      34A     -0.187184    35A     -0.173172    36A     -0.162134

    Virtual:

      37A      0.270011    38A      0.309224    39A      0.328200
      40A      0.339601    41A      0.341473    42A      0.357246
      43A      0.379514    44A      0.390095    45A      0.399962
      46A      0.428413    47A      0.461761    48A      0.486278
      49A      0.514300    50A      0.530953    51A      0.567791
      52A      0.599676    53A      0.689657    54A      0.693201
      55A      0.704143    56A      0.726674    57A      0.747215
      58A      0.785837    59A      0.813591    60A      0.824334
      61A      0.838556    62A      0.862118    63A      0.875406
      64A      0.908445    65A      0.931902    66A      0.949669
      67A      0.962571    68A      0.978099    69A      0.984167
      70A      1.000535    71A      1.010221    72A      1.017838
      73A      1.028810    74A      1.031768    75A      1.039991
      76A      1.045572    77A      1.070879    78A      1.086790
      79A      1.104102    80A      1.139153    81A      1.155311
      82A      1.190407    83A      1.219058    84A      1.223537
      85A      1.245958    86A      1.315639    87A      1.336356
      88A      1.347694    89A      1.385377    90A      1.411439
      91A      1.427237    92A      1.477768    93A      1.493860
      94A      1.529858    95A      1.547283    96A      1.551966
      97A      1.557960    98A      1.585048    99A      1.587969
     100A      1.611684   101A      1.622838   102A      1.668266
     103A      1.682375   104A      1.715995   105A      1.765044
     106A      1.772323   107A      1.804301   108A      1.834051
     109A      1.837366   110A      1.854724   111A      1.890203
     112A      1.942609   113A      1.964261   114A      1.999477
     115A      2.009224   116A      2.031113   117A      2.046339
     118A      2.055951   119A      2.061475   120A      2.085150
     121A      2.095411   122A      2.103322   123A      2.129149
     124A      2.138683   125A      2.139314   126A      2.147341
     127A      2.149459   128A      2.206294   129A      2.219782
     130A      2.243508   131A      2.290366   132A      2.358173
     133A      2.381866   134A      2.403098   135A      2.417528
     136A      2.429560   137A      2.457581   138A      2.492489
     139A      2.523526   140A      2.562926   141A      2.616151
     142A      2.637606   143A      2.666367   144A      2.672555
     145A      2.678470   146A      2.719054   147A      2.733274
     148A      2.767942   149A      2.780825   150A      2.854179
     151A      2.860301   152A      2.909976   153A      2.948110
     154A      2.962445   155A      2.976316   156A      3.000866
     157A      3.049009   158A      3.101357   159A      3.144553
     160A      3.221960   161A      3.241777   162A      3.267481
     163A      3.281721   164A      3.293217   165A      3.364052
     166A      3.429017   167A      3.639555   168A      3.642291
     169A      3.662060   170A      3.772420   171A      3.830713
     172A      3.987482   173A      4.026089   174A      4.067451
     175A      4.080596   176A      4.193939

    Final Occupation by Irrep:
              A
    DOCC [    36 ]

  @RHF Final Energy:  -474.27157049346090

   => Energetics <=

    Nuclear Repulsion Energy =            435.8060457949979423
    One-Electron Energy =               -1526.2781049213301685
    Two-Electron Energy =                 616.2004886328712701
    Total Energy =                       -474.2715704934608993

Computation Completed

Properties will be evaluated at   0.000000,   0.000000,   0.000000 [a0]

Properties computed using the SCF density matrix

  Nuclear Dipole Moment: [e a0]
     X:    -0.7987      Y:     6.5437      Z:    10.4064

  Electronic Dipole Moment: [e a0]
     X:    -1.8975      Y:    -4.9603      Z:    -7.3418

  Dipole Moment: [e a0]
     X:    -2.6961      Y:     1.5834      Z:     3.0646     Total:     4.3782

  Dipole Moment: [D]
     X:    -6.8528      Y:     4.0246      Z:     7.7896     Total:    11.1282

*** tstop() called on ds3 at Mon Apr 27 21:42:09 2020
Module time:
	user time   =      43.89 seconds =       0.73 minutes
	system time =      20.42 seconds =       0.34 minutes
	total time  =         62 seconds =       1.03 minutes
Total time:
	user time   =      43.89 seconds =       0.73 minutes
	system time =      20.42 seconds =       0.34 minutes
	total time  =         62 seconds =       1.03 minutes
                                     G D M A

                                 by Anthony Stone

                           version 2.2.06, 22 June 2011

               Distributed Multipoles from Gaussian wavefunctions

Starting at 21:42:9 on 27 Apr 2020

Using SCF density matrix from file ./SSI/SSI-055ASN-058GLU-1-dimer.test.9967.fchk

                         Distributed Multipole Analysis

Standard DMA

Positions and radii in angstrom
Multipole moments in atomic units, ea_0^k for rank k

C          x = -0.963392  y =  1.326283  z =  0.116379 angstrom
           Maximum rank =  0   Radius =  0.650 angstrom
                   Q00  =  -0.073455

C          x = -1.259392  y =  1.999283  z =  1.467379 angstrom
           Maximum rank =  0   Radius =  0.650 angstrom
                   Q00  =  -0.237466

C          x = -1.994392  y =  0.282283  z = -0.262621 angstrom
           Maximum rank =  0   Radius =  0.650 angstrom
                   Q00  =   0.830860

O          x = -2.312392  y =  0.113283  z = -1.437621 angstrom
           Maximum rank =  0   Radius =  0.650 angstrom
                   Q00  =  -0.799989

N          x = -2.525392  y = -0.432717  z =  0.722379 angstrom
           Maximum rank =  0   Radius =  0.650 angstrom
                   Q00  =  -0.520929

H          x = -0.899392  y =  2.067283  z = -0.677621 angstrom
           Maximum rank =  0   Radius =  0.325 angstrom
                   Q00  =   0.068941

H          x = -0.001392  y =  0.838283  z =  0.181379 angstrom
           Maximum rank =  0   Radius =  0.325 angstrom
                   Q00  =   0.138914

H          x = -1.218392  y =  1.229283  z =  2.234379 angstrom
           Maximum rank =  0   Radius =  0.325 angstrom
                   Q00  =   0.054699

H          x = -3.204392  y = -1.138717  z =  0.478379 angstrom
           Maximum rank =  0   Radius =  0.325 angstrom
                   Q00  =   0.197121

H          x = -2.188392  y = -0.351717  z =  1.662379 angstrom
           Maximum rank =  0   Radius =  0.325 angstrom
                   Q00  =   0.197640

H          x = -2.271752  y =  2.428953  z =  1.489993 angstrom
           Maximum rank =  0   Radius =  0.325 angstrom
                   Q00  =   0.050495

H          x = -0.451616  y =  2.693723  z =  1.741691 angstrom
           Maximum rank =  0   Radius =  0.325 angstrom
                   Q00  =   0.076286

C          x =  2.947608  y = -0.362717  z =  1.018379 angstrom
           Maximum rank =  0   Radius =  0.650 angstrom
                   Q00  =  -0.285804

C          x =  2.219608  y = -0.819717  z = -0.237621 angstrom
           Maximum rank =  0   Radius =  0.650 angstrom
                   Q00  =   0.969448

O          x =  2.800608  y = -0.699717  z = -1.337621 angstrom
           Maximum rank =  0   Radius =  0.650 angstrom
                   Q00  =  -0.921864

O          x =  1.064608  y = -1.294717  z = -0.134621 angstrom
           Maximum rank =  0   Radius =  0.650 angstrom
                   Q00  =  -0.931521

H          x =  3.542608  y = -1.190717  z =  1.414379 angstrom
           Maximum rank =  0   Radius =  0.325 angstrom
                   Q00  =   0.083490

H          x =  2.213608  y = -0.078717  z =  1.776379 angstrom
           Maximum rank =  0   Radius =  0.325 angstrom
                   Q00  =   0.044083

H          x =  3.611405  y =  0.490843  z =  0.816349 angstrom
           Maximum rank =  0   Radius =  0.325 angstrom
                   Q00  =   0.059052

Total multipoles referred to origin at
           x =   0.000000,  y =    0.000000,  z =    0.000000 angstrom
                   Q00  =  -1.000000

Finished at 21:42:9 on 27 Apr 2020

  DMA results are available in the Python driver through the
	  variable('DMA DISTRIBUTED MULTIPOLES')
  and
	  variable('DMA TOTAL MULTIPOLES')
  commands.

    Psi4 stopped on: Monday, 27 April 2020 09:42PM
    Psi4 wall time for execution: 0:01:02.71

*** Psi4 exiting successfully. Buy a developer a beer!
