                               Psi4 1.3.2 release

  ==> Input File <==

--------------------------------------------------------------------------
import numpy as np
set {scf_type pk
basis cc-pvdz
d_convergence 10
gdma_switch   0
gdma_limit    0
gdma_origin   [ 0.0,  0.0,  0.0 ]
}
molecule test {
    units Angstrom
    -1 1
    --
    -1 1
    C               -2.027833708606551     2.861006005877441     2.328334896381523
    C               -0.489833708606552     1.133006005877441    -0.460665103618477
    C               -1.284833708606552     1.923006005877441     1.427334896381523
    C               -0.659833708606552     0.750006005877441     1.700334896381523
    N               -1.171833708606552     2.144006005877441     0.067334896381523
    N               -0.168833708606552     0.280006005877441     0.504334896381523
    H               -0.251833708606552     1.009006005877441    -1.511665103618477
    H                0.292166291393448    -0.617993994122559     0.343334896381523
    H               -0.554833708606552     0.297006005877441     2.675334896381523
    H               -1.600833708606552     3.854006005877441     2.187334896381523
    H               -1.876833708606552     2.571006005877441     3.368334896381523
    H               -3.102703708606552     2.896286005877442     2.097233996381523
    C                2.528166291393449    -2.873993994122559    -1.588665103618477
    C                1.281166291393449    -2.056993994122559    -1.286665103618477
    O                0.688166291393448    -2.217993994122558    -0.195665103618477
    O                0.888166291393448    -1.254993994122559    -2.154665103618477
    H                3.333166291393448    -2.216993994122559    -1.916665103618477
    H                2.296166291393448    -3.557993994122559    -2.407665103618477
    H                2.850886291393449    -3.466243994122558    -0.719701103618477

}
e, wfn = energy('scf', return_wfn=True)
gdma(wfn)
dmavals = variable('DMA DISTRIBUTED MULTIPOLES')
charges = np.array(dmavals)
print(charges)
np.save('SSI-048HIE-178ASP-1-dimer.npy', np.array(charges))--------------------------------------------------------------------------

*** tstart() called on ds3
*** at Mon Apr 27 13:13:15 2020

   => Loading Basis Set <=

    Name: CC-PVDZ
    Role: ORBITAL
    Keyword: BASIS
    atoms 1-4, 13-14  entry C          line   138 file /theoryfs2/ds/metcalf/miniconda2/envs/tf2gpu/share/psi4/basis/cc-pvdz.gbs
    atoms 5-6         entry N          line   168 file /theoryfs2/ds/metcalf/miniconda2/envs/tf2gpu/share/psi4/basis/cc-pvdz.gbs
    atoms 7-12, 17-19 entry H          line    22 file /theoryfs2/ds/metcalf/miniconda2/envs/tf2gpu/share/psi4/basis/cc-pvdz.gbs
    atoms 15-16       entry O          line   198 file /theoryfs2/ds/metcalf/miniconda2/envs/tf2gpu/share/psi4/basis/cc-pvdz.gbs

         ---------------------------------------------------------
                                   SCF
               by Justin Turney, Rob Parrish, Andy Simmonett
                          and Daniel G. A. Smith
                              RHF Reference
                        1 Threads,    500 MiB Core
         ---------------------------------------------------------

  ==> Geometry <==

    Molecular point group: c1
    Full point group: C1

    Geometry (in Angstrom), charge = -1, multiplicity = 1:

       Center              X                  Y                   Z               Mass
    ------------   -----------------  -----------------  -----------------  -----------------
         C           -2.027833708607     2.861006005877     2.328334896382    12.000000000000
         C           -0.489833708607     1.133006005877    -0.460665103618    12.000000000000
         C           -1.284833708607     1.923006005877     1.427334896382    12.000000000000
         C           -0.659833708607     0.750006005877     1.700334896382    12.000000000000
         N           -1.171833708607     2.144006005877     0.067334896382    14.003074004430
         N           -0.168833708607     0.280006005877     0.504334896382    14.003074004430
         H           -0.251833708607     1.009006005877    -1.511665103618     1.007825032230
         H            0.292166291393    -0.617993994123     0.343334896382     1.007825032230
         H           -0.554833708607     0.297006005877     2.675334896382     1.007825032230
         H           -1.600833708607     3.854006005877     2.187334896382     1.007825032230
         H           -1.876833708607     2.571006005877     3.368334896382     1.007825032230
         H           -3.102703708607     2.896286005877     2.097233996382     1.007825032230
         C            2.528166291393    -2.873993994123    -1.588665103618    12.000000000000
         C            1.281166291393    -2.056993994123    -1.286665103618    12.000000000000
         O            0.688166291393    -2.217993994123    -0.195665103618    15.994914619570
         O            0.888166291393    -1.254993994123    -2.154665103618    15.994914619570
         H            3.333166291393    -2.216993994123    -1.916665103618     1.007825032230
         H            2.296166291393    -3.557993994123    -2.407665103618     1.007825032230
         H            2.850886291393    -3.466243994123    -0.719701103618     1.007825032230

  Running in c1 symmetry.

  Rotational constants: A =      0.15465  B =      0.01687  C =      0.01557 [cm^-1]
  Rotational constants: A =   4636.34021  B =    505.68733  C =    466.68716 [MHz]
  Nuclear repulsion =  492.883122027778313

  Charge       = -1
  Multiplicity = 1
  Electrons    = 76
  Nalpha       = 38
  Nbeta        = 38

  ==> Algorithm <==

  SCF Algorithm Type is PK.
  DIIS enabled.
  MOM disabled.
  Fractional occupation disabled.
  Guess Type is SAD.
  Energy threshold   = 1.00e-06
  Density threshold  = 1.00e-10
  Integral threshold = 0.00e+00

  ==> Primary Basis <==

  Basis Set: CC-PVDZ
    Blend: CC-PVDZ
    Number of shells: 87
    Number of basis function: 185
    Number of Cartesian functions: 195
    Spherical Harmonics?: true
    Max angular momentum: 2

  ==> Pre-Iterations <==

   -------------------------------------------------------
    Irrep   Nso     Nmo     Nalpha   Nbeta   Ndocc  Nsocc
   -------------------------------------------------------
     A        185     185       0       0       0       0
   -------------------------------------------------------
    Total     185     185      38      38      38       0
   -------------------------------------------------------

  ==> Integral Setup <==

  Using integral reordering PK algorithm.
  Sizing the integral batches needed.
  Building batch lookup table.
   Calculation information:
      Number of atoms:                  19
      Number of AO shells:              87
      Number of primitives:            265
      Number of atomic orbitals:       195
      Number of basis functions:       185

      Integral cutoff                 1.00e-12
      Number of threads:                 1

	Batch   1 pq = [       0,    9405] index = [             0,44231715] size =     44231715
	Batch   2 pq = [    9405,   13301] index = [      44231715,88464951] size =     44233236
	Batch   3 pq = [   13301,   16290] index = [      88464951,132690195] size =     44225244
	Batch   4 pq = [   16290,   17205] index = [     132690195,148014615] size =     15324420
  Task number: 14
  Buffer size: 11059200
  Buffer per thread: 2
  We computed 5303148 shell quartets total.
  Whereas there are 7328706 unique shell quartets.

  ==> DiskJK: Disk-Based J/K Matrices <==

    J tasked:                  Yes
    K tasked:                  Yes
    wK tasked:                  No
    Memory [MiB]:              375
    Schwarz Cutoff:          1E-12

    OpenMP threads:              1

  Minimum eigenvalue in the overlap matrix is 1.2006622264E-03.
  Using Symmetric Orthogonalization.

  SCF Guess: Superposition of Atomic Densities via on-the-fly atomic UHF.

  ==> Iterations <==

                        Total Energy        Delta E     RMS |[F,P]|

   @RHF iter SAD:  -489.82512817715497   -4.89825e+02   0.00000e+00
   @RHF iter   1:  -490.86231358291616   -1.03719e+00   4.09050e-03 DIIS
   @RHF iter   2:  -491.08631755681779   -2.24004e-01   2.26719e-03 DIIS
   @RHF iter   3:  -491.15197248083012   -6.56549e-02   3.88060e-04 DIIS
   @RHF iter   4:  -491.15523315966414   -3.26068e-03   1.48379e-04 DIIS
   @RHF iter   5:  -491.15570619157006   -4.73032e-04   3.19052e-05 DIIS
   @RHF iter   6:  -491.15572950588012   -2.33143e-05   1.35579e-05 DIIS
   @RHF iter   7:  -491.15573371880618   -4.21293e-06   3.04279e-06 DIIS
   @RHF iter   8:  -491.15573422400013   -5.05194e-07   1.46496e-06 DIIS
   @RHF iter   9:  -491.15573434508792   -1.21088e-07   6.55638e-07 DIIS
   @RHF iter  10:  -491.15573437262015   -2.75322e-08   1.81860e-07 DIIS
   @RHF iter  11:  -491.15573437509238   -2.47223e-09   4.60004e-08 DIIS
   @RHF iter  12:  -491.15573437521033   -1.17950e-10   2.32752e-08 DIIS
   @RHF iter  13:  -491.15573437523040   -2.00657e-11   7.61272e-09 DIIS
   @RHF iter  14:  -491.15573437523250   -2.10321e-12   3.56326e-09 DIIS
   @RHF iter  15:  -491.15573437523409   -1.59162e-12   1.30469e-09 DIIS
   @RHF iter  16:  -491.15573437523301    1.08002e-12   5.17627e-10 DIIS
   @RHF iter  17:  -491.15573437523312   -1.13687e-13   2.18976e-10 DIIS
   @RHF iter  18:  -491.15573437523261    5.11591e-13   6.22141e-11 DIIS
  Energy and wave function converged.

  ==> Post-Iterations <==

    Orbital Energies [Eh]
    ---------------------

    Doubly Occupied:

       1A    -20.305205     2A    -20.298366     3A    -15.443306
       4A    -15.381194     5A    -11.155468     6A    -11.135506
       7A    -11.116837     8A    -11.107983     9A    -11.103202
      10A    -11.077230    11A     -1.197335    12A     -1.182924
      13A     -1.081056    14A     -0.998204    15A     -0.898628
      16A     -0.825671    17A     -0.809873    18A     -0.658593
      19A     -0.614998    20A     -0.591602    21A     -0.534895
      22A     -0.473919    23A     -0.469172    24A     -0.449684
      25A     -0.444664    26A     -0.441407    27A     -0.439369
      28A     -0.420696    29A     -0.413434    30A     -0.397794
      31A     -0.376019    32A     -0.341980    33A     -0.270960
      34A     -0.230987    35A     -0.221104    36A     -0.213662
      37A     -0.206433    38A     -0.168485

    Virtual:

      39A      0.301139    40A      0.333220    41A      0.336631
      42A      0.346402    43A      0.347498    44A      0.368797
      45A      0.379464    46A      0.394514    47A      0.403520
      48A      0.415748    49A      0.449880    50A      0.477796
      51A      0.500712    52A      0.543426    53A      0.550560
      54A      0.585102    55A      0.619650    56A      0.621066
      57A      0.701185    58A      0.723879    59A      0.741592
      60A      0.754179    61A      0.756707    62A      0.793177
      63A      0.804958    64A      0.838158    65A      0.855827
      66A      0.861900    67A      0.881270    68A      0.901573
      69A      0.922106    70A      0.930796    71A      0.942721
      72A      0.955250    73A      0.964575    74A      0.992452
      75A      0.992991    76A      1.006348    77A      1.010011
      78A      1.013791    79A      1.026269    80A      1.044789
      81A      1.064381    82A      1.092764    83A      1.098876
      84A      1.114920    85A      1.117069    86A      1.179522
      87A      1.217376    88A      1.223485    89A      1.224244
      90A      1.238013    91A      1.270287    92A      1.291516
      93A      1.306269    94A      1.330645    95A      1.363404
      96A      1.383883    97A      1.405305    98A      1.442052
      99A      1.460453   100A      1.481743   101A      1.502294
     102A      1.509114   103A      1.541488   104A      1.563847
     105A      1.573271   106A      1.592298   107A      1.619896
     108A      1.636369   109A      1.642780   110A      1.681318
     111A      1.699131   112A      1.727100   113A      1.750427
     114A      1.765958   115A      1.789696   116A      1.815162
     117A      1.818145   118A      1.839521   119A      1.898882
     120A      1.938314   121A      1.956197   122A      1.962679
     123A      1.997812   124A      2.020591   125A      2.037987
     126A      2.052914   127A      2.059262   128A      2.072759
     129A      2.077784   130A      2.097618   131A      2.120259
     132A      2.129077   133A      2.149626   134A      2.169846
     135A      2.183935   136A      2.223018   137A      2.250438
     138A      2.251242   139A      2.282100   140A      2.296177
     141A      2.327249   142A      2.342389   143A      2.369925
     144A      2.400378   145A      2.406615   146A      2.462499
     147A      2.496125   148A      2.527589   149A      2.547862
     150A      2.602465   151A      2.621629   152A      2.627860
     153A      2.636154   154A      2.674963   155A      2.723810
     156A      2.764749   157A      2.777193   158A      2.819347
     159A      2.863337   160A      2.888898   161A      2.891561
     162A      2.901959   163A      2.929776   164A      2.953095
     165A      2.963727   166A      2.971900   167A      3.015234
     168A      3.026220   169A      3.054787   170A      3.103433
     171A      3.204187   172A      3.233589   173A      3.246289
     174A      3.319931   175A      3.354412   176A      3.391743
     177A      3.438609   178A      3.608252   179A      3.628892
     180A      3.751497   181A      3.789741   182A      4.004538
     183A      4.045726   184A      4.054481   185A      4.178907

    Final Occupation by Irrep:
              A
    DOCC [    38 ]

  @RHF Final Energy:  -491.15573437523261

   => Energetics <=

    Nuclear Repulsion Energy =            492.8831220277783132
    One-Electron Energy =               -1661.0820202349661940
    Two-Electron Energy =                 677.0431638319553258
    Total Energy =                       -491.1557343752326688

Computation Completed

Properties will be evaluated at   0.000000,   0.000000,   0.000000 [a0]

Properties computed using the SCF density matrix

  Nuclear Dipole Moment: [e a0]
     X:     1.3102      Y:     0.6963      Z:     3.8456

  Electronic Dipole Moment: [e a0]
     X:    -1.2959      Y:     0.1029      Z:    -2.2761

  Dipole Moment: [e a0]
     X:     0.0143      Y:     0.7992      Z:     1.5695     Total:     1.7613

  Dipole Moment: [D]
     X:     0.0363      Y:     2.0314      Z:     3.9892     Total:     4.4768

*** tstop() called on ds3 at Mon Apr 27 13:14:30 2020
Module time:
	user time   =      50.70 seconds =       0.85 minutes
	system time =      27.51 seconds =       0.46 minutes
	total time  =         75 seconds =       1.25 minutes
Total time:
	user time   =      50.70 seconds =       0.85 minutes
	system time =      27.51 seconds =       0.46 minutes
	total time  =         75 seconds =       1.25 minutes
                                     G D M A

                                 by Anthony Stone

                           version 2.2.06, 22 June 2011

               Distributed Multipoles from Gaussian wavefunctions

Starting at 13:14:30 on 27 Apr 2020

Using SCF density matrix from file ./SSI/SSI-048HIE-178ASP-1-dimer.test.5818.fchk

                         Distributed Multipole Analysis

Standard DMA

Positions and radii in angstrom
Multipole moments in atomic units, ea_0^k for rank k

C          x = -2.027834  y =  2.861006  z =  2.328335 angstrom
           Maximum rank =  0   Radius =  0.650 angstrom
                   Q00  =  -0.184362

C          x = -0.489834  y =  1.133006  z = -0.460665 angstrom
           Maximum rank =  0   Radius =  0.650 angstrom
                   Q00  =   0.492878

C          x = -1.284834  y =  1.923006  z =  1.427335 angstrom
           Maximum rank =  0   Radius =  0.650 angstrom
                   Q00  =   0.185809

C          x = -0.659834  y =  0.750006  z =  1.700335 angstrom
           Maximum rank =  0   Radius =  0.650 angstrom
                   Q00  =   0.031314

N          x = -1.171834  y =  2.144006  z =  0.067335 angstrom
           Maximum rank =  0   Radius =  0.650 angstrom
                   Q00  =  -0.796678

N          x = -0.168834  y =  0.280006  z =  0.504335 angstrom
           Maximum rank =  0   Radius =  0.650 angstrom
                   Q00  =  -0.529672

H          x = -0.251834  y =  1.009006  z = -1.511665 angstrom
           Maximum rank =  0   Radius =  0.325 angstrom
                   Q00  =   0.129093

H          x =  0.292166  y = -0.617994  z =  0.343335 angstrom
           Maximum rank =  0   Radius =  0.325 angstrom
                   Q00  =   0.330604

H          x = -0.554834  y =  0.297006  z =  2.675335 angstrom
           Maximum rank =  0   Radius =  0.325 angstrom
                   Q00  =   0.065289

H          x = -1.600834  y =  3.854006  z =  2.187335 angstrom
           Maximum rank =  0   Radius =  0.325 angstrom
                   Q00  =   0.084922

H          x = -1.876834  y =  2.571006  z =  3.368335 angstrom
           Maximum rank =  0   Radius =  0.325 angstrom
                   Q00  =   0.073762

H          x = -3.102704  y =  2.896286  z =  2.097234 angstrom
           Maximum rank =  0   Radius =  0.325 angstrom
                   Q00  =   0.084853

C          x =  2.528166  y = -2.873994  z = -1.588665 angstrom
           Maximum rank =  0   Radius =  0.650 angstrom
                   Q00  =  -0.271221

C          x =  1.281166  y = -2.056994  z = -1.286665 angstrom
           Maximum rank =  0   Radius =  0.650 angstrom
                   Q00  =   0.921059

O          x =  0.688166  y = -2.217994  z = -0.195665 angstrom
           Maximum rank =  0   Radius =  0.650 angstrom
                   Q00  =  -0.934619

O          x =  0.888166  y = -1.254994  z = -2.154665 angstrom
           Maximum rank =  0   Radius =  0.650 angstrom
                   Q00  =  -0.904695

H          x =  3.333166  y = -2.216994  z = -1.916665 angstrom
           Maximum rank =  0   Radius =  0.325 angstrom
                   Q00  =   0.076430

H          x =  2.296166  y = -3.557994  z = -2.407665 angstrom
           Maximum rank =  0   Radius =  0.325 angstrom
                   Q00  =   0.086386

H          x =  2.850886  y = -3.466244  z = -0.719701 angstrom
           Maximum rank =  0   Radius =  0.325 angstrom
                   Q00  =   0.058849

Total multipoles referred to origin at
           x =   0.000000,  y =    0.000000,  z =    0.000000 angstrom
                   Q00  =  -1.000000

Finished at 13:14:30 on 27 Apr 2020

  DMA results are available in the Python driver through the
	  variable('DMA DISTRIBUTED MULTIPOLES')
  and
	  variable('DMA TOTAL MULTIPOLES')
  commands.

    Psi4 stopped on: Monday, 27 April 2020 01:14PM
    Psi4 wall time for execution: 0:01:15.35

*** Psi4 exiting successfully. Buy a developer a beer!
