                               Psi4 1.3.2 release

  ==> Input File <==

--------------------------------------------------------------------------
import numpy as np
set {scf_type pk
basis cc-pvdz
d_convergence 10
gdma_switch   0
gdma_limit    0
gdma_origin   [ 0.0,  0.0,  0.0 ]
}
molecule test {
    units Angstrom
    0 1
    --
    0 1
    C               -4.483210935296520    -1.572357175752863     0.848230424438573
    C               -1.914210935296520    -1.708357175752863     0.580230424438573
    C               -3.140210935296520    -2.261357175752863     1.018230424438573
    C               -0.717210935296520    -2.408357175752863     0.765230424438573
    C               -0.738210935296520    -3.673357175752863     1.363230424438573
    C               -3.119210935296520    -3.498357175752863     1.646230424438573
    C               -1.941210935296519    -4.201357175752863     1.801230424438573
    H               -1.910210935296520    -0.753357175752863     0.081230424438573
    H                0.218789064703480    -1.980357175752863     0.438230424438573
    H               -4.508210935296520    -0.702357175752863     1.499230424438573
    H               -5.284210935296520    -2.238357175752863     1.171230424438573
    H                0.180789064703480    -4.228357175752863     1.495230424438573
    H               -4.040210935296520    -3.940357175752863     2.001230424438573
    H               -1.957210935296519    -5.174357175752863     2.273230424438573
    H               -4.688880935296520    -1.242577175752863    -0.180819575561427
    C                4.452789064703481     2.630642824247137    -1.543769575561427
    C                1.145789064703481     1.492642824247137    -0.098769575561427
    C                1.893789064703481     2.141642824247137    -1.132769575561427
    C                3.293789064703481     2.057642824247137    -0.775769575561427
    C                3.327789064703480     1.427642824247137     0.438230424438573
    C               -0.243210935296520     1.379642824247137    -0.137769575561427
    C               -0.889210935296520     1.888642824247137    -1.237769575561427
    C               -0.206210935296520     2.515642824247137    -2.250769575561427
    C                1.180789064703480     2.647642824247137    -2.230769575561427
    N                2.052789064703481     1.065642824247137     0.843230424438573
    H               -0.779210935296520     0.934642824247137     0.684230424438573
    H               -1.967210935296519     1.813642824247137    -1.299769575561427
    H                1.839789064703480     0.587642824247137     1.711230424438573
    H               -0.768210935296520     2.920642824247137    -3.079769575561427
    H                4.227789064703480     1.233642824247137     1.004230424438573
    H                1.703789064703481     3.139642824247137    -3.039769575561427
    H                5.234789064703480     2.935642824247137    -0.848769575561427
    H                4.081789064703480     3.526642824247137    -2.039769575561427
    H                4.866959064703481     1.955722824247137    -2.307279575561427

}
e, wfn = energy('scf', return_wfn=True)
gdma(wfn)
dmavals = variable('DMA DISTRIBUTED MULTIPOLES')
charges = np.array(dmavals)
print(charges)
np.save('SSI-121PHE-219TRP-1-dimer.npy', np.array(charges))--------------------------------------------------------------------------

*** tstart() called on ds3
*** at Sun Apr 26 21:27:24 2020

   => Loading Basis Set <=

    Name: CC-PVDZ
    Role: ORBITAL
    Keyword: BASIS
    atoms 1-7, 16-24  entry C          line   138 file /theoryfs2/ds/metcalf/miniconda2/envs/tf2gpu/share/psi4/basis/cc-pvdz.gbs
    atoms 8-15, 26-34 entry H          line    22 file /theoryfs2/ds/metcalf/miniconda2/envs/tf2gpu/share/psi4/basis/cc-pvdz.gbs
    atoms 25          entry N          line   168 file /theoryfs2/ds/metcalf/miniconda2/envs/tf2gpu/share/psi4/basis/cc-pvdz.gbs

         ---------------------------------------------------------
                                   SCF
               by Justin Turney, Rob Parrish, Andy Simmonett
                          and Daniel G. A. Smith
                              RHF Reference
                        1 Threads,    500 MiB Core
         ---------------------------------------------------------

  ==> Geometry <==

    Molecular point group: c1
    Full point group: C1

    Geometry (in Angstrom), charge = 0, multiplicity = 1:

       Center              X                  Y                   Z               Mass
    ------------   -----------------  -----------------  -----------------  -----------------
         C           -4.483210935297    -1.572357175753     0.848230424439    12.000000000000
         C           -1.914210935297    -1.708357175753     0.580230424439    12.000000000000
         C           -3.140210935297    -2.261357175753     1.018230424439    12.000000000000
         C           -0.717210935297    -2.408357175753     0.765230424439    12.000000000000
         C           -0.738210935297    -3.673357175753     1.363230424439    12.000000000000
         C           -3.119210935297    -3.498357175753     1.646230424439    12.000000000000
         C           -1.941210935297    -4.201357175753     1.801230424439    12.000000000000
         H           -1.910210935297    -0.753357175753     0.081230424439     1.007825032230
         H            0.218789064703    -1.980357175753     0.438230424439     1.007825032230
         H           -4.508210935297    -0.702357175753     1.499230424439     1.007825032230
         H           -5.284210935297    -2.238357175753     1.171230424439     1.007825032230
         H            0.180789064703    -4.228357175753     1.495230424439     1.007825032230
         H           -4.040210935297    -3.940357175753     2.001230424439     1.007825032230
         H           -1.957210935297    -5.174357175753     2.273230424439     1.007825032230
         H           -4.688880935297    -1.242577175753    -0.180819575561     1.007825032230
         C            4.452789064703     2.630642824247    -1.543769575561    12.000000000000
         C            1.145789064703     1.492642824247    -0.098769575561    12.000000000000
         C            1.893789064703     2.141642824247    -1.132769575561    12.000000000000
         C            3.293789064703     2.057642824247    -0.775769575561    12.000000000000
         C            3.327789064703     1.427642824247     0.438230424439    12.000000000000
         C           -0.243210935297     1.379642824247    -0.137769575561    12.000000000000
         C           -0.889210935297     1.888642824247    -1.237769575561    12.000000000000
         C           -0.206210935297     2.515642824247    -2.250769575561    12.000000000000
         C            1.180789064703     2.647642824247    -2.230769575561    12.000000000000
         N            2.052789064703     1.065642824247     0.843230424439    14.003074004430
         H           -0.779210935297     0.934642824247     0.684230424439     1.007825032230
         H           -1.967210935297     1.813642824247    -1.299769575561     1.007825032230
         H            1.839789064703     0.587642824247     1.711230424439     1.007825032230
         H           -0.768210935297     2.920642824247    -3.079769575561     1.007825032230
         H            4.227789064703     1.233642824247     1.004230424439     1.007825032230
         H            1.703789064703     3.139642824247    -3.039769575561     1.007825032230
         H            5.234789064703     2.935642824247    -0.848769575561     1.007825032230
         H            4.081789064703     3.526642824247    -2.039769575561     1.007825032230
         H            4.866959064703     1.955722824247    -2.307279575561     1.007825032230

  Running in c1 symmetry.

  Rotational constants: A =      0.03023  B =      0.00642  C =      0.00553 [cm^-1]
  Rotational constants: A =    906.22946  B =    192.44885  C =    165.76780 [MHz]
  Nuclear repulsion = 1040.834031584701961

  Charge       = 0
  Multiplicity = 1
  Electrons    = 120
  Nalpha       = 60
  Nbeta        = 60

  ==> Algorithm <==

  SCF Algorithm Type is PK.
  DIIS enabled.
  MOM disabled.
  Fractional occupation disabled.
  Guess Type is SAD.
  Energy threshold   = 1.00e-06
  Density threshold  = 1.00e-10
  Integral threshold = 0.00e+00

  ==> Primary Basis <==

  Basis Set: CC-PVDZ
    Blend: CC-PVDZ
    Number of shells: 153
    Number of basis function: 323
    Number of Cartesian functions: 340
    Spherical Harmonics?: true
    Max angular momentum: 2

  ==> Pre-Iterations <==

   -------------------------------------------------------
    Irrep   Nso     Nmo     Nalpha   Nbeta   Ndocc  Nsocc
   -------------------------------------------------------
     A        323     323       0       0       0       0
   -------------------------------------------------------
    Total     323     323      60      60      60       0
   -------------------------------------------------------

  ==> Integral Setup <==

  Using integral reordering PK algorithm.
  Sizing the integral batches needed.
  Building batch lookup table.
   Calculation information:
      Number of atoms:                  34
      Number of AO shells:             153
      Number of primitives:            459
      Number of atomic orbitals:       340
      Number of basis functions:       323

      Integral cutoff                 1.00e-12
      Number of threads:                 1

	Batch   1 pq = [       0,    9405] index = [             0,44231715] size =     44231715
	Batch   2 pq = [    9405,   13301] index = [      44231715,88464951] size =     44233236
	Batch   3 pq = [   13301,   16290] index = [      88464951,132690195] size =     44225244
	Batch   4 pq = [   16290,   18810] index = [     132690195,176917455] size =     44227260
	Batch   5 pq = [   18810,   21030] index = [     176917455,221140965] size =     44223510
	Batch   6 pq = [   21030,   23037] index = [     221140965,265363203] size =     44222238
	Batch   7 pq = [   23037,   24883] index = [     265363203,309594286] size =     44231083
	Batch   8 pq = [   24883,   26601] index = [     309594286,353819901] size =     44225615
	Batch   9 pq = [   26601,   28214] index = [     353819901,398029005] size =     44209104
	Batch  10 pq = [   28214,   29740] index = [     398029005,442248670] size =     44219665
	Batch  11 pq = [   29740,   31191] index = [     442248670,486454836] size =     44206166
	Batch  12 pq = [   31191,   32578] index = [     486454836,530679331] size =     44224495
	Batch  13 pq = [   32578,   33908] index = [     530679331,574893186] size =     44213855
	Batch  14 pq = [   33908,   35188] index = [     574893186,619115266] size =     44222080
	Batch  15 pq = [   35188,   36423] index = [     619115266,663335676] size =     44220410
	Batch  16 pq = [   36423,   37617] index = [     663335676,707538153] size =     44202477
	Batch  17 pq = [   37617,   38775] index = [     707538153,751769700] size =     44231547
	Batch  18 pq = [   38775,   39899] index = [     751769700,795985050] size =     44215350
	Batch  19 pq = [   39899,   40992] index = [     795985050,840192528] size =     44207478
	Batch  20 pq = [   40992,   42057] index = [     840192528,884416653] size =     44224125
	Batch  21 pq = [   42057,   43095] index = [     884416653,928611060] size =     44194407
	Batch  22 pq = [   43095,   44109] index = [     928611060,972823995] size =     44212935
	Batch  23 pq = [   44109,   45100] index = [     972823995,1017027550] size =     44203555
	Batch  24 pq = [   45100,   46070] index = [    1017027550,1061245485] size =     44217935
	Batch  25 pq = [   46070,   47020] index = [    1061245485,1105463710] size =     44218225
	Batch  26 pq = [   47020,   47951] index = [    1105463710,1149673176] size =     44209466
	Batch  27 pq = [   47951,   48864] index = [    1149673176,1193869680] size =     44196504
	Batch  28 pq = [   48864,   49761] index = [    1193869680,1238103441] size =     44233761
	Batch  29 pq = [   49761,   50642] index = [    1238103441,1282331403] size =     44227962
	Batch  30 pq = [   50642,   51508] index = [    1282331403,1326562786] size =     44231383
	Batch  31 pq = [   51508,   52326] index = [    1326562786,1369031301] size =     42468515
  Task number: 124
  Buffer size: 11059200
  Buffer per thread: 2
  We computed 62504955 shell quartets total.
  Whereas there are 69401871 unique shell quartets.

  ==> DiskJK: Disk-Based J/K Matrices <==

    J tasked:                  Yes
    K tasked:                  Yes
    wK tasked:                  No
    Memory [MiB]:              375
    Schwarz Cutoff:          1E-12

    OpenMP threads:              1

  Minimum eigenvalue in the overlap matrix is 2.4074197493E-04.
  Using Symmetric Orthogonalization.

  SCF Guess: Superposition of Atomic Densities via on-the-fly atomic UHF.

  ==> Iterations <==

                        Total Energy        Delta E     RMS |[F,P]|

   @RHF iter SAD:  -669.49290461314160   -6.69493e+02   0.00000e+00
   @RHF iter   1:  -669.94738582280058   -4.54481e-01   2.14908e-03 DIIS
   @RHF iter   2:  -670.23815012695002   -2.90764e-01   9.32971e-04 DIIS
   @RHF iter   3:  -670.28642293670953   -4.82728e-02   2.53266e-04 DIIS
   @RHF iter   4:  -670.29104104426017   -4.61811e-03   1.12855e-04 DIIS
   @RHF iter   5:  -670.29178499758586   -7.43953e-04   1.68383e-05 DIIS
   @RHF iter   6:  -670.29181763677320   -3.26392e-05   7.57931e-06 DIIS
   @RHF iter   7:  -670.29182457253194   -6.93576e-06   2.93716e-06 DIIS
   @RHF iter   8:  -670.29182631963556   -1.74710e-06   1.22341e-06 DIIS
   @RHF iter   9:  -670.29182667472162   -3.55086e-07   5.31170e-07 DIIS
   @RHF iter  10:  -670.29182674716481   -7.24432e-08   2.34763e-07 DIIS
   @RHF iter  11:  -670.29182676433811   -1.71733e-08   9.73449e-08 DIIS
   @RHF iter  12:  -670.29182676706444   -2.72632e-09   4.07109e-08 DIIS
   @RHF iter  13:  -670.29182676737878   -3.14344e-10   1.19096e-08 DIIS
   @RHF iter  14:  -670.29182676739435   -1.55751e-11   4.88314e-09 DIIS
   @RHF iter  15:  -670.29182676739572   -1.36424e-12   2.12162e-09 DIIS
   @RHF iter  16:  -670.29182676740447   -8.75389e-12   9.91001e-10 DIIS
   @RHF iter  17:  -670.29182676740174    2.72848e-12   5.06753e-10 DIIS
   @RHF iter  18:  -670.29182676740015    1.59162e-12   1.65858e-10 DIIS
   @RHF iter  19:  -670.29182676739504    5.11591e-12   6.79157e-11 DIIS
  Energy and wave function converged.

  ==> Post-Iterations <==

    Orbital Energies [Eh]
    ---------------------

    Doubly Occupied:

       1A    -15.602824     2A    -11.267283     3A    -11.267073
       4A    -11.243555     5A    -11.237527     6A    -11.232878
       7A    -11.232776     8A    -11.232489     9A    -11.231323
      10A    -11.231059    11A    -11.229096    12A    -11.228802
      13A    -11.227534    14A    -11.225905    15A    -11.225230
      16A    -11.222495    17A    -11.218536    18A     -1.290126
      19A     -1.151106    20A     -1.132190    21A     -1.073013
      22A     -1.041941    23A     -1.011569    24A     -0.997729
      25A     -0.989542    26A     -0.932359    27A     -0.931405
      28A     -0.842117    29A     -0.823036    30A     -0.803377
      31A     -0.796444    32A     -0.752859    33A     -0.721072
      34A     -0.691289    35A     -0.661229    36A     -0.646106
      37A     -0.630587    38A     -0.629213    39A     -0.605303
      40A     -0.592979    41A     -0.590093    42A     -0.579570
      43A     -0.574414    44A     -0.569432    45A     -0.562173
      46A     -0.553172    47A     -0.538804    48A     -0.536367
      49A     -0.526259    50A     -0.494886    51A     -0.488217
      52A     -0.483635    53A     -0.481073    54A     -0.472175
      55A     -0.463944    56A     -0.373982    57A     -0.332748
      58A     -0.321011    59A     -0.295987    60A     -0.276982

    Virtual:

      61A      0.123341    62A      0.132827    63A      0.140895
      64A      0.167390    65A      0.174434    66A      0.180902
      67A      0.189853    68A      0.200192    69A      0.210964
      70A      0.219199    71A      0.227276    72A      0.229297
      73A      0.244550    74A      0.254608    75A      0.255714
      76A      0.264330    77A      0.271458    78A      0.282107
      79A      0.294394    80A      0.298702    81A      0.299272
      82A      0.322343    83A      0.364590    84A      0.372374
      85A      0.373441    86A      0.385915    87A      0.400454
      88A      0.425157    89A      0.442757    90A      0.453927
      91A      0.462697    92A      0.473707    93A      0.474805
      94A      0.486172    95A      0.497978    96A      0.514058
      97A      0.528982    98A      0.568774    99A      0.595828
     100A      0.600194   101A      0.613384   102A      0.624368
     103A      0.632130   104A      0.639167   105A      0.667754
     106A      0.675401   107A      0.690152   108A      0.693040
     109A      0.698223   110A      0.701672   111A      0.713886
     112A      0.717341   113A      0.727293   114A      0.729054
     115A      0.736593   116A      0.737434   117A      0.740854
     118A      0.745127   119A      0.748190   120A      0.753010
     121A      0.755289   122A      0.760973   123A      0.768816
     124A      0.773615   125A      0.783280   126A      0.786998
     127A      0.792191   128A      0.795751   129A      0.805545
     130A      0.829272   131A      0.842296   132A      0.851162
     133A      0.862906   134A      0.863830   135A      0.868292
     136A      0.876391   137A      0.885157   138A      0.886609
     139A      0.889490   140A      0.899071   141A      0.903210
     142A      0.909770   143A      0.917374   144A      0.924766
     145A      0.940816   146A      0.948353   147A      0.949319
     148A      0.957572   149A      0.961816   150A      0.968790
     151A      0.990166   152A      0.996414   153A      1.007399
     154A      1.013685   155A      1.042045   156A      1.054936
     157A      1.074117   158A      1.079403   159A      1.100560
     160A      1.119961   161A      1.133358   162A      1.137836
     163A      1.142808   164A      1.155273   165A      1.156593
     166A      1.157311   167A      1.165003   168A      1.182577
     169A      1.196942   170A      1.213132   171A      1.221193
     172A      1.225935   173A      1.232265   174A      1.241492
     175A      1.245335   176A      1.252477   177A      1.255949
     178A      1.270601   179A      1.279259   180A      1.290137
     181A      1.303812   182A      1.314951   183A      1.318576
     184A      1.325814   185A      1.327746   186A      1.336888
     187A      1.341493   188A      1.363438   189A      1.371942
     190A      1.410494   191A      1.422090   192A      1.449770
     193A      1.513025   194A      1.523625   195A      1.542662
     196A      1.552117   197A      1.555990   198A      1.572167
     199A      1.595546   200A      1.609487   201A      1.628887
     202A      1.642429   203A      1.649633   204A      1.676836
     205A      1.687040   206A      1.694647   207A      1.697795
     208A      1.736476   209A      1.738112   210A      1.742945
     211A      1.758691   212A      1.766965   213A      1.770553
     214A      1.788215   215A      1.788911   216A      1.812215
     217A      1.819558   218A      1.826650   219A      1.836921
     220A      1.855694   221A      1.883395   222A      1.888937
     223A      1.894337   224A      1.895306   225A      1.897638
     226A      1.904020   227A      1.909543   228A      1.918555
     229A      1.921507   230A      1.928224   231A      1.930015
     232A      1.935910   233A      1.947498   234A      1.952106
     235A      1.960128   236A      1.967267   237A      1.979984
     238A      1.984766   239A      1.995018   240A      2.004680
     241A      2.008996   242A      2.021984   243A      2.038435
     244A      2.042078   245A      2.068917   246A      2.072081
     247A      2.074365   248A      2.084961   249A      2.091058
     250A      2.097639   251A      2.114784   252A      2.118986
     253A      2.123306   254A      2.130322   255A      2.148441
     256A      2.161914   257A      2.163489   258A      2.173468
     259A      2.174591   260A      2.186081   261A      2.190878
     262A      2.203973   263A      2.222536   264A      2.248436
     265A      2.262321   266A      2.264880   267A      2.282056
     268A      2.294128   269A      2.305027   270A      2.316036
     271A      2.318107   272A      2.327723   273A      2.335596
     274A      2.360981   275A      2.374221   276A      2.398955
     277A      2.404808   278A      2.443994   279A      2.455684
     280A      2.467695   281A      2.488571   282A      2.510201
     283A      2.532373   284A      2.540589   285A      2.588130
     286A      2.593292   287A      2.626788   288A      2.635625
     289A      2.660517   290A      2.675496   291A      2.703783
     292A      2.722930   293A      2.750542   294A      2.767814
     295A      2.769843   296A      2.773483   297A      2.780779
     298A      2.790188   299A      2.809956   300A      2.825245
     301A      2.837928   302A      2.849579   303A      2.852916
     304A      2.865616   305A      2.880222   306A      2.918250
     307A      2.968973   308A      2.985998   309A      3.010115
     310A      3.025611   311A      3.031275   312A      3.050162
     313A      3.081138   314A      3.126826   315A      3.168747
     316A      3.194544   317A      3.209484   318A      3.293293
     319A      3.306652   320A      3.362312   321A      3.733630
     322A      3.958158   323A      3.962346

    Final Occupation by Irrep:
              A
    DOCC [    60 ]

  @RHF Final Energy:  -670.29182676739504

   => Energetics <=

    Nuclear Repulsion Energy =           1040.8340315847019610
    One-Electron Energy =               -2973.0159135992525989
    Two-Electron Energy =                1261.8900552471554875
    Total Energy =                       -670.2918267673951505

Computation Completed

Properties will be evaluated at   0.000000,   0.000000,   0.000000 [a0]

Properties computed using the SCF density matrix

  Nuclear Dipole Moment: [e a0]
     X:    -3.3331      Y:    -1.1395      Z:    -0.4118

  Electronic Dipole Moment: [e a0]
     X:     3.5514      Y:     0.9506      Z:     1.0430

  Dipole Moment: [e a0]
     X:     0.2182      Y:    -0.1889      Z:     0.6312     Total:     0.6941

  Dipole Moment: [D]
     X:     0.5547      Y:    -0.4801      Z:     1.6044     Total:     1.7642

*** tstop() called on ds3 at Sun Apr 26 21:52:17 2020
Module time:
	user time   =     594.30 seconds =       9.90 minutes
	system time =     236.68 seconds =       3.94 minutes
	total time  =       1493 seconds =      24.88 minutes
Total time:
	user time   =     594.30 seconds =       9.90 minutes
	system time =     236.68 seconds =       3.94 minutes
	total time  =       1493 seconds =      24.88 minutes
                                     G D M A

                                 by Anthony Stone

                           version 2.2.06, 22 June 2011

               Distributed Multipoles from Gaussian wavefunctions

Starting at 21:52:17 on 26 Apr 2020

Using SCF density matrix from file ./SSI/SSI-121PHE-219TRP-1-dimer.test.15073.fchk

                         Distributed Multipole Analysis

Standard DMA

Positions and radii in angstrom
Multipole moments in atomic units, ea_0^k for rank k

C          x = -4.483211  y = -1.572357  z =  0.848230 angstrom
           Maximum rank =  0   Radius =  0.650 angstrom
                   Q00  =  -0.213488

C          x = -1.914211  y = -1.708357  z =  0.580230 angstrom
           Maximum rank =  0   Radius =  0.650 angstrom
                   Q00  =  -0.095694

C          x = -3.140211  y = -2.261357  z =  1.018230 angstrom
           Maximum rank =  0   Radius =  0.650 angstrom
                   Q00  =  -0.101587

C          x = -0.717211  y = -2.408357  z =  0.765230 angstrom
           Maximum rank =  0   Radius =  0.650 angstrom
                   Q00  =  -0.077816

C          x = -0.738211  y = -3.673357  z =  1.363230 angstrom
           Maximum rank =  0   Radius =  0.650 angstrom
                   Q00  =  -0.093119

C          x = -3.119211  y = -3.498357  z =  1.646230 angstrom
           Maximum rank =  0   Radius =  0.650 angstrom
                   Q00  =  -0.004987

C          x = -1.941211  y = -4.201357  z =  1.801230 angstrom
           Maximum rank =  0   Radius =  0.650 angstrom
                   Q00  =  -0.021931

H          x = -1.910211  y = -0.753357  z =  0.081230 angstrom
           Maximum rank =  0   Radius =  0.325 angstrom
                   Q00  =   0.057541

H          x =  0.218789  y = -1.980357  z =  0.438230 angstrom
           Maximum rank =  0   Radius =  0.325 angstrom
                   Q00  =   0.064439

H          x = -4.508211  y = -0.702357  z =  1.499230 angstrom
           Maximum rank =  0   Radius =  0.325 angstrom
                   Q00  =   0.103049

H          x = -5.284211  y = -2.238357  z =  1.171230 angstrom
           Maximum rank =  0   Radius =  0.325 angstrom
                   Q00  =   0.099070

H          x =  0.180789  y = -4.228357  z =  1.495230 angstrom
           Maximum rank =  0   Radius =  0.325 angstrom
                   Q00  =   0.060147

H          x = -4.040211  y = -3.940357  z =  2.001230 angstrom
           Maximum rank =  0   Radius =  0.325 angstrom
                   Q00  =   0.054557

H          x = -1.957211  y = -5.174357  z =  2.273230 angstrom
           Maximum rank =  0   Radius =  0.325 angstrom
                   Q00  =   0.061389

H          x = -4.688881  y = -1.242577  z = -0.180820 angstrom
           Maximum rank =  0   Radius =  0.325 angstrom
                   Q00  =   0.104565

C          x =  4.452789  y =  2.630643  z = -1.543770 angstrom
           Maximum rank =  0   Radius =  0.650 angstrom
                   Q00  =  -0.206574

C          x =  1.145789  y =  1.492643  z = -0.098770 angstrom
           Maximum rank =  0   Radius =  0.650 angstrom
                   Q00  =   0.238519

C          x =  1.893789  y =  2.141643  z = -1.132770 angstrom
           Maximum rank =  0   Radius =  0.650 angstrom
                   Q00  =  -0.056740

C          x =  3.293789  y =  2.057643  z = -0.775770 angstrom
           Maximum rank =  0   Radius =  0.650 angstrom
                   Q00  =  -0.122473

C          x =  3.327789  y =  1.427643  z =  0.438230 angstrom
           Maximum rank =  0   Radius =  0.650 angstrom
                   Q00  =   0.075488

C          x = -0.243211  y =  1.379643  z = -0.137770 angstrom
           Maximum rank =  0   Radius =  0.650 angstrom
                   Q00  =  -0.129588

C          x = -0.889211  y =  1.888643  z = -1.237770 angstrom
           Maximum rank =  0   Radius =  0.650 angstrom
                   Q00  =  -0.029689

C          x = -0.206211  y =  2.515643  z = -2.250770 angstrom
           Maximum rank =  0   Radius =  0.650 angstrom
                   Q00  =  -0.059311

C          x =  1.180789  y =  2.647643  z = -2.230770 angstrom
           Maximum rank =  0   Radius =  0.650 angstrom
                   Q00  =  -0.094850

N          x =  2.052789  y =  1.065643  z =  0.843230 angstrom
           Maximum rank =  0   Radius =  0.650 angstrom
                   Q00  =  -0.503605

H          x = -0.779211  y =  0.934643  z =  0.684230 angstrom
           Maximum rank =  0   Radius =  0.325 angstrom
                   Q00  =   0.076359

H          x = -1.967211  y =  1.813643  z = -1.299770 angstrom
           Maximum rank =  0   Radius =  0.325 angstrom
                   Q00  =   0.058301

H          x =  1.839789  y =  0.587643  z =  1.711230 angstrom
           Maximum rank =  0   Radius =  0.325 angstrom
                   Q00  =   0.222111

H          x = -0.768211  y =  2.920643  z = -3.079770 angstrom
           Maximum rank =  0   Radius =  0.325 angstrom
                   Q00  =   0.056613

H          x =  4.227789  y =  1.233643  z =  1.004230 angstrom
           Maximum rank =  0   Radius =  0.325 angstrom
                   Q00  =   0.100749

H          x =  1.703789  y =  3.139643  z = -3.039770 angstrom
           Maximum rank =  0   Radius =  0.325 angstrom
                   Q00  =   0.070358

H          x =  5.234789  y =  2.935643  z = -0.848770 angstrom
           Maximum rank =  0   Radius =  0.325 angstrom
                   Q00  =   0.105107

H          x =  4.081789  y =  3.526643  z = -2.039770 angstrom
           Maximum rank =  0   Radius =  0.325 angstrom
                   Q00  =   0.102064

H          x =  4.866959  y =  1.955723  z = -2.307280 angstrom
           Maximum rank =  0   Radius =  0.325 angstrom
                   Q00  =   0.101026

Total multipoles referred to origin at
           x =   0.000000,  y =    0.000000,  z =    0.000000 angstrom
                   Q00  =  -0.000000

Finished at 21:52:18 on 26 Apr 2020

  DMA results are available in the Python driver through the
	  variable('DMA DISTRIBUTED MULTIPOLES')
  and
	  variable('DMA TOTAL MULTIPOLES')
  commands.

    Psi4 stopped on: Sunday, 26 April 2020 09:52PM
    Psi4 wall time for execution: 0:24:53.86

*** Psi4 exiting successfully. Buy a developer a beer!
