                               Psi4 1.3.2 release

  ==> Input File <==

--------------------------------------------------------------------------
import numpy as np
set {scf_type pk
basis cc-pvdz
d_convergence 10
gdma_switch   0
gdma_limit    0
gdma_origin   [ 0.0,  0.0,  0.0 ]
}
molecule test {
    units Angstrom
    0 1
    --
    0 1
    C               -0.781224627800661     0.093939612598728     3.199054610315774
    C                0.421775372199339     0.800939612598728     3.887054610315774
    H               -1.558224627800661     0.819939612598728     2.958054610315774
    H               -0.447224627800661    -0.385060387401272     2.281054610315774
    H               -1.193224627800661    -0.663060387401272     3.868054610315774
    H                1.168775372199339     0.034939612598728     4.106054610315773
    H                0.139435372199339     1.280315612598728     4.835994610315772
    H                0.880945372199339     1.507026612598728     3.179524610315774
    C                2.258775372199339    -0.904060387401272    -0.341945389684226
    C                0.265775372199339     0.655939612598728    -0.238945389684226
    C                0.910775372199339    -0.443060387401272    -0.829945389684226
    C               -0.996224627800661     1.089939612598728    -0.697945389684226
    C                0.285775372199339    -1.100060387401272    -1.894945389684226
    C               -1.615224627800661     0.433939612598728    -1.784945389684226
    C               -0.981224627800661    -0.655060387401272    -2.407945389684226
    H                0.744775372199339     1.234939612598728     0.500054610315774
    H               -1.492224627800661     1.900939612598728    -0.191945389684226
    H                2.140775372199339    -1.867060387401272     0.156054610315774
    H                2.643775372199339    -0.195060387401272     0.388054610315774
    H                0.756775372199339    -1.958060387401272    -2.350945389684226
    H               -2.575224627800661     0.791939612598728    -2.114945389684226
    H               -1.451224627800661    -1.165060387401272    -3.237945389684226
    H                2.992825372199339    -1.008722387401272    -1.154485389684226

}
e, wfn = energy('scf', return_wfn=True)
gdma(wfn)
dmavals = variable('DMA DISTRIBUTED MULTIPOLES')
charges = np.array(dmavals)
print(charges)
np.save('SSI-208ALA-214PHE-1-dimer.npy', np.array(charges))--------------------------------------------------------------------------

*** tstart() called on ds3
*** at Mon Apr 27 13:02:37 2020

   => Loading Basis Set <=

    Name: CC-PVDZ
    Role: ORBITAL
    Keyword: BASIS
    atoms 1-2, 9-15  entry C          line   138 file /theoryfs2/ds/metcalf/miniconda2/envs/tf2gpu/share/psi4/basis/cc-pvdz.gbs
    atoms 3-8, 16-23 entry H          line    22 file /theoryfs2/ds/metcalf/miniconda2/envs/tf2gpu/share/psi4/basis/cc-pvdz.gbs

         ---------------------------------------------------------
                                   SCF
               by Justin Turney, Rob Parrish, Andy Simmonett
                          and Daniel G. A. Smith
                              RHF Reference
                        1 Threads,    500 MiB Core
         ---------------------------------------------------------

  ==> Geometry <==

    Molecular point group: c1
    Full point group: C1

    Geometry (in Angstrom), charge = 0, multiplicity = 1:

       Center              X                  Y                   Z               Mass
    ------------   -----------------  -----------------  -----------------  -----------------
         C           -0.781224627801     0.093939612599     3.199054610316    12.000000000000
         C            0.421775372199     0.800939612599     3.887054610316    12.000000000000
         H           -1.558224627801     0.819939612599     2.958054610316     1.007825032230
         H           -0.447224627801    -0.385060387401     2.281054610316     1.007825032230
         H           -1.193224627801    -0.663060387401     3.868054610316     1.007825032230
         H            1.168775372199     0.034939612599     4.106054610316     1.007825032230
         H            0.139435372199     1.280315612599     4.835994610316     1.007825032230
         H            0.880945372199     1.507026612599     3.179524610316     1.007825032230
         C            2.258775372199    -0.904060387401    -0.341945389684    12.000000000000
         C            0.265775372199     0.655939612599    -0.238945389684    12.000000000000
         C            0.910775372199    -0.443060387401    -0.829945389684    12.000000000000
         C           -0.996224627801     1.089939612599    -0.697945389684    12.000000000000
         C            0.285775372199    -1.100060387401    -1.894945389684    12.000000000000
         C           -1.615224627801     0.433939612599    -1.784945389684    12.000000000000
         C           -0.981224627801    -0.655060387401    -2.407945389684    12.000000000000
         H            0.744775372199     1.234939612599     0.500054610316     1.007825032230
         H           -1.492224627801     1.900939612599    -0.191945389684     1.007825032230
         H            2.140775372199    -1.867060387401     0.156054610316     1.007825032230
         H            2.643775372199    -0.195060387401     0.388054610316     1.007825032230
         H            0.756775372199    -1.958060387401    -2.350945389684     1.007825032230
         H           -2.575224627801     0.791939612599    -2.114945389684     1.007825032230
         H           -1.451224627801    -1.165060387401    -3.237945389684     1.007825032230
         H            2.992825372199    -1.008722387401    -1.154485389684     1.007825032230

  Running in c1 symmetry.

  Rotational constants: A =      0.07024  B =      0.02664  C =      0.02130 [cm^-1]
  Rotational constants: A =   2105.63093  B =    798.54778  C =    638.68093 [MHz]
  Nuclear repulsion =  406.300500125864062

  Charge       = 0
  Multiplicity = 1
  Electrons    = 68
  Nalpha       = 34
  Nbeta        = 34

  ==> Algorithm <==

  SCF Algorithm Type is PK.
  DIIS enabled.
  MOM disabled.
  Fractional occupation disabled.
  Guess Type is SAD.
  Energy threshold   = 1.00e-06
  Density threshold  = 1.00e-10
  Integral threshold = 0.00e+00

  ==> Primary Basis <==

  Basis Set: CC-PVDZ
    Blend: CC-PVDZ
    Number of shells: 96
    Number of basis function: 196
    Number of Cartesian functions: 205
    Spherical Harmonics?: true
    Max angular momentum: 2

  ==> Pre-Iterations <==

   -------------------------------------------------------
    Irrep   Nso     Nmo     Nalpha   Nbeta   Ndocc  Nsocc
   -------------------------------------------------------
     A        196     196       0       0       0       0
   -------------------------------------------------------
    Total     196     196      34      34      34       0
   -------------------------------------------------------

  ==> Integral Setup <==

  Using integral reordering PK algorithm.
  Sizing the integral batches needed.
  Building batch lookup table.
   Calculation information:
      Number of atoms:                  23
      Number of AO shells:              96
      Number of primitives:            268
      Number of atomic orbitals:       205
      Number of basis functions:       196

      Integral cutoff                 1.00e-12
      Number of threads:                 1

	Batch   1 pq = [       0,    9405] index = [             0,44231715] size =     44231715
	Batch   2 pq = [    9405,   13301] index = [      44231715,88464951] size =     44233236
	Batch   3 pq = [   13301,   16290] index = [      88464951,132690195] size =     44225244
	Batch   4 pq = [   16290,   18810] index = [     132690195,176917455] size =     44227260
	Batch   5 pq = [   18810,   19306] index = [     176917455,186370471] size =      9453016
  Task number: 17
  Buffer size: 11059200
  Buffer per thread: 2
  We computed 9629859 shell quartets total.
  Whereas there are 10841496 unique shell quartets.

  ==> DiskJK: Disk-Based J/K Matrices <==

    J tasked:                  Yes
    K tasked:                  Yes
    wK tasked:                  No
    Memory [MiB]:              375
    Schwarz Cutoff:          1E-12

    OpenMP threads:              1

  Minimum eigenvalue in the overlap matrix is 3.4747339028E-04.
  Using Symmetric Orthogonalization.

  SCF Guess: Superposition of Atomic Densities via on-the-fly atomic UHF.

  ==> Iterations <==

                        Total Energy        Delta E     RMS |[F,P]|

   @RHF iter SAD:  -347.63470801733604   -3.47635e+02   0.00000e+00
   @RHF iter   1:  -348.77154256829937   -1.13683e+00   2.81452e-03 DIIS
   @RHF iter   2:  -348.95715779986915   -1.85615e-01   1.14109e-03 DIIS
   @RHF iter   3:  -348.98475620259177   -2.75984e-02   2.55514e-04 DIIS
   @RHF iter   4:  -348.98715543723034   -2.39923e-03   6.02588e-05 DIIS
   @RHF iter   5:  -348.98724447160151   -8.90344e-05   2.06217e-05 DIIS
   @RHF iter   6:  -348.98725508663165   -1.06150e-05   4.87866e-06 DIIS
   @RHF iter   7:  -348.98725582482808   -7.38196e-07   1.29628e-06 DIIS
   @RHF iter   8:  -348.98725590839581   -8.35677e-08   4.96620e-07 DIIS
   @RHF iter   9:  -348.98725593096162   -2.25658e-08   2.60553e-07 DIIS
   @RHF iter  10:  -348.98725593769177   -6.73015e-09   1.20289e-07 DIIS
   @RHF iter  11:  -348.98725593945028   -1.75851e-09   3.92483e-08 DIIS
   @RHF iter  12:  -348.98725593957170   -1.21418e-10   1.80146e-08 DIIS
   @RHF iter  13:  -348.98725593958642   -1.47224e-11   4.87139e-09 DIIS
   @RHF iter  14:  -348.98725593958898   -2.55795e-12   1.57033e-09 DIIS
   @RHF iter  15:  -348.98725593958721    1.76215e-12   6.30293e-10 DIIS
   @RHF iter  16:  -348.98725593958750   -2.84217e-13   2.73897e-10 DIIS
   @RHF iter  17:  -348.98725593958949   -1.98952e-12   9.50796e-11 DIIS
  Energy and wave function converged.

  ==> Post-Iterations <==

    Orbital Energies [Eh]
    ---------------------

    Doubly Occupied:

       1A    -11.244294     2A    -11.244228     3A    -11.239345
       4A    -11.236856     5A    -11.236261     6A    -11.232202
       7A    -11.230762     8A    -11.220981     9A    -11.214451
      10A     -1.142502    11A     -1.041769    12A     -1.009929
      13A     -1.003337    14A     -0.930383    15A     -0.836292
      16A     -0.825635    17A     -0.792837    18A     -0.688302
      19A     -0.637816    20A     -0.624902    21A     -0.596574
      22A     -0.590691    23A     -0.579849    24A     -0.575990
      25A     -0.563483    26A     -0.536188    27A     -0.494891
      28A     -0.490772    29A     -0.487723    30A     -0.482785
      31A     -0.480082    32A     -0.475586    33A     -0.325196
      34A     -0.321248

    Virtual:

      35A      0.127553    36A      0.139117    37A      0.165603
      38A      0.196450    39A      0.200847    40A      0.220932
      41A      0.228560    42A      0.239694    43A      0.256277
      44A      0.265320    45A      0.266561    46A      0.271912
      47A      0.281221    48A      0.289132    49A      0.310416
      50A      0.340244    51A      0.364024    52A      0.375868
      53A      0.394807    54A      0.443235    55A      0.457746
      56A      0.469206    57A      0.495729    58A      0.562037
      59A      0.587990    60A      0.598328    61A      0.606775
      62A      0.611147    63A      0.650967    64A      0.657208
      65A      0.671832    66A      0.690002    67A      0.694754
      68A      0.704321    69A      0.722357    70A      0.735504
      71A      0.743116    72A      0.744690    73A      0.754997
      74A      0.770369    75A      0.784426    76A      0.804800
      77A      0.828429    78A      0.855712    79A      0.860579
      80A      0.864818    81A      0.868987    82A      0.880577
      83A      0.887507    84A      0.896294    85A      0.897171
      86A      0.903686    87A      0.906031    88A      0.920345
      89A      0.929452    90A      0.942857    91A      0.963022
      92A      0.984217    93A      0.989174    94A      0.999585
      95A      1.040658    96A      1.063209    97A      1.105159
      98A      1.116105    99A      1.129356   100A      1.143408
     101A      1.149770   102A      1.152541   103A      1.192506
     104A      1.211431   105A      1.226162   106A      1.235672
     107A      1.250460   108A      1.265210   109A      1.289131
     110A      1.292586   111A      1.305861   112A      1.335760
     113A      1.418953   114A      1.464545   115A      1.485972
     116A      1.513585   117A      1.522641   118A      1.557282
     119A      1.569652   120A      1.608904   121A      1.672666
     122A      1.683324   123A      1.688962   124A      1.699512
     125A      1.729800   126A      1.738504   127A      1.747646
     128A      1.790409   129A      1.804829   130A      1.845009
     131A      1.856355   132A      1.867569   133A      1.872122
     134A      1.873931   135A      1.890737   136A      1.907147
     137A      1.915701   138A      1.924731   139A      1.935356
     140A      1.941316   141A      1.945258   142A      1.947191
     143A      1.955662   144A      1.957425   145A      1.973195
     146A      1.979487   147A      1.989823   148A      2.014904
     149A      2.018804   150A      2.056640   151A      2.068150
     152A      2.089545   153A      2.100954   154A      2.116233
     155A      2.129215   156A      2.140455   157A      2.149804
     158A      2.160406   159A      2.189527   160A      2.252765
     161A      2.263318   162A      2.274907   163A      2.286570
     164A      2.298416   165A      2.308507   166A      2.316092
     167A      2.364836   168A      2.427645   169A      2.442673
     170A      2.471860   171A      2.484921   172A      2.501354
     173A      2.518614   174A      2.555267   175A      2.584739
     176A      2.630005   177A      2.713664   178A      2.743267
     179A      2.760526   180A      2.764872   181A      2.776028
     182A      2.800999   183A      2.822822   184A      2.834543
     185A      2.843557   186A      2.855407   187A      2.865438
     188A      2.941812   189A      2.948138   190A      2.971503
     191A      2.986431   192A      3.022917   193A      3.146422
     194A      3.181305   195A      3.274436   196A      3.904721

    Final Occupation by Irrep:
              A
    DOCC [    34 ]

  @RHF Final Energy:  -348.98725593958949

   => Energetics <=

    Nuclear Repulsion Energy =            406.3005001258640618
    One-Electron Energy =               -1275.3072283115363916
    Two-Electron Energy =                 520.0194722460828416
    Total Energy =                       -348.9872559395894314

Computation Completed

Properties will be evaluated at   0.000000,   0.000000,   0.000000 [a0]

Properties computed using the SCF density matrix

  Nuclear Dipole Moment: [e a0]
     X:     2.5787      Y:     0.3074      Z:    12.3958

  Electronic Dipole Moment: [e a0]
     X:    -2.4741      Y:    -0.3828      Z:   -12.4044

  Dipole Moment: [e a0]
     X:     0.1047      Y:    -0.0753      Z:    -0.0086     Total:     0.1293

  Dipole Moment: [D]
     X:     0.2660      Y:    -0.1915      Z:    -0.0219     Total:     0.3285

*** tstop() called on ds3 at Mon Apr 27 13:04:17 2020
Module time:
	user time   =      72.89 seconds =       1.21 minutes
	system time =      31.69 seconds =       0.53 minutes
	total time  =        100 seconds =       1.67 minutes
Total time:
	user time   =      72.89 seconds =       1.21 minutes
	system time =      31.69 seconds =       0.53 minutes
	total time  =        100 seconds =       1.67 minutes
                                     G D M A

                                 by Anthony Stone

                           version 2.2.06, 22 June 2011

               Distributed Multipoles from Gaussian wavefunctions

Starting at 13:4:17 on 27 Apr 2020

Using SCF density matrix from file ./SSI/SSI-208ALA-214PHE-1-dimer.test.5096.fchk

                         Distributed Multipole Analysis

Standard DMA

Positions and radii in angstrom
Multipole moments in atomic units, ea_0^k for rank k

C          x = -0.781225  y =  0.093940  z =  3.199055 angstrom
           Maximum rank =  0   Radius =  0.650 angstrom
                   Q00  =  -0.238971

C          x =  0.421775  y =  0.800940  z =  3.887055 angstrom
           Maximum rank =  0   Radius =  0.650 angstrom
                   Q00  =  -0.249123

H          x = -1.558225  y =  0.819940  z =  2.958055 angstrom
           Maximum rank =  0   Radius =  0.325 angstrom
                   Q00  =   0.077843

H          x = -0.447225  y = -0.385060  z =  2.281055 angstrom
           Maximum rank =  0   Radius =  0.325 angstrom
                   Q00  =   0.093605

H          x = -1.193225  y = -0.663060  z =  3.868055 angstrom
           Maximum rank =  0   Radius =  0.325 angstrom
                   Q00  =   0.079725

H          x =  1.168775  y =  0.034940  z =  4.106055 angstrom
           Maximum rank =  0   Radius =  0.325 angstrom
                   Q00  =   0.076946

H          x =  0.139435  y =  1.280316  z =  4.835995 angstrom
           Maximum rank =  0   Radius =  0.325 angstrom
                   Q00  =   0.085023

H          x =  0.880945  y =  1.507027  z =  3.179525 angstrom
           Maximum rank =  0   Radius =  0.325 angstrom
                   Q00  =   0.074837

C          x =  2.258775  y = -0.904060  z = -0.341945 angstrom
           Maximum rank =  0   Radius =  0.650 angstrom
                   Q00  =  -0.208071

C          x =  0.265775  y =  0.655940  z = -0.238945 angstrom
           Maximum rank =  0   Radius =  0.650 angstrom
                   Q00  =  -0.056159

C          x =  0.910775  y = -0.443060  z = -0.829945 angstrom
           Maximum rank =  0   Radius =  0.650 angstrom
                   Q00  =  -0.097577

C          x = -0.996225  y =  1.089940  z = -0.697945 angstrom
           Maximum rank =  0   Radius =  0.650 angstrom
                   Q00  =  -0.080839

C          x =  0.285775  y = -1.100060  z = -1.894945 angstrom
           Maximum rank =  0   Radius =  0.650 angstrom
                   Q00  =  -0.026031

C          x = -1.615225  y =  0.433940  z = -1.784945 angstrom
           Maximum rank =  0   Radius =  0.650 angstrom
                   Q00  =  -0.085848

C          x = -0.981225  y = -0.655060  z = -2.407945 angstrom
           Maximum rank =  0   Radius =  0.650 angstrom
                   Q00  =  -0.079921

H          x =  0.744775  y =  1.234940  z =  0.500055 angstrom
           Maximum rank =  0   Radius =  0.325 angstrom
                   Q00  =   0.061526

H          x = -1.492225  y =  1.900940  z = -0.191945 angstrom
           Maximum rank =  0   Radius =  0.325 angstrom
                   Q00  =   0.070494

H          x =  2.140775  y = -1.867060  z =  0.156055 angstrom
           Maximum rank =  0   Radius =  0.325 angstrom
                   Q00  =   0.103958

H          x =  2.643775  y = -0.195060  z =  0.388055 angstrom
           Maximum rank =  0   Radius =  0.325 angstrom
                   Q00  =   0.098566

H          x =  0.756775  y = -1.958060  z = -2.350945 angstrom
           Maximum rank =  0   Radius =  0.325 angstrom
                   Q00  =   0.059775

H          x = -2.575225  y =  0.791940  z = -2.114945 angstrom
           Maximum rank =  0   Radius =  0.325 angstrom
                   Q00  =   0.064447

H          x = -1.451225  y = -1.165060  z = -3.237945 angstrom
           Maximum rank =  0   Radius =  0.325 angstrom
                   Q00  =   0.072798

H          x =  2.992825  y = -1.008722  z = -1.154485 angstrom
           Maximum rank =  0   Radius =  0.325 angstrom
                   Q00  =   0.102995

Total multipoles referred to origin at
           x =   0.000000,  y =    0.000000,  z =    0.000000 angstrom
                   Q00  =  -0.000000

Finished at 13:4:17 on 27 Apr 2020

  DMA results are available in the Python driver through the
	  variable('DMA DISTRIBUTED MULTIPOLES')
  and
	  variable('DMA TOTAL MULTIPOLES')
  commands.

    Psi4 stopped on: Monday, 27 April 2020 01:04PM
    Psi4 wall time for execution: 0:01:39.78

*** Psi4 exiting successfully. Buy a developer a beer!
