                               Psi4 1.3.2 release

  ==> Input File <==

--------------------------------------------------------------------------
import numpy as np
set {scf_type pk
basis cc-pvdz
d_convergence 10
gdma_switch   0
gdma_limit    0
gdma_origin   [ 0.0,  0.0,  0.0 ]
}
molecule test {
    units Angstrom
    0 1
    --
    0 1
    C               -2.966906427919527    -0.654375001718065    -0.241833188634706
    C               -0.834906427919528    -1.369375001718065    -1.263833188634705
    N                0.469093572080472    -1.228375001718065    -1.378833188634705
    N               -1.517906427919528    -0.581375001718065    -0.447833188634706
    N               -1.452906427919528    -2.302375001718065    -1.962833188634705
    H                0.957093572080472    -0.617375001718065    -0.720833188634706
    H                1.000093572080472    -1.827375001718065    -1.988833188634705
    H               -0.992906427919528     0.084624998281935     0.099166811365294
    H               -2.430906427919528    -2.479375001718065    -1.813833188634705
    H               -0.927906427919528    -2.905375001718065    -2.576833188634705
    H               -3.230906427919528     0.061624998281935     0.537166811365294
    H               -3.253906427919528    -1.648375001718065     0.109166811365294
    H               -3.519586427919528    -0.405777101718065    -1.159843188634706
    C                0.742093572080472     2.619624998281936     0.842166811365294
    C                1.625093572080472     1.493624998281935     1.367166811365295
    O                1.607093572080472     0.401624998281935     0.761166811365294
    O                2.344093572080473     1.697624998281935     2.366166811365295
    H                0.702093572080472     3.431624998281936     1.571166811365295
    H               -0.270906427919528     2.237624998281935     0.707166811365294
    H                1.101143572080472     3.007517998281935    -0.122523188634706

}
e, wfn = energy('scf', return_wfn=True)
gdma(wfn)
dmavals = variable('DMA DISTRIBUTED MULTIPOLES')
charges = np.array(dmavals)
print(charges)
np.save('SSI-072ARG-116ASP-1-dimer.npy', np.array(charges))--------------------------------------------------------------------------

*** tstart() called on ds3
*** at Tue Apr 28 04:33:43 2020

   => Loading Basis Set <=

    Name: CC-PVDZ
    Role: ORBITAL
    Keyword: BASIS
    atoms 1-2, 14-15  entry C          line   138 file /theoryfs2/ds/metcalf/miniconda2/envs/tf2gpu/share/psi4/basis/cc-pvdz.gbs
    atoms 3-5         entry N          line   168 file /theoryfs2/ds/metcalf/miniconda2/envs/tf2gpu/share/psi4/basis/cc-pvdz.gbs
    atoms 6-13, 18-20 entry H          line    22 file /theoryfs2/ds/metcalf/miniconda2/envs/tf2gpu/share/psi4/basis/cc-pvdz.gbs
    atoms 16-17       entry O          line   198 file /theoryfs2/ds/metcalf/miniconda2/envs/tf2gpu/share/psi4/basis/cc-pvdz.gbs

         ---------------------------------------------------------
                                   SCF
               by Justin Turney, Rob Parrish, Andy Simmonett
                          and Daniel G. A. Smith
                              RHF Reference
                        1 Threads,    500 MiB Core
         ---------------------------------------------------------

  ==> Geometry <==

    Molecular point group: c1
    Full point group: C1

    Geometry (in Angstrom), charge = 0, multiplicity = 1:

       Center              X                  Y                   Z               Mass
    ------------   -----------------  -----------------  -----------------  -----------------
         C           -2.966906427920    -0.654375001718    -0.241833188635    12.000000000000
         C           -0.834906427920    -1.369375001718    -1.263833188635    12.000000000000
         N            0.469093572080    -1.228375001718    -1.378833188635    14.003074004430
         N           -1.517906427920    -0.581375001718    -0.447833188635    14.003074004430
         N           -1.452906427920    -2.302375001718    -1.962833188635    14.003074004430
         H            0.957093572080    -0.617375001718    -0.720833188635     1.007825032230
         H            1.000093572080    -1.827375001718    -1.988833188635     1.007825032230
         H           -0.992906427920     0.084624998282     0.099166811365     1.007825032230
         H           -2.430906427920    -2.479375001718    -1.813833188635     1.007825032230
         H           -0.927906427920    -2.905375001718    -2.576833188635     1.007825032230
         H           -3.230906427920     0.061624998282     0.537166811365     1.007825032230
         H           -3.253906427920    -1.648375001718     0.109166811365     1.007825032230
         H           -3.519586427920    -0.405777101718    -1.159843188635     1.007825032230
         C            0.742093572080     2.619624998282     0.842166811365    12.000000000000
         C            1.625093572080     1.493624998282     1.367166811365    12.000000000000
         O            1.607093572080     0.401624998282     0.761166811365    15.994914619570
         O            2.344093572080     1.697624998282     2.366166811365    15.994914619570
         H            0.702093572080     3.431624998282     1.571166811365     1.007825032230
         H           -0.270906427920     2.237624998282     0.707166811365     1.007825032230
         H            1.101143572080     3.007517998282    -0.122523188635     1.007825032230

  Running in c1 symmetry.

  Rotational constants: A =      0.09329  B =      0.02035  C =      0.01785 [cm^-1]
  Rotational constants: A =   2796.88133  B =    610.09894  C =    535.11043 [MHz]
  Nuclear repulsion =  450.897561041323456

  Charge       = 0
  Multiplicity = 1
  Electrons    = 72
  Nalpha       = 36
  Nbeta        = 36

  ==> Algorithm <==

  SCF Algorithm Type is PK.
  DIIS enabled.
  MOM disabled.
  Fractional occupation disabled.
  Guess Type is SAD.
  Energy threshold   = 1.00e-06
  Density threshold  = 1.00e-10
  Integral threshold = 0.00e+00

  ==> Primary Basis <==

  Basis Set: CC-PVDZ
    Blend: CC-PVDZ
    Number of shells: 87
    Number of basis function: 181
    Number of Cartesian functions: 190
    Spherical Harmonics?: true
    Max angular momentum: 2

  ==> Pre-Iterations <==

   -------------------------------------------------------
    Irrep   Nso     Nmo     Nalpha   Nbeta   Ndocc  Nsocc
   -------------------------------------------------------
     A        181     181       0       0       0       0
   -------------------------------------------------------
    Total     181     181      36      36      36       0
   -------------------------------------------------------

  ==> Integral Setup <==

  Using integral reordering PK algorithm.
  Sizing the integral batches needed.
  Building batch lookup table.
   Calculation information:
      Number of atoms:                  20
      Number of AO shells:              87
      Number of primitives:            253
      Number of atomic orbitals:       190
      Number of basis functions:       181

      Integral cutoff                 1.00e-12
      Number of threads:                 1

	Batch   1 pq = [       0,    9405] index = [             0,44231715] size =     44231715
	Batch   2 pq = [    9405,   13301] index = [      44231715,88464951] size =     44233236
	Batch   3 pq = [   13301,   16471] index = [      88464951,135655156] size =     47190205
  Task number: 13
  Buffer size: 11059200
  Buffer per thread: 2
  We computed 6004629 shell quartets total.
  Whereas there are 7328706 unique shell quartets.

  ==> DiskJK: Disk-Based J/K Matrices <==

    J tasked:                  Yes
    K tasked:                  Yes
    wK tasked:                  No
    Memory [MiB]:              375
    Schwarz Cutoff:          1E-12

    OpenMP threads:              1

  Minimum eigenvalue in the overlap matrix is 3.8079007122E-03.
  Using Symmetric Orthogonalization.

  SCF Guess: Superposition of Atomic Densities via on-the-fly atomic UHF.

  ==> Iterations <==

                        Total Energy        Delta E     RMS |[F,P]|

   @RHF iter SAD:  -469.68480215302958   -4.69685e+02   0.00000e+00
   @RHF iter   1:  -470.67622419362277   -9.91422e-01   4.27939e-03 DIIS
   @RHF iter   2:  -470.90587556372145   -2.29651e-01   2.28786e-03 DIIS
   @RHF iter   3:  -470.96758435403723   -6.17088e-02   4.07461e-04 DIIS
   @RHF iter   4:  -470.97100041069018   -3.41606e-03   1.50311e-04 DIIS
   @RHF iter   5:  -470.97144662579888   -4.46215e-04   3.01617e-05 DIIS
   @RHF iter   6:  -470.97147184255982   -2.52168e-05   1.59136e-05 DIIS
   @RHF iter   7:  -470.97147697084034   -5.12828e-06   4.06547e-06 DIIS
   @RHF iter   8:  -470.97147777355713   -8.02717e-07   1.88569e-06 DIIS
   @RHF iter   9:  -470.97147791029613   -1.36739e-07   6.84286e-07 DIIS
   @RHF iter  10:  -470.97147793511164   -2.48155e-08   2.17402e-07 DIIS
   @RHF iter  11:  -470.97147793728482   -2.17318e-09   5.01281e-08 DIIS
   @RHF iter  12:  -470.97147793737764   -9.28253e-11   1.73537e-08 DIIS
   @RHF iter  13:  -470.97147793738719   -9.54969e-12   4.98118e-09 DIIS
   @RHF iter  14:  -470.97147793738765   -4.54747e-13   1.31092e-09 DIIS
   @RHF iter  15:  -470.97147793738441    3.24007e-12   5.41221e-10 DIIS
   @RHF iter  16:  -470.97147793738645   -2.04636e-12   1.97237e-10 DIIS
   @RHF iter  17:  -470.97147793738736   -9.09495e-13   7.97442e-11 DIIS
  Energy and wave function converged.

  ==> Post-Iterations <==

    Orbital Energies [Eh]
    ---------------------

    Doubly Occupied:

       1A    -20.407961     2A    -20.385218     3A    -15.674087
       4A    -15.655123     5A    -15.634242     6A    -11.458030
       7A    -11.336484     8A    -11.248217     9A    -11.172733
      10A     -1.417425    11A     -1.287566    12A     -1.278557
      13A     -1.255743    14A     -1.171397    15A     -1.025785
      16A     -0.919849    17A     -0.913916    18A     -0.849728
      19A     -0.809092    20A     -0.740385    21A     -0.715999
      22A     -0.704007    23A     -0.672366    24A     -0.630346
      25A     -0.629424    26A     -0.614861    27A     -0.541847
      28A     -0.536577    29A     -0.529409    30A     -0.492667
      31A     -0.471793    32A     -0.454605    33A     -0.437996
      34A     -0.323472    35A     -0.300939    36A     -0.296588

    Virtual:

      37A      0.103870    38A      0.135488    39A      0.149530
      40A      0.163332    41A      0.188119    42A      0.205557
      43A      0.221497    44A      0.233746    45A      0.258764
      46A      0.291570    47A      0.312217    48A      0.324925
      49A      0.352643    50A      0.375583    51A      0.408137
      52A      0.453520    53A      0.463682    54A      0.478609
      55A      0.568301    56A      0.571445    57A      0.579382
      58A      0.618360    59A      0.635310    60A      0.644092
      61A      0.647920    62A      0.660390    63A      0.693194
      64A      0.699993    65A      0.710777    66A      0.734748
      67A      0.788979    68A      0.798476    69A      0.808057
      70A      0.819079    71A      0.839767    72A      0.846863
      73A      0.869894    74A      0.887061    75A      0.905337
      76A      0.915738    77A      0.923768    78A      0.928362
      79A      0.943105    80A      0.959301    81A      0.973671
      82A      1.010314    83A      1.037350    84A      1.045897
      85A      1.070928    86A      1.089820    87A      1.104323
      88A      1.119832    89A      1.172669    90A      1.225899
      91A      1.231531    92A      1.237215    93A      1.250940
      94A      1.256713    95A      1.301311    96A      1.331012
      97A      1.340992    98A      1.397146    99A      1.402540
     100A      1.433255   101A      1.454445   102A      1.466154
     103A      1.512641   104A      1.528341   105A      1.559995
     106A      1.587754   107A      1.599289   108A      1.605935
     109A      1.610582   110A      1.638834   111A      1.652917
     112A      1.680447   113A      1.716367   114A      1.723779
     115A      1.765809   116A      1.777408   117A      1.827727
     118A      1.843160   119A      1.862561   120A      1.879499
     121A      1.903898   122A      1.920448   123A      1.921935
     124A      1.948186   125A      1.955887   126A      1.963557
     127A      1.977401   128A      1.999690   129A      2.015276
     130A      2.031924   131A      2.086648   132A      2.131305
     133A      2.149410   134A      2.184135   135A      2.198163
     136A      2.207169   137A      2.232034   138A      2.284193
     139A      2.287588   140A      2.293601   141A      2.312332
     142A      2.366400   143A      2.385381   144A      2.424785
     145A      2.434747   146A      2.465853   147A      2.485582
     148A      2.531603   149A      2.556343   150A      2.567378
     151A      2.593533   152A      2.613666   153A      2.651001
     154A      2.684253   155A      2.702033   156A      2.728037
     157A      2.788519   158A      2.797544   159A      2.829700
     160A      2.850117   161A      2.872891   162A      2.891343
     163A      2.912247   164A      2.958504   165A      2.972157
     166A      3.022390   167A      3.103557   168A      3.138142
     169A      3.162428   170A      3.198230   171A      3.223599
     172A      3.253195   173A      3.269536   174A      3.501629
     175A      3.648237   176A      3.696356   177A      3.710248
     178A      3.781835   179A      3.936417   180A      3.986502
     181A      4.063880

    Final Occupation by Irrep:
              A
    DOCC [    36 ]

  @RHF Final Energy:  -470.97147793738736

   => Energetics <=

    Nuclear Repulsion Energy =            450.8975610413234563
    One-Electron Energy =               -1537.7492061911543715
    Two-Electron Energy =                 615.8801672124434390
    Total Energy =                       -470.9714779373873625

Computation Completed

Properties will be evaluated at   0.000000,   0.000000,   0.000000 [a0]

Properties computed using the SCF density matrix

  Nuclear Dipole Moment: [e a0]
     X:   -10.1609      Y:    -0.9723      Z:    -4.9977

  Electronic Dipole Moment: [e a0]
     X:     5.3023      Y:    -2.5960      Z:     0.6326

  Dipole Moment: [e a0]
     X:    -4.8585      Y:    -3.5683      Z:    -4.3651     Total:     7.4426

  Dipole Moment: [D]
     X:   -12.3492      Y:    -9.0698      Z:   -11.0951     Total:    18.9173

*** tstop() called on ds3 at Tue Apr 28 04:36:29 2020
Module time:
	user time   =      43.26 seconds =       0.72 minutes
	system time =      18.23 seconds =       0.30 minutes
	total time  =        166 seconds =       2.77 minutes
Total time:
	user time   =      43.26 seconds =       0.72 minutes
	system time =      18.23 seconds =       0.30 minutes
	total time  =        166 seconds =       2.77 minutes
                                     G D M A

                                 by Anthony Stone

                           version 2.2.06, 22 June 2011

               Distributed Multipoles from Gaussian wavefunctions

Starting at 4:36:29 on 28 Apr 2020

Using SCF density matrix from file ./SSI/SSI-072ARG-116ASP-1-dimer.test.27715.fchk

                         Distributed Multipole Analysis

Standard DMA

Positions and radii in angstrom
Multipole moments in atomic units, ea_0^k for rank k

C          x = -2.966906  y = -0.654375  z = -0.241833 angstrom
           Maximum rank =  0   Radius =  0.650 angstrom
                   Q00  =  -0.119460

C          x = -0.834906  y = -1.369375  z = -1.263833 angstrom
           Maximum rank =  0   Radius =  0.650 angstrom
                   Q00  =   1.060080

N          x =  0.469094  y = -1.228375  z = -1.378833 angstrom
           Maximum rank =  0   Radius =  0.650 angstrom
                   Q00  =  -0.593652

N          x = -1.517906  y = -0.581375  z = -0.447833 angstrom
           Maximum rank =  0   Radius =  0.650 angstrom
                   Q00  =  -0.474805

N          x = -1.452906  y = -2.302375  z = -1.962833 angstrom
           Maximum rank =  0   Radius =  0.650 angstrom
                   Q00  =  -0.577161

H          x =  0.957094  y = -0.617375  z = -0.720833 angstrom
           Maximum rank =  0   Radius =  0.325 angstrom
                   Q00  =   0.342346

H          x =  1.000094  y = -1.827375  z = -1.988833 angstrom
           Maximum rank =  0   Radius =  0.325 angstrom
                   Q00  =   0.234623

H          x = -0.992906  y =  0.084625  z =  0.099167 angstrom
           Maximum rank =  0   Radius =  0.325 angstrom
                   Q00  =   0.245740

H          x = -2.430906  y = -2.479375  z = -1.813833 angstrom
           Maximum rank =  0   Radius =  0.325 angstrom
                   Q00  =   0.248335

H          x = -0.927906  y = -2.905375  z = -2.576833 angstrom
           Maximum rank =  0   Radius =  0.325 angstrom
                   Q00  =   0.248912

H          x = -3.230906  y =  0.061625  z =  0.537167 angstrom
           Maximum rank =  0   Radius =  0.325 angstrom
                   Q00  =   0.161873

H          x = -3.253906  y = -1.648375  z =  0.109167 angstrom
           Maximum rank =  0   Radius =  0.325 angstrom
                   Q00  =   0.095157

H          x = -3.519586  y = -0.405777  z = -1.159843 angstrom
           Maximum rank =  0   Radius =  0.325 angstrom
                   Q00  =   0.101272

C          x =  0.742094  y =  2.619625  z =  0.842167 angstrom
           Maximum rank =  0   Radius =  0.650 angstrom
                   Q00  =  -0.270643

C          x =  1.625094  y =  1.493625  z =  1.367167 angstrom
           Maximum rank =  0   Radius =  0.650 angstrom
                   Q00  =   0.924225

O          x =  1.607094  y =  0.401625  z =  0.761167 angstrom
           Maximum rank =  0   Radius =  0.650 angstrom
                   Q00  =  -0.968608

O          x =  2.344094  y =  1.697625  z =  2.366167 angstrom
           Maximum rank =  0   Radius =  0.650 angstrom
                   Q00  =  -0.868520

H          x =  0.702094  y =  3.431625  z =  1.571167 angstrom
           Maximum rank =  0   Radius =  0.325 angstrom
                   Q00  =   0.092188

H          x = -0.270906  y =  2.237625  z =  0.707167 angstrom
           Maximum rank =  0   Radius =  0.325 angstrom
                   Q00  =   0.026098

H          x =  1.101144  y =  3.007518  z = -0.122523 angstrom
           Maximum rank =  0   Radius =  0.325 angstrom
                   Q00  =   0.091998

Total multipoles referred to origin at
           x =   0.000000,  y =    0.000000,  z =    0.000000 angstrom
                   Q00  =  -0.000000

Finished at 4:36:29 on 28 Apr 2020

  DMA results are available in the Python driver through the
	  variable('DMA DISTRIBUTED MULTIPOLES')
  and
	  variable('DMA TOTAL MULTIPOLES')
  commands.

    Psi4 stopped on: Tuesday, 28 April 2020 04:36AM
    Psi4 wall time for execution: 0:02:45.92

*** Psi4 exiting successfully. Buy a developer a beer!
