                               Psi4 1.3.2 release

  ==> Input File <==

--------------------------------------------------------------------------
import numpy as np
set {scf_type pk
basis cc-pvdz
d_convergence 10
gdma_switch   0
gdma_limit    0
gdma_origin   [ 0.0,  0.0,  0.0 ]
}
molecule test {
    units Angstrom
    1 1
    --
    1 1
    C                1.500467804506944     1.487973509585722    -0.074584380689915
    C               -0.003532195493056     0.165973509585722     1.414415619310085
    N                0.315467804506944     0.693973509585722     0.242415619310085
    N                0.765467804506944     0.344973509585722     2.472415619310085
    N               -1.096532195493056    -0.577026490414278     1.509415619310085
    H               -0.366532195493056     0.539973509585722    -0.499584380689915
    H                2.384467804506944     1.048973509585722     0.391415619310085
    H                1.370467804506944     2.514973509585722     0.273415619310085
    H                1.563467804506944     0.953973509585722     2.414415619310085
    H                0.529467804506944    -0.087026490414278     3.353415619310085
    H               -1.660532195493056    -0.725026490414278     0.678415619310085
    H               -1.366532195493056    -0.989026490414278     2.386415619310085
    H                1.631067804506944     1.476493509585722    -1.166744380689915
    C               -0.364532195493056    -1.178026490414278    -3.208584380689915
    O               -0.932532195493056    -0.760026490414278    -1.991584380689915
    H               -1.895532195493056    -0.910026490414278    -2.062584380689914
    H                0.348467804506944    -0.430026490414278    -3.554584380689914
    H               -1.149532195493056    -1.270026490414278    -3.958584380689915
    H                0.144587804506944    -2.145846490414278    -3.089764380689914

}
e, wfn = energy('scf', return_wfn=True)
gdma(wfn)
dmavals = variable('DMA DISTRIBUTED MULTIPOLES')
charges = np.array(dmavals)
print(charges)
np.save('SSI-074ARG-135SER-2-dimer.npy', np.array(charges))--------------------------------------------------------------------------

*** tstart() called on ds3
*** at Tue Apr 28 00:16:30 2020

   => Loading Basis Set <=

    Name: CC-PVDZ
    Role: ORBITAL
    Keyword: BASIS
    atoms 1-2, 14     entry C          line   138 file /theoryfs2/ds/metcalf/miniconda2/envs/tf2gpu/share/psi4/basis/cc-pvdz.gbs
    atoms 3-5         entry N          line   168 file /theoryfs2/ds/metcalf/miniconda2/envs/tf2gpu/share/psi4/basis/cc-pvdz.gbs
    atoms 6-13, 16-19 entry H          line    22 file /theoryfs2/ds/metcalf/miniconda2/envs/tf2gpu/share/psi4/basis/cc-pvdz.gbs
    atoms 15          entry O          line   198 file /theoryfs2/ds/metcalf/miniconda2/envs/tf2gpu/share/psi4/basis/cc-pvdz.gbs

         ---------------------------------------------------------
                                   SCF
               by Justin Turney, Rob Parrish, Andy Simmonett
                          and Daniel G. A. Smith
                              RHF Reference
                        1 Threads,    500 MiB Core
         ---------------------------------------------------------

  ==> Geometry <==

    Molecular point group: c1
    Full point group: C1

    Geometry (in Angstrom), charge = 1, multiplicity = 1:

       Center              X                  Y                   Z               Mass
    ------------   -----------------  -----------------  -----------------  -----------------
         C            1.500467804507     1.487973509586    -0.074584380690    12.000000000000
         C           -0.003532195493     0.165973509586     1.414415619310    12.000000000000
         N            0.315467804507     0.693973509586     0.242415619310    14.003074004430
         N            0.765467804507     0.344973509586     2.472415619310    14.003074004430
         N           -1.096532195493    -0.577026490414     1.509415619310    14.003074004430
         H           -0.366532195493     0.539973509586    -0.499584380690     1.007825032230
         H            2.384467804507     1.048973509586     0.391415619310     1.007825032230
         H            1.370467804507     2.514973509586     0.273415619310     1.007825032230
         H            1.563467804507     0.953973509586     2.414415619310     1.007825032230
         H            0.529467804507    -0.087026490414     3.353415619310     1.007825032230
         H           -1.660532195493    -0.725026490414     0.678415619310     1.007825032230
         H           -1.366532195493    -0.989026490414     2.386415619310     1.007825032230
         H            1.631067804507     1.476493509586    -1.166744380690     1.007825032230
         C           -0.364532195493    -1.178026490414    -3.208584380690    12.000000000000
         O           -0.932532195493    -0.760026490414    -1.991584380690    15.994914619570
         H           -1.895532195493    -0.910026490414    -2.062584380690     1.007825032230
         H            0.348467804507    -0.430026490414    -3.554584380690     1.007825032230
         H           -1.149532195493    -1.270026490414    -3.958584380690     1.007825032230
         H            0.144587804507    -2.145846490414    -3.089764380690     1.007825032230

  Running in c1 symmetry.

  Rotational constants: A =      0.12053  B =      0.03767  C =      0.03001 [cm^-1]
  Rotational constants: A =   3613.50482  B =   1129.32742  C =    899.67656 [MHz]
  Nuclear repulsion =  326.955868789364104

  Charge       = 1
  Multiplicity = 1
  Electrons    = 58
  Nalpha       = 29
  Nbeta        = 29

  ==> Algorithm <==

  SCF Algorithm Type is PK.
  DIIS enabled.
  MOM disabled.
  Fractional occupation disabled.
  Guess Type is SAD.
  Energy threshold   = 1.00e-06
  Density threshold  = 1.00e-10
  Integral threshold = 0.00e+00

  ==> Primary Basis <==

  Basis Set: CC-PVDZ
    Blend: CC-PVDZ
    Number of shells: 78
    Number of basis function: 158
    Number of Cartesian functions: 165
    Spherical Harmonics?: true
    Max angular momentum: 2

  ==> Pre-Iterations <==

   -------------------------------------------------------
    Irrep   Nso     Nmo     Nalpha   Nbeta   Ndocc  Nsocc
   -------------------------------------------------------
     A        158     158       0       0       0       0
   -------------------------------------------------------
    Total     158     158      29      29      29       0
   -------------------------------------------------------

  ==> Integral Setup <==

  Using integral reordering PK algorithm.
  Sizing the integral batches needed.
  Building batch lookup table.
   Calculation information:
      Number of atoms:                  19
      Number of AO shells:              78
      Number of primitives:            214
      Number of atomic orbitals:       165
      Number of basis functions:       158

      Integral cutoff                 1.00e-12
      Number of threads:                 1

	Batch   1 pq = [       0,    9405] index = [             0,44231715] size =     44231715
	Batch   2 pq = [    9405,   12561] index = [      44231715,78895641] size =     34663926
  Task number: 8
  Buffer size: 11059200
  Buffer per thread: 2
  We computed 4214510 shell quartets total.
  Whereas there are 4747821 unique shell quartets.

  ==> DiskJK: Disk-Based J/K Matrices <==

    J tasked:                  Yes
    K tasked:                  Yes
    wK tasked:                  No
    Memory [MiB]:              375
    Schwarz Cutoff:          1E-12

    OpenMP threads:              1

  Minimum eigenvalue in the overlap matrix is 3.9063599737E-03.
  Using Symmetric Orthogonalization.

  SCF Guess: Superposition of Atomic Densities via on-the-fly atomic UHF.

  ==> Iterations <==

                        Total Energy        Delta E     RMS |[F,P]|

   @RHF iter SAD:  -357.88259385154856   -3.57883e+02   0.00000e+00
   @RHF iter   1:  -358.47199874688789   -5.89405e-01   3.58826e-03 DIIS
   @RHF iter   2:  -358.62243776881093   -1.50439e-01   1.52539e-03 DIIS
   @RHF iter   3:  -358.64650310704042   -2.40653e-02   3.76025e-04 DIIS
   @RHF iter   4:  -358.64882346226767   -2.32036e-03   9.18085e-05 DIIS
   @RHF iter   5:  -358.64894381921812   -1.20357e-04   2.46020e-05 DIIS
   @RHF iter   6:  -358.64895684085764   -1.30216e-05   6.93280e-06 DIIS
   @RHF iter   7:  -358.64895798369849   -1.14284e-06   1.88621e-06 DIIS
   @RHF iter   8:  -358.64895808124896   -9.75505e-08   5.76269e-07 DIIS
   @RHF iter   9:  -358.64895808820887   -6.95991e-09   9.04854e-08 DIIS
   @RHF iter  10:  -358.64895808844688   -2.38003e-10   3.28218e-08 DIIS
   @RHF iter  11:  -358.64895808846967   -2.27942e-11   8.78958e-09 DIIS
   @RHF iter  12:  -358.64895808847160   -1.93268e-12   3.13874e-09 DIIS
   @RHF iter  13:  -358.64895808847234   -7.38964e-13   1.02768e-09 DIIS
   @RHF iter  14:  -358.64895808847228    5.68434e-14   3.51687e-10 DIIS
   @RHF iter  15:  -358.64895808847263   -3.41061e-13   8.85374e-11 DIIS
  Energy and wave function converged.

  ==> Post-Iterations <==

    Orbital Energies [Eh]
    ---------------------

    Doubly Occupied:

       1A    -20.697957     2A    -15.776297     3A    -15.772142
       4A    -15.760146     5A    -11.572446     6A    -11.428151
       7A    -11.394545     8A     -1.527410     9A     -1.497333
      10A     -1.382368    11A     -1.376749    12A     -1.127342
      13A     -1.044660    14A     -1.019749    15A     -0.958633
      16A     -0.924629    17A     -0.845457    18A     -0.842532
      19A     -0.821238    20A     -0.807475    21A     -0.777288
      22A     -0.745585    23A     -0.730957    24A     -0.728530
      25A     -0.706038    26A     -0.626009    27A     -0.605075
      28A     -0.577494    29A     -0.563653

    Virtual:

      30A      0.003513    31A      0.034133    32A      0.039307
      33A      0.041641    34A      0.069584    35A      0.088722
      36A      0.101538    37A      0.117098    38A      0.133958
      39A      0.140052    40A      0.151011    41A      0.179197
      42A      0.193073    43A      0.222064    44A      0.252651
      45A      0.292349    46A      0.344417    47A      0.347721
      48A      0.459633    49A      0.471400    50A      0.503569
      51A      0.522556    52A      0.534676    53A      0.543329
      54A      0.545265    55A      0.555705    56A      0.562975
      57A      0.578682    58A      0.613578    59A      0.691789
      60A      0.698753    61A      0.701772    62A      0.714243
      63A      0.724969    64A      0.745172    65A      0.764492
      66A      0.767295    67A      0.780039    68A      0.801684
      69A      0.815282    70A      0.821296    71A      0.844120
      72A      0.881899    73A      0.901104    74A      0.929634
      75A      0.945147    76A      0.994163    77A      1.024706
      78A      1.034192    79A      1.060879    80A      1.078911
      81A      1.128874    82A      1.138881    83A      1.152841
      84A      1.192544    85A      1.202612    86A      1.215969
      87A      1.229326    88A      1.241512    89A      1.295597
      90A      1.374840    91A      1.448250    92A      1.471006
      93A      1.490857    94A      1.502147    95A      1.542369
      96A      1.555479    97A      1.565356    98A      1.574770
      99A      1.584350   100A      1.656825   101A      1.662426
     102A      1.700262   103A      1.733788   104A      1.736922
     105A      1.745979   106A      1.757201   107A      1.770184
     108A      1.786623   109A      1.794466   110A      1.807022
     111A      1.823157   112A      1.841813   113A      1.860026
     114A      1.868529   115A      1.905070   116A      1.930747
     117A      1.965776   118A      2.021487   119A      2.035150
     120A      2.067001   121A      2.135341   122A      2.160139
     123A      2.186834   124A      2.199481   125A      2.257228
     126A      2.257449   127A      2.275583   128A      2.279444
     129A      2.315585   130A      2.336366   131A      2.343381
     132A      2.368705   133A      2.392331   134A      2.451166
     135A      2.476073   136A      2.556317   137A      2.592793
     138A      2.620714   139A      2.627204   140A      2.630758
     141A      2.660473   142A      2.669504   143A      2.745618
     144A      2.783866   145A      2.808109   146A      2.814096
     147A      2.847943   148A      2.896621   149A      3.081105
     150A      3.117291   151A      3.147841   152A      3.169570
     153A      3.244196   154A      3.332591   155A      3.449016
     156A      3.570791   157A      3.651267   158A      3.936024

    Final Occupation by Irrep:
              A
    DOCC [    29 ]

  @RHF Final Energy:  -358.64895808847263

   => Energetics <=

    Nuclear Repulsion Energy =            326.9558687893641036
    One-Electron Energy =               -1125.9338754101820541
    Two-Electron Energy =                 440.3290485323453254
    Total Energy =                       -358.6489580884726251

Computation Completed

Properties will be evaluated at   0.000000,   0.000000,   0.000000 [a0]

Properties computed using the SCF density matrix

  Nuclear Dipole Moment: [e a0]
     X:     1.4330      Y:    -0.0262      Z:    -4.5539

  Electronic Dipole Moment: [e a0]
     X:    -1.7113      Y:     0.0735      Z:     5.9519

  Dipole Moment: [e a0]
     X:    -0.2783      Y:     0.0473      Z:     1.3980     Total:     1.4262

  Dipole Moment: [D]
     X:    -0.7072      Y:     0.1201      Z:     3.5533     Total:     3.6250

*** tstop() called on ds3 at Tue Apr 28 00:17:27 2020
Module time:
	user time   =      27.19 seconds =       0.45 minutes
	system time =       9.64 seconds =       0.16 minutes
	total time  =         57 seconds =       0.95 minutes
Total time:
	user time   =      27.19 seconds =       0.45 minutes
	system time =       9.64 seconds =       0.16 minutes
	total time  =         57 seconds =       0.95 minutes
                                     G D M A

                                 by Anthony Stone

                           version 2.2.06, 22 June 2011

               Distributed Multipoles from Gaussian wavefunctions

Starting at 0:17:28 on 28 Apr 2020

Using SCF density matrix from file ./SSI/SSI-074ARG-135SER-2-dimer.test.5028.fchk

                         Distributed Multipole Analysis

Standard DMA

Positions and radii in angstrom
Multipole moments in atomic units, ea_0^k for rank k

C          x =  1.500468  y =  1.487974  z = -0.074584 angstrom
           Maximum rank =  0   Radius =  0.650 angstrom
                   Q00  =  -0.125055

C          x = -0.003532  y =  0.165974  z =  1.414416 angstrom
           Maximum rank =  0   Radius =  0.650 angstrom
                   Q00  =   1.082204

N          x =  0.315468  y =  0.693974  z =  0.242416 angstrom
           Maximum rank =  0   Radius =  0.650 angstrom
                   Q00  =  -0.498835

N          x =  0.765468  y =  0.344974  z =  2.472416 angstrom
           Maximum rank =  0   Radius =  0.650 angstrom
                   Q00  =  -0.585651

N          x = -1.096532  y = -0.577026  z =  1.509416 angstrom
           Maximum rank =  0   Radius =  0.650 angstrom
                   Q00  =  -0.594878

H          x = -0.366532  y =  0.539974  z = -0.499584 angstrom
           Maximum rank =  0   Radius =  0.325 angstrom
                   Q00  =   0.249927

H          x =  2.384468  y =  1.048974  z =  0.391416 angstrom
           Maximum rank =  0   Radius =  0.325 angstrom
                   Q00  =   0.112346

H          x =  1.370468  y =  2.514974  z =  0.273416 angstrom
           Maximum rank =  0   Radius =  0.325 angstrom
                   Q00  =   0.117070

H          x =  1.563468  y =  0.953974  z =  2.414416 angstrom
           Maximum rank =  0   Radius =  0.325 angstrom
                   Q00  =   0.268316

H          x =  0.529468  y = -0.087026  z =  3.353416 angstrom
           Maximum rank =  0   Radius =  0.325 angstrom
                   Q00  =   0.263660

H          x = -1.660532  y = -0.725026  z =  0.678416 angstrom
           Maximum rank =  0   Radius =  0.325 angstrom
                   Q00  =   0.265208

H          x = -1.366532  y = -0.989026  z =  2.386416 angstrom
           Maximum rank =  0   Radius =  0.325 angstrom
                   Q00  =   0.260972

H          x =  1.631068  y =  1.476494  z = -1.166744 angstrom
           Maximum rank =  0   Radius =  0.325 angstrom
                   Q00  =   0.161961

C          x = -0.364532  y = -1.178026  z = -3.208584 angstrom
           Maximum rank =  0   Radius =  0.650 angstrom
                   Q00  =  -0.064807

O          x = -0.932532  y = -0.760026  z = -1.991584 angstrom
           Maximum rank =  0   Radius =  0.650 angstrom
                   Q00  =  -0.638227

H          x = -1.895532  y = -0.910026  z = -2.062584 angstrom
           Maximum rank =  0   Radius =  0.325 angstrom
                   Q00  =   0.414701

H          x =  0.348468  y = -0.430026  z = -3.554584 angstrom
           Maximum rank =  0   Radius =  0.325 angstrom
                   Q00  =   0.107235

H          x = -1.149532  y = -1.270026  z = -3.958584 angstrom
           Maximum rank =  0   Radius =  0.325 angstrom
                   Q00  =   0.098746

H          x =  0.144588  y = -2.145846  z = -3.089764 angstrom
           Maximum rank =  0   Radius =  0.325 angstrom
                   Q00  =   0.105108

Total multipoles referred to origin at
           x =   0.000000,  y =    0.000000,  z =    0.000000 angstrom
                   Q00  =   1.000000

Finished at 0:17:28 on 28 Apr 2020

  DMA results are available in the Python driver through the
	  variable('DMA DISTRIBUTED MULTIPOLES')
  and
	  variable('DMA TOTAL MULTIPOLES')
  commands.

    Psi4 stopped on: Tuesday, 28 April 2020 12:17AM
    Psi4 wall time for execution: 0:00:57.19

*** Psi4 exiting successfully. Buy a developer a beer!
