                               Psi4 1.3.2 release

  ==> Input File <==

--------------------------------------------------------------------------
import numpy as np
set {scf_type pk
basis cc-pvdz
d_convergence 10
gdma_switch   0
gdma_limit    0
gdma_origin   [ 0.0,  0.0,  0.0 ]
}
molecule test {
    units Angstrom
    -1 1
    --
    -1 1
    C                1.506664051758297     2.254946784449383     1.604430768026164
    O                1.214664051758298     0.957946784449383     1.115430768026164
    H                0.257664051758297     0.851946784449383     1.047430768026164
    H                1.019664051758297     2.392946784449383     2.570430768026164
    H                1.118664051758298     2.999946784449383     0.917430768026164
    H                2.593344051758298     2.379811784449383     1.720733768026164
    C               -0.010335948241703    -0.376053215550617    -1.849569231973836
    C               -0.775335948241703    -0.920053215550617    -0.675569231973836
    O               -0.160335948241703    -1.653053215550617     0.160430768026164
    O               -1.951335948241703    -0.524053215550617    -0.580569231973836
    H                0.938664051758297    -0.900053215550617    -1.809569231973836
    H                0.193664051758297     0.681946784449383    -1.674569231973836
    H               -0.470228948241703    -0.474345215550617    -2.843972231973836

}
e, wfn = energy('scf', return_wfn=True)
gdma(wfn)
dmavals = variable('DMA DISTRIBUTED MULTIPOLES')
charges = np.array(dmavals)
print(charges)
np.save('SSI-028SER-056GLU-1-dimer.npy', np.array(charges))--------------------------------------------------------------------------

*** tstart() called on ds3
*** at Mon Apr 27 16:44:36 2020

   => Loading Basis Set <=

    Name: CC-PVDZ
    Role: ORBITAL
    Keyword: BASIS
    atoms 1, 7-8     entry C          line   138 file /theoryfs2/ds/metcalf/miniconda2/envs/tf2gpu/share/psi4/basis/cc-pvdz.gbs
    atoms 2, 9-10    entry O          line   198 file /theoryfs2/ds/metcalf/miniconda2/envs/tf2gpu/share/psi4/basis/cc-pvdz.gbs
    atoms 3-6, 11-13 entry H          line    22 file /theoryfs2/ds/metcalf/miniconda2/envs/tf2gpu/share/psi4/basis/cc-pvdz.gbs

         ---------------------------------------------------------
                                   SCF
               by Justin Turney, Rob Parrish, Andy Simmonett
                          and Daniel G. A. Smith
                              RHF Reference
                        1 Threads,    500 MiB Core
         ---------------------------------------------------------

  ==> Geometry <==

    Molecular point group: c1
    Full point group: C1

    Geometry (in Angstrom), charge = -1, multiplicity = 1:

       Center              X                  Y                   Z               Mass
    ------------   -----------------  -----------------  -----------------  -----------------
         C            1.506664051758     2.254946784449     1.604430768026    12.000000000000
         O            1.214664051758     0.957946784449     1.115430768026    15.994914619570
         H            0.257664051758     0.851946784449     1.047430768026     1.007825032230
         H            1.019664051758     2.392946784449     2.570430768026     1.007825032230
         H            1.118664051758     2.999946784449     0.917430768026     1.007825032230
         H            2.593344051758     2.379811784449     1.720733768026     1.007825032230
         C           -0.010335948242    -0.376053215551    -1.849569231974    12.000000000000
         C           -0.775335948242    -0.920053215551    -0.675569231974    12.000000000000
         O           -0.160335948242    -1.653053215551     0.160430768026    15.994914619570
         O           -1.951335948242    -0.524053215551    -0.580569231974    15.994914619570
         H            0.938664051758    -0.900053215551    -1.809569231974     1.007825032230
         H            0.193664051758     0.681946784449    -1.674569231974     1.007825032230
         H           -0.470228948242    -0.474345215551    -2.843972231974     1.007825032230

  Running in c1 symmetry.

  Rotational constants: A =      0.18192  B =      0.04595  C =      0.04499 [cm^-1]
  Rotational constants: A =   5453.92904  B =   1377.65098  C =   1348.69040 [MHz]
  Nuclear repulsion =  228.039112717193262

  Charge       = -1
  Multiplicity = 1
  Electrons    = 50
  Nalpha       = 25
  Nbeta        = 25

  ==> Algorithm <==

  SCF Algorithm Type is PK.
  DIIS enabled.
  MOM disabled.
  Fractional occupation disabled.
  Guess Type is SAD.
  Energy threshold   = 1.00e-06
  Density threshold  = 1.00e-10
  Integral threshold = 0.00e+00

  ==> Primary Basis <==

  Basis Set: CC-PVDZ
    Blend: CC-PVDZ
    Number of shells: 57
    Number of basis function: 119
    Number of Cartesian functions: 125
    Spherical Harmonics?: true
    Max angular momentum: 2

  ==> Pre-Iterations <==

   -------------------------------------------------------
    Irrep   Nso     Nmo     Nalpha   Nbeta   Ndocc  Nsocc
   -------------------------------------------------------
     A        119     119       0       0       0       0
   -------------------------------------------------------
    Total     119     119      25      25      25       0
   -------------------------------------------------------

  ==> Integral Setup <==

  Using integral reordering PK algorithm.
  Sizing the integral batches needed.
  Building batch lookup table.
   Calculation information:
      Number of atoms:                  13
      Number of AO shells:              57
      Number of primitives:            167
      Number of atomic orbitals:       125
      Number of basis functions:       119

      Integral cutoff                 1.00e-12
      Number of threads:                 1

	Batch   1 pq = [       0,    7140] index = [             0,25493370] size =     25493370
  Task number: 3
  Buffer size: 11059200
  Buffer per thread: 2
  We computed 1148011 shell quartets total.
  Whereas there are 1367031 unique shell quartets.

  ==> DiskJK: Disk-Based J/K Matrices <==

    J tasked:                  Yes
    K tasked:                  Yes
    wK tasked:                  No
    Memory [MiB]:              375
    Schwarz Cutoff:          1E-12

    OpenMP threads:              1

  Minimum eigenvalue in the overlap matrix is 4.9601623093E-03.
  Using Symmetric Orthogonalization.

  SCF Guess: Superposition of Atomic Densities via on-the-fly atomic UHF.

  ==> Iterations <==

                        Total Energy        Delta E     RMS |[F,P]|

   @RHF iter SAD:  -340.60857757801244   -3.40609e+02   0.00000e+00
   @RHF iter   1:  -342.03950386991664   -1.43093e+00   6.14324e-03 DIIS
   @RHF iter   2:  -342.22177853248081   -1.82275e-01   3.54791e-03 DIIS
   @RHF iter   3:  -342.28354313734496   -6.17646e-02   4.84418e-04 DIIS
   @RHF iter   4:  -342.28573257805232   -2.18944e-03   1.72795e-04 DIIS
   @RHF iter   5:  -342.28603767602988   -3.05098e-04   3.75121e-05 DIIS
   @RHF iter   6:  -342.28605058992025   -1.29139e-05   1.45472e-05 DIIS
   @RHF iter   7:  -342.28605238172889   -1.79181e-06   4.20657e-06 DIIS
   @RHF iter   8:  -342.28605256567721   -1.83948e-07   1.17351e-06 DIIS
   @RHF iter   9:  -342.28605258311745   -1.74402e-08   5.50748e-07 DIIS
   @RHF iter  10:  -342.28605258706540   -3.94795e-09   1.46620e-07 DIIS
   @RHF iter  11:  -342.28605258757784   -5.12443e-10   5.24504e-08 DIIS
   @RHF iter  12:  -342.28605258763599   -5.81508e-11   1.84003e-08 DIIS
   @RHF iter  13:  -342.28605258764105   -5.05906e-12   5.17425e-09 DIIS
   @RHF iter  14:  -342.28605258764355   -2.50111e-12   1.32285e-09 DIIS
   @RHF iter  15:  -342.28605258764236    1.19371e-12   5.06837e-10 DIIS
   @RHF iter  16:  -342.28605258764230    5.68434e-14   1.46832e-10 DIIS
   @RHF iter  17:  -342.28605258764287   -5.68434e-13   5.32689e-11 DIIS
  Energy and wave function converged.

  ==> Post-Iterations <==

    Orbital Energies [Eh]
    ---------------------

    Doubly Occupied:

       1A    -20.412262     2A    -20.255301     3A    -20.254781
       4A    -11.161765     5A    -11.109970     6A    -11.036473
       7A     -1.214561     8A     -1.139995     9A     -1.031298
      10A     -0.804320    11A     -0.789013    12A     -0.553840
      13A     -0.498314    14A     -0.495653    15A     -0.467784
      16A     -0.405893    17A     -0.401204    18A     -0.391394
      19A     -0.367602    20A     -0.332387    21A     -0.311067
      22A     -0.294513    23A     -0.174902    24A     -0.168845
      25A     -0.157003

    Virtual:

      26A      0.293396    27A      0.346328    28A      0.362220
      29A      0.375592    30A      0.396959    31A      0.415166
      32A      0.437017    33A      0.488254    34A      0.504961
      35A      0.585694    36A      0.705792    37A      0.730850
      38A      0.745912    39A      0.762758    40A      0.821175
      41A      0.848098    42A      0.865413    43A      0.953433
      44A      0.971648    45A      0.980343    46A      0.986872
      47A      1.020080    48A      1.030753    49A      1.039183
      50A      1.054719    51A      1.068518    52A      1.096081
      53A      1.146457    54A      1.222033    55A      1.245966
      56A      1.279008    57A      1.314928    58A      1.329989
      59A      1.366046    60A      1.381678    61A      1.410206
      62A      1.510392    63A      1.545576    64A      1.549934
      65A      1.593356    66A      1.608628    67A      1.643788
      68A      1.670615    69A      1.728320    70A      1.741303
      71A      1.756728    72A      1.779616    73A      1.809002
      74A      1.851629    75A      1.868602    76A      1.975181
      77A      2.012639    78A      2.033610    79A      2.058691
      80A      2.079522    81A      2.091109    82A      2.128323
      83A      2.134153    84A      2.167134    85A      2.212453
      86A      2.287507    87A      2.321442    88A      2.403681
      89A      2.419228    90A      2.449067    91A      2.469883
      92A      2.480582    93A      2.509304    94A      2.621755
      95A      2.662218    96A      2.689063    97A      2.745181
      98A      2.749245    99A      2.865505   100A      2.876030
     101A      2.892155   102A      2.941605   103A      2.979185
     104A      3.020250   105A      3.245736   106A      3.274138
     107A      3.307322   108A      3.365279   109A      3.438320
     110A      3.529834   111A      3.574852   112A      3.619145
     113A      3.747889   114A      3.797482   115A      3.859097
     116A      4.041283   117A      4.092384   118A      4.182612
     119A      4.242883

    Final Occupation by Irrep:
              A
    DOCC [    25 ]

  @RHF Final Energy:  -342.28605258764287

   => Energetics <=

    Nuclear Repulsion Energy =            228.0391127171932624
    One-Electron Energy =                -932.1900451942314021
    Two-Electron Energy =                 361.8648798893952971
    Total Energy =                       -342.2860525876428710

Computation Completed

Properties will be evaluated at   0.000000,   0.000000,   0.000000 [a0]

Properties computed using the SCF density matrix

  Nuclear Dipole Moment: [e a0]
     X:     5.2937      Y:     7.4303      Z:    -0.0642

  Electronic Dipole Moment: [e a0]
     X:    -3.8119      Y:    -5.0429      Z:     0.3705

  Dipole Moment: [e a0]
     X:     1.4818      Y:     2.3874      Z:     0.3063     Total:     2.8265

  Dipole Moment: [D]
     X:     3.7663      Y:     6.0682      Z:     0.7785     Total:     7.1843

*** tstop() called on ds3 at Mon Apr 27 16:44:52 2020
Module time:
	user time   =      10.89 seconds =       0.18 minutes
	system time =       5.06 seconds =       0.08 minutes
	total time  =         16 seconds =       0.27 minutes
Total time:
	user time   =      10.89 seconds =       0.18 minutes
	system time =       5.06 seconds =       0.08 minutes
	total time  =         16 seconds =       0.27 minutes
                                     G D M A

                                 by Anthony Stone

                           version 2.2.06, 22 June 2011

               Distributed Multipoles from Gaussian wavefunctions

Starting at 16:44:52 on 27 Apr 2020

Using SCF density matrix from file ./SSI/SSI-028SER-056GLU-1-dimer.test.27889.fchk

                         Distributed Multipole Analysis

Standard DMA

Positions and radii in angstrom
Multipole moments in atomic units, ea_0^k for rank k

C          x =  1.506664  y =  2.254947  z =  1.604431 angstrom
           Maximum rank =  0   Radius =  0.650 angstrom
                   Q00  =  -0.010764

O          x =  1.214664  y =  0.957947  z =  1.115431 angstrom
           Maximum rank =  0   Radius =  0.650 angstrom
                   Q00  =  -0.591751

H          x =  0.257664  y =  0.851947  z =  1.047431 angstrom
           Maximum rank =  0   Radius =  0.325 angstrom
                   Q00  =   0.430135

H          x =  1.019664  y =  2.392947  z =  2.570431 angstrom
           Maximum rank =  0   Radius =  0.325 angstrom
                   Q00  =   0.041306

H          x =  1.118664  y =  2.999947  z =  0.917431 angstrom
           Maximum rank =  0   Radius =  0.325 angstrom
                   Q00  =   0.048154

H          x =  2.593344  y =  2.379812  z =  1.720734 angstrom
           Maximum rank =  0   Radius =  0.325 angstrom
                   Q00  =   0.085977

C          x = -0.010336  y = -0.376053  z = -1.849569 angstrom
           Maximum rank =  0   Radius =  0.650 angstrom
                   Q00  =  -0.279782

C          x = -0.775336  y = -0.920053  z = -0.675569 angstrom
           Maximum rank =  0   Radius =  0.650 angstrom
                   Q00  =   0.985284

O          x = -0.160336  y = -1.653053  z =  0.160431 angstrom
           Maximum rank =  0   Radius =  0.650 angstrom
                   Q00  =  -0.949189

O          x = -1.951336  y = -0.524053  z = -0.580569 angstrom
           Maximum rank =  0   Radius =  0.650 angstrom
                   Q00  =  -0.930708

H          x =  0.938664  y = -0.900053  z = -1.809569 angstrom
           Maximum rank =  0   Radius =  0.325 angstrom
                   Q00  =   0.050507

H          x =  0.193664  y =  0.681947  z = -1.674569 angstrom
           Maximum rank =  0   Radius =  0.325 angstrom
                   Q00  =   0.068376

H          x = -0.470229  y = -0.474345  z = -2.843972 angstrom
           Maximum rank =  0   Radius =  0.325 angstrom
                   Q00  =   0.052454

Total multipoles referred to origin at
           x =   0.000000,  y =    0.000000,  z =    0.000000 angstrom
                   Q00  =  -1.000000

Finished at 16:44:52 on 27 Apr 2020

  DMA results are available in the Python driver through the
	  variable('DMA DISTRIBUTED MULTIPOLES')
  and
	  variable('DMA TOTAL MULTIPOLES')
  commands.

    Psi4 stopped on: Monday, 27 April 2020 04:44PM
    Psi4 wall time for execution: 0:00:15.53

*** Psi4 exiting successfully. Buy a developer a beer!
