                               Psi4 1.3.2 release

  ==> Input File <==

--------------------------------------------------------------------------
import numpy as np
set {scf_type pk
basis cc-pvdz
d_convergence 10
gdma_switch   0
gdma_limit    0
gdma_origin   [ 0.0,  0.0,  0.0 ]
}
molecule test {
    units Angstrom
    0 1
    --
    0 1
    C                0.428265775424553     1.992126928224485    -3.846595510339049
    C                0.849265775424553     2.911126928224484    -4.993595510339048
    H                0.689265775424553     2.430126928224484    -2.883595510339048
    H               -0.646734224575447     1.824126928224485    -3.894595510339049
    H                0.905265775424553     1.019126928224485    -3.949595510339049
    H                0.691265775424553     2.366126928224485    -5.923595510339048
    H                1.910712775424553     3.189146928224484    -4.915895510339047
    H                0.216221775424553     3.810636928224485    -5.005115510339047
    C               -0.524734224575447    -1.897873071775515    -1.614595510339048
    C                0.967265775424552    -0.011873071775515    -0.740595510339048
    C                0.009265775424553    -0.962873071775515    -0.572595510339048
    C                0.378265775424553     0.133126928224485     1.416404489660952
    C               -0.387734224575447    -0.891873071775515     0.806404489660952
    C                0.242265775424553     0.469126928224485     2.754404489660951
    C               -1.315734224575448    -1.590873071775515     1.588404489660952
    C               -0.677734224575448    -0.235873071775515     3.505404489660951
    C               -1.450734224575447    -1.255873071775515     2.933404489660951
    N                1.194265775424553     0.648126928224485     0.444404489660952
    H                1.464265775424552     0.202126928224485    -1.676595510339048
    H                1.883265775424553     1.381126928224485     0.575404489660952
    H               -0.282734224575447    -1.494873071775515    -2.599595510339048
    H               -1.612734224575447    -1.919873071775515    -1.526595510339048
    H                0.841265775424552     1.252126928224485     3.191404489660952
    H               -1.914734224575447    -2.372873071775516     1.146404489660952
    H               -0.785734224575448    -0.001873071775515     4.555404489660952
    H               -2.163734224575447    -1.789873071775515     3.549404489660952
    H               -0.141840224575447    -2.926363071775516    -1.539745510339048

}
e, wfn = energy('scf', return_wfn=True)
gdma(wfn)
dmavals = variable('DMA DISTRIBUTED MULTIPOLES')
charges = np.array(dmavals)
print(charges)
np.save('SSI-025VAL-029TRP-1-dimer.npy', np.array(charges))--------------------------------------------------------------------------

*** tstart() called on ds3
*** at Mon Apr 27 08:58:30 2020

   => Loading Basis Set <=

    Name: CC-PVDZ
    Role: ORBITAL
    Keyword: BASIS
    atoms 1-2, 9-17  entry C          line   138 file /theoryfs2/ds/metcalf/miniconda2/envs/tf2gpu/share/psi4/basis/cc-pvdz.gbs
    atoms 3-8, 19-27 entry H          line    22 file /theoryfs2/ds/metcalf/miniconda2/envs/tf2gpu/share/psi4/basis/cc-pvdz.gbs
    atoms 18         entry N          line   168 file /theoryfs2/ds/metcalf/miniconda2/envs/tf2gpu/share/psi4/basis/cc-pvdz.gbs

         ---------------------------------------------------------
                                   SCF
               by Justin Turney, Rob Parrish, Andy Simmonett
                          and Daniel G. A. Smith
                              RHF Reference
                        1 Threads,    500 MiB Core
         ---------------------------------------------------------

  ==> Geometry <==

    Molecular point group: c1
    Full point group: C1

    Geometry (in Angstrom), charge = 0, multiplicity = 1:

       Center              X                  Y                   Z               Mass
    ------------   -----------------  -----------------  -----------------  -----------------
         C            0.428265775425     1.992126928224    -3.846595510339    12.000000000000
         C            0.849265775425     2.911126928224    -4.993595510339    12.000000000000
         H            0.689265775425     2.430126928224    -2.883595510339     1.007825032230
         H           -0.646734224575     1.824126928224    -3.894595510339     1.007825032230
         H            0.905265775425     1.019126928224    -3.949595510339     1.007825032230
         H            0.691265775425     2.366126928224    -5.923595510339     1.007825032230
         H            1.910712775425     3.189146928224    -4.915895510339     1.007825032230
         H            0.216221775425     3.810636928224    -5.005115510339     1.007825032230
         C           -0.524734224575    -1.897873071776    -1.614595510339    12.000000000000
         C            0.967265775425    -0.011873071776    -0.740595510339    12.000000000000
         C            0.009265775425    -0.962873071776    -0.572595510339    12.000000000000
         C            0.378265775425     0.133126928224     1.416404489661    12.000000000000
         C           -0.387734224575    -0.891873071776     0.806404489661    12.000000000000
         C            0.242265775425     0.469126928224     2.754404489661    12.000000000000
         C           -1.315734224575    -1.590873071776     1.588404489661    12.000000000000
         C           -0.677734224575    -0.235873071776     3.505404489661    12.000000000000
         C           -1.450734224575    -1.255873071776     2.933404489661    12.000000000000
         N            1.194265775425     0.648126928224     0.444404489661    14.003074004430
         H            1.464265775425     0.202126928224    -1.676595510339     1.007825032230
         H            1.883265775425     1.381126928224     0.575404489661     1.007825032230
         H           -0.282734224575    -1.494873071776    -2.599595510339     1.007825032230
         H           -1.612734224575    -1.919873071776    -1.526595510339     1.007825032230
         H            0.841265775425     1.252126928224     3.191404489661     1.007825032230
         H           -1.914734224575    -2.372873071776     1.146404489661     1.007825032230
         H           -0.785734224575    -0.001873071776     4.555404489661     1.007825032230
         H           -2.163734224575    -1.789873071776     3.549404489661     1.007825032230
         H           -0.141840224575    -2.926363071776    -1.539745510339     1.007825032230

  Running in c1 symmetry.

  Rotational constants: A =      0.05936  B =      0.01255  C =      0.01108 [cm^-1]
  Rotational constants: A =   1779.65754  B =    376.12048  C =    332.12907 [MHz]
  Nuclear repulsion =  637.852423200486555

  Charge       = 0
  Multiplicity = 1
  Electrons    = 88
  Nalpha       = 44
  Nbeta        = 44

  ==> Algorithm <==

  SCF Algorithm Type is PK.
  DIIS enabled.
  MOM disabled.
  Fractional occupation disabled.
  Guess Type is SAD.
  Energy threshold   = 1.00e-06
  Density threshold  = 1.00e-10
  Integral threshold = 0.00e+00

  ==> Primary Basis <==

  Basis Set: CC-PVDZ
    Blend: CC-PVDZ
    Number of shells: 117
    Number of basis function: 243
    Number of Cartesian functions: 255
    Spherical Harmonics?: true
    Max angular momentum: 2

  ==> Pre-Iterations <==

   -------------------------------------------------------
    Irrep   Nso     Nmo     Nalpha   Nbeta   Ndocc  Nsocc
   -------------------------------------------------------
     A        243     243       0       0       0       0
   -------------------------------------------------------
    Total     243     243      44      44      44       0
   -------------------------------------------------------

  ==> Integral Setup <==

  Using integral reordering PK algorithm.
  Sizing the integral batches needed.
  Building batch lookup table.
   Calculation information:
      Number of atoms:                  27
      Number of AO shells:             117
      Number of primitives:            339
      Number of atomic orbitals:       255
      Number of basis functions:       243

      Integral cutoff                 1.00e-12
      Number of threads:                 1

	Batch   1 pq = [       0,    9405] index = [             0,44231715] size =     44231715
	Batch   2 pq = [    9405,   13301] index = [      44231715,88464951] size =     44233236
	Batch   3 pq = [   13301,   16290] index = [      88464951,132690195] size =     44225244
	Batch   4 pq = [   16290,   18810] index = [     132690195,176917455] size =     44227260
	Batch   5 pq = [   18810,   21030] index = [     176917455,221140965] size =     44223510
	Batch   6 pq = [   21030,   23037] index = [     221140965,265363203] size =     44222238
	Batch   7 pq = [   23037,   24883] index = [     265363203,309594286] size =     44231083
	Batch   8 pq = [   24883,   26601] index = [     309594286,353819901] size =     44225615
	Batch   9 pq = [   26601,   28214] index = [     353819901,398029005] size =     44209104
	Batch  10 pq = [   28214,   29646] index = [     398029005,439457481] size =     41428476
  Task number: 40
  Buffer size: 11059200
  Buffer per thread: 2
  We computed 19912689 shell quartets total.
  Whereas there are 23829156 unique shell quartets.

  ==> DiskJK: Disk-Based J/K Matrices <==

    J tasked:                  Yes
    K tasked:                  Yes
    wK tasked:                  No
    Memory [MiB]:              375
    Schwarz Cutoff:          1E-12

    OpenMP threads:              1

  Minimum eigenvalue in the overlap matrix is 2.3838182311E-04.
  Using Symmetric Orthogonalization.

  SCF Guess: Superposition of Atomic Densities via on-the-fly atomic UHF.

  ==> Iterations <==

                        Total Energy        Delta E     RMS |[F,P]|

   @RHF iter SAD:  -479.04695062552150   -4.79047e+02   0.00000e+00
   @RHF iter   1:  -479.49001293509127   -4.43062e-01   2.60948e-03 DIIS
   @RHF iter   2:  -479.72289307541052   -2.32880e-01   1.16093e-03 DIIS
   @RHF iter   3:  -479.76494559418893   -4.20525e-02   3.03213e-04 DIIS
   @RHF iter   4:  -479.76875222278414   -3.80663e-03   1.39041e-04 DIIS
   @RHF iter   5:  -479.76939846595269   -6.46243e-04   1.99566e-05 DIIS
   @RHF iter   6:  -479.76942708016816   -2.86142e-05   9.13834e-06 DIIS
   @RHF iter   7:  -479.76943280226328   -5.72210e-06   3.70437e-06 DIIS
   @RHF iter   8:  -479.76943438148271   -1.57922e-06   1.44752e-06 DIIS
   @RHF iter   9:  -479.76943468216461   -3.00682e-07   6.36753e-07 DIIS
   @RHF iter  10:  -479.76943474192899   -5.97644e-08   2.90163e-07 DIIS
   @RHF iter  11:  -479.76943475677194   -1.48430e-08   1.11444e-07 DIIS
   @RHF iter  12:  -479.76943475894586   -2.17392e-09   3.69375e-08 DIIS
   @RHF iter  13:  -479.76943475910355   -1.57684e-10   9.64775e-09 DIIS
   @RHF iter  14:  -479.76943475911457   -1.10276e-11   4.14584e-09 DIIS
   @RHF iter  15:  -479.76943475912083   -6.25278e-12   2.18843e-09 DIIS
   @RHF iter  16:  -479.76943475911224    8.58336e-12   9.29691e-10 DIIS
   @RHF iter  17:  -479.76943475911520   -2.95586e-12   3.91470e-10 DIIS
   @RHF iter  18:  -479.76943475912117   -5.96856e-12   1.50222e-10 DIIS
   @RHF iter  19:  -479.76943475911821    2.95586e-12   5.00798e-11 DIIS
  Energy and wave function converged.

  ==> Post-Iterations <==

    Orbital Energies [Eh]
    ---------------------

    Doubly Occupied:

       1A    -15.599756     2A    -11.261727     3A    -11.261627
       4A    -11.229345     5A    -11.228265     6A    -11.226994
       7A    -11.226124     8A    -11.223198     9A    -11.221400
      10A    -11.220227    11A    -11.218495    12A    -11.215740
      13A     -1.294013    14A     -1.127604    15A     -1.072358
      16A     -1.023026    17A     -0.996234    18A     -0.986446
      19A     -0.930153    20A     -0.842325    21A     -0.837498
      22A     -0.802682    23A     -0.751935    24A     -0.718874
      25A     -0.661539    26A     -0.640898    27A     -0.604528
      28A     -0.602309    29A     -0.600905    30A     -0.590728
      31A     -0.589004    32A     -0.565945    33A     -0.551287
      34A     -0.536719    35A     -0.526642    36A     -0.504342
      37A     -0.493553    38A     -0.490942    39A     -0.488684
      40A     -0.470022    41A     -0.460569    42A     -0.371741
      43A     -0.293909    44A     -0.274342

    Virtual:

      45A      0.126989    46A      0.169210    47A      0.171129
      48A      0.180629    49A      0.193355    50A      0.204912
      51A      0.220341    52A      0.225901    53A      0.233675
      54A      0.246524    55A      0.250725    56A      0.267123
      57A      0.269882    58A      0.276406    59A      0.284744
      60A      0.291481    61A      0.299399    62A      0.333513
      63A      0.378754    64A      0.385343    65A      0.394113
      66A      0.408009    67A      0.424865    68A      0.446351
      69A      0.472255    70A      0.487772    71A      0.499352
      72A      0.511437    73A      0.581377    74A      0.594022
      75A      0.599007    76A      0.600532    77A      0.615092
      78A      0.639414    79A      0.656396    80A      0.676230
      81A      0.676876    82A      0.692008    83A      0.703234
      84A      0.714900    85A      0.727202    86A      0.731258
      87A      0.738349    88A      0.742007    89A      0.745883
      90A      0.752108    91A      0.762466    92A      0.774216
      93A      0.782823    94A      0.792786    95A      0.811149
      96A      0.835834    97A      0.843977    98A      0.870782
      99A      0.874451   100A      0.886541   101A      0.887731
     102A      0.888654   103A      0.890076   104A      0.899524
     105A      0.901715   106A      0.909620   107A      0.911421
     108A      0.921129   109A      0.931977   110A      0.949035
     111A      0.959030   112A      0.970251   113A      0.983056
     114A      0.987349   115A      1.008587   116A      1.021994
     117A      1.062445   118A      1.073944   119A      1.092612
     120A      1.120503   121A      1.125432   122A      1.135692
     123A      1.138777   124A      1.156325   125A      1.163461
     126A      1.171328   127A      1.206590   128A      1.213332
     129A      1.226826   130A      1.236275   131A      1.248147
     132A      1.272564   133A      1.275275   134A      1.293311
     135A      1.304482   136A      1.332201   137A      1.336411
     138A      1.363411   139A      1.374280   140A      1.410358
     141A      1.447598   142A      1.470017   143A      1.480072
     144A      1.524232   145A      1.557153   146A      1.575553
     147A      1.580235   148A      1.600663   149A      1.631004
     150A      1.644565   151A      1.655258   152A      1.676434
     153A      1.685608   154A      1.690524   155A      1.701165
     156A      1.743640   157A      1.762894   158A      1.776880
     159A      1.790743   160A      1.810157   161A      1.823736
     162A      1.832542   163A      1.861350   164A      1.877076
     165A      1.883011   166A      1.889630   167A      1.901197
     168A      1.909103   169A      1.913826   170A      1.923760
     171A      1.933769   172A      1.936363   173A      1.940348
     174A      1.944274   175A      1.944807   176A      1.956748
     177A      1.960336   178A      1.966904   179A      1.989026
     180A      2.002649   181A      2.012766   182A      2.031021
     183A      2.055801   184A      2.077836   185A      2.083955
     186A      2.088387   187A      2.101953   188A      2.108374
     189A      2.115020   190A      2.118484   191A      2.125084
     192A      2.147878   193A      2.156068   194A      2.170188
     195A      2.179951   196A      2.227812   197A      2.250570
     198A      2.294216   199A      2.301688   200A      2.306015
     201A      2.315170   202A      2.322086   203A      2.332804
     204A      2.349597   205A      2.396669   206A      2.422699
     207A      2.448895   208A      2.453243   209A      2.462020
     210A      2.464555   211A      2.541083   212A      2.559355
     213A      2.573658   214A      2.594418   215A      2.607150
     216A      2.641320   217A      2.665284   218A      2.683860
     219A      2.702217   220A      2.757356   221A      2.768776
     222A      2.775854   223A      2.784697   224A      2.791371
     225A      2.805488   226A      2.832413   227A      2.843394
     228A      2.848984   229A      2.877516   230A      2.884241
     231A      2.916098   232A      2.945684   233A      2.952426
     234A      2.974265   235A      3.029862   236A      3.055857
     237A      3.078593   238A      3.120237   239A      3.207484
     240A      3.310024   241A      3.384268   242A      3.749411
     243A      3.958165

    Final Occupation by Irrep:
              A
    DOCC [    44 ]

  @RHF Final Energy:  -479.76943475911821

   => Energetics <=

    Nuclear Repulsion Energy =            637.8524232004865553
    One-Electron Energy =               -1913.5744084488769658
    Two-Electron Energy =                 795.9525504892721983
    Total Energy =                       -479.7694347591182122

Computation Completed

Properties will be evaluated at   0.000000,   0.000000,   0.000000 [a0]

Properties computed using the SCF density matrix

  Nuclear Dipole Moment: [e a0]
     X:     0.9840      Y:     6.5313      Z:   -19.5915

  Electronic Dipole Moment: [e a0]
     X:    -0.4425      Y:    -6.0569      Z:    19.2260

  Dipole Moment: [e a0]
     X:     0.5415      Y:     0.4744      Z:    -0.3655     Total:     0.8074

  Dipole Moment: [D]
     X:     1.3763      Y:     1.2058      Z:    -0.9290     Total:     2.0521

*** tstop() called on ds3 at Mon Apr 27 09:11:07 2020
Module time:
	user time   =     160.91 seconds =       2.68 minutes
	system time =      70.47 seconds =       1.17 minutes
	total time  =        757 seconds =      12.62 minutes
Total time:
	user time   =     160.91 seconds =       2.68 minutes
	system time =      70.47 seconds =       1.17 minutes
	total time  =        757 seconds =      12.62 minutes
                                     G D M A

                                 by Anthony Stone

                           version 2.2.06, 22 June 2011

               Distributed Multipoles from Gaussian wavefunctions

Starting at 9:11:7 on 27 Apr 2020

Using SCF density matrix from file ./SSI/SSI-025VAL-029TRP-1-dimer.test.1322.fchk

                         Distributed Multipole Analysis

Standard DMA

Positions and radii in angstrom
Multipole moments in atomic units, ea_0^k for rank k

C          x =  0.428266  y =  1.992127  z = -3.846596 angstrom
           Maximum rank =  0   Radius =  0.650 angstrom
                   Q00  =  -0.243095

C          x =  0.849266  y =  2.911127  z = -4.993596 angstrom
           Maximum rank =  0   Radius =  0.650 angstrom
                   Q00  =  -0.229885

H          x =  0.689266  y =  2.430127  z = -2.883596 angstrom
           Maximum rank =  0   Radius =  0.325 angstrom
                   Q00  =   0.076109

H          x = -0.646734  y =  1.824127  z = -3.894596 angstrom
           Maximum rank =  0   Radius =  0.325 angstrom
                   Q00  =   0.085619

H          x =  0.905266  y =  1.019127  z = -3.949596 angstrom
           Maximum rank =  0   Radius =  0.325 angstrom
                   Q00  =   0.071000

H          x =  0.691266  y =  2.366127  z = -5.923596 angstrom
           Maximum rank =  0   Radius =  0.325 angstrom
                   Q00  =   0.079137

H          x =  1.910713  y =  3.189147  z = -4.915896 angstrom
           Maximum rank =  0   Radius =  0.325 angstrom
                   Q00  =   0.078787

H          x =  0.216222  y =  3.810637  z = -5.005116 angstrom
           Maximum rank =  0   Radius =  0.325 angstrom
                   Q00  =   0.081243

C          x = -0.524734  y = -1.897873  z = -1.614596 angstrom
           Maximum rank =  0   Radius =  0.650 angstrom
                   Q00  =  -0.207960

C          x =  0.967266  y = -0.011873  z = -0.740596 angstrom
           Maximum rank =  0   Radius =  0.650 angstrom
                   Q00  =   0.076589

C          x =  0.009266  y = -0.962873  z = -0.572596 angstrom
           Maximum rank =  0   Radius =  0.650 angstrom
                   Q00  =  -0.126873

C          x =  0.378266  y =  0.133127  z =  1.416404 angstrom
           Maximum rank =  0   Radius =  0.650 angstrom
                   Q00  =   0.296427

C          x = -0.387734  y = -0.891873  z =  0.806404 angstrom
           Maximum rank =  0   Radius =  0.650 angstrom
                   Q00  =  -0.051822

C          x =  0.242266  y =  0.469127  z =  2.754404 angstrom
           Maximum rank =  0   Radius =  0.650 angstrom
                   Q00  =  -0.120120

C          x = -1.315734  y = -1.590873  z =  1.588404 angstrom
           Maximum rank =  0   Radius =  0.650 angstrom
                   Q00  =  -0.096469

C          x = -0.677734  y = -0.235873  z =  3.505404 angstrom
           Maximum rank =  0   Radius =  0.650 angstrom
                   Q00  =  -0.068460

C          x = -1.450734  y = -1.255873  z =  2.933404 angstrom
           Maximum rank =  0   Radius =  0.650 angstrom
                   Q00  =  -0.088002

N          x =  1.194266  y =  0.648127  z =  0.444404 angstrom
           Maximum rank =  0   Radius =  0.650 angstrom
                   Q00  =  -0.497119

H          x =  1.464266  y =  0.202127  z = -1.676596 angstrom
           Maximum rank =  0   Radius =  0.325 angstrom
                   Q00  =   0.100968

H          x =  1.883266  y =  1.381127  z =  0.575404 angstrom
           Maximum rank =  0   Radius =  0.325 angstrom
                   Q00  =   0.216613

H          x = -0.282734  y = -1.494873  z = -2.599596 angstrom
           Maximum rank =  0   Radius =  0.325 angstrom
                   Q00  =   0.103179

H          x = -1.612734  y = -1.919873  z = -1.526596 angstrom
           Maximum rank =  0   Radius =  0.325 angstrom
                   Q00  =   0.099958

H          x =  0.841266  y =  1.252127  z =  3.191404 angstrom
           Maximum rank =  0   Radius =  0.325 angstrom
                   Q00  =   0.072382

H          x = -1.914734  y = -2.372873  z =  1.146404 angstrom
           Maximum rank =  0   Radius =  0.325 angstrom
                   Q00  =   0.070189

H          x = -0.785734  y = -0.001873  z =  4.555404 angstrom
           Maximum rank =  0   Radius =  0.325 angstrom
                   Q00  =   0.063814

H          x = -2.163734  y = -1.789873  z =  3.549404 angstrom
           Maximum rank =  0   Radius =  0.325 angstrom
                   Q00  =   0.059841

H          x = -0.141840  y = -2.926363  z = -1.539746 angstrom
           Maximum rank =  0   Radius =  0.325 angstrom
                   Q00  =   0.097950

Total multipoles referred to origin at
           x =   0.000000,  y =    0.000000,  z =    0.000000 angstrom
                   Q00  =  -0.000000

Finished at 9:11:7 on 27 Apr 2020

  DMA results are available in the Python driver through the
	  variable('DMA DISTRIBUTED MULTIPOLES')
  and
	  variable('DMA TOTAL MULTIPOLES')
  commands.

    Psi4 stopped on: Monday, 27 April 2020 09:11AM
    Psi4 wall time for execution: 0:12:36.36

*** Psi4 exiting successfully. Buy a developer a beer!
