                               Psi4 1.3.2 release

  ==> Input File <==

--------------------------------------------------------------------------
import numpy as np
set {scf_type pk
basis cc-pvdz
d_convergence 10
gdma_switch   0
gdma_limit    0
gdma_origin   [ 0.0,  0.0,  0.0 ]
}
molecule test {
    units Angstrom
    0 1
    --
    0 1
    C               -2.771746471682691     0.594156870240426    -0.595975206003619
    C               -2.277746471682691     1.323156870240426     0.650024793996381
    C               -4.124746471682691     0.091156870240426    -0.237975206003619
    H               -2.114746471682691    -0.245843129759574    -0.821975206003619
    H               -2.828746471682691     1.270156870240426    -1.446975206003619
    H               -1.203746471682691     1.198156870240426     0.777024793996381
    H               -2.536746471682692     2.374156870240427     0.563024793996381
    H               -4.475746471682691    -0.714843129759574    -0.859975206003619
    H               -4.826746471682691     0.908156870240426    -0.330975206003619
    H               -2.845486471682691     0.862246870240426     1.471754793996381
    H               -4.020826471682691    -0.188843129759574     0.820704793996381
    C                0.320253528317309    -1.339843129759574    -2.636975206003618
    C                0.776253528317309    -0.555843129759574    -0.185975206003619
    C                0.942253528317309    -0.469843129759574    -1.601975206003619
    C                1.548253528317309     0.481156870240426     0.387024793996381
    C                1.807253528317309     0.541156870240426    -1.822975206003619
    C                0.038253528317309    -1.388843129759574     0.670024793996381
    C                1.617253528317309     0.682156870240426     1.755024793996381
    C                0.114253528317309    -1.174843129759574     2.051024793996381
    C                0.887253528317309    -0.145843129759574     2.570024793996381
    N                2.198253528317309     1.102156870240426    -0.636975206003619
    H               -0.584746471682691    -2.173843129759573     0.265024793996381
    H                0.093253528317309    -0.743843129759574    -3.519975206003618
    H               -0.629746471682691    -1.715843129759574    -2.252975206003619
    H                2.160253528317309     0.848156870240426    -2.802975206003619
    H                2.931253528317308     1.805156870240426    -0.528975206003619
    H                2.245253528317309     1.459156870240427     2.166024793996382
    H               -0.436746471682691    -1.815843129759574     2.726024793996381
    H                0.961253528317309    -0.024843129759574     3.642024793996382
    H                0.940323528317309    -2.196853129759574    -2.938728206003618

}
e, wfn = energy('scf', return_wfn=True)
gdma(wfn)
dmavals = variable('DMA DISTRIBUTED MULTIPOLES')
charges = np.array(dmavals)
print(charges)
np.save('SSI-065PRO-111TRP-1-dimer.npy', np.array(charges))--------------------------------------------------------------------------

*** tstart() called on ds3
*** at Sun Apr 26 18:39:06 2020

   => Loading Basis Set <=

    Name: CC-PVDZ
    Role: ORBITAL
    Keyword: BASIS
    atoms 1-3, 12-20  entry C          line   138 file /theoryfs2/ds/metcalf/miniconda2/envs/tf2gpu/share/psi4/basis/cc-pvdz.gbs
    atoms 4-11, 22-30 entry H          line    22 file /theoryfs2/ds/metcalf/miniconda2/envs/tf2gpu/share/psi4/basis/cc-pvdz.gbs
    atoms 21          entry N          line   168 file /theoryfs2/ds/metcalf/miniconda2/envs/tf2gpu/share/psi4/basis/cc-pvdz.gbs

         ---------------------------------------------------------
                                   SCF
               by Justin Turney, Rob Parrish, Andy Simmonett
                          and Daniel G. A. Smith
                              RHF Reference
                        1 Threads,    500 MiB Core
         ---------------------------------------------------------

  ==> Geometry <==

    Molecular point group: c1
    Full point group: C1

    Geometry (in Angstrom), charge = 0, multiplicity = 1:

       Center              X                  Y                   Z               Mass
    ------------   -----------------  -----------------  -----------------  -----------------
         C           -2.771746471683     0.594156870240    -0.595975206004    12.000000000000
         C           -2.277746471683     1.323156870240     0.650024793996    12.000000000000
         C           -4.124746471683     0.091156870240    -0.237975206004    12.000000000000
         H           -2.114746471683    -0.245843129760    -0.821975206004     1.007825032230
         H           -2.828746471683     1.270156870240    -1.446975206004     1.007825032230
         H           -1.203746471683     1.198156870240     0.777024793996     1.007825032230
         H           -2.536746471683     2.374156870240     0.563024793996     1.007825032230
         H           -4.475746471683    -0.714843129760    -0.859975206004     1.007825032230
         H           -4.826746471683     0.908156870240    -0.330975206004     1.007825032230
         H           -2.845486471683     0.862246870240     1.471754793996     1.007825032230
         H           -4.020826471683    -0.188843129760     0.820704793996     1.007825032230
         C            0.320253528317    -1.339843129760    -2.636975206004    12.000000000000
         C            0.776253528317    -0.555843129760    -0.185975206004    12.000000000000
         C            0.942253528317    -0.469843129760    -1.601975206004    12.000000000000
         C            1.548253528317     0.481156870240     0.387024793996    12.000000000000
         C            1.807253528317     0.541156870240    -1.822975206004    12.000000000000
         C            0.038253528317    -1.388843129760     0.670024793996    12.000000000000
         C            1.617253528317     0.682156870240     1.755024793996    12.000000000000
         C            0.114253528317    -1.174843129760     2.051024793996    12.000000000000
         C            0.887253528317    -0.145843129760     2.570024793996    12.000000000000
         N            2.198253528317     1.102156870240    -0.636975206004    14.003074004430
         H           -0.584746471683    -2.173843129760     0.265024793996     1.007825032230
         H            0.093253528317    -0.743843129760    -3.519975206004     1.007825032230
         H           -0.629746471683    -1.715843129760    -2.252975206004     1.007825032230
         H            2.160253528317     0.848156870240    -2.802975206004     1.007825032230
         H            2.931253528317     1.805156870240    -0.528975206004     1.007825032230
         H            2.245253528317     1.459156870240     2.166024793996     1.007825032230
         H           -0.436746471683    -1.815843129760     2.726024793996     1.007825032230
         H            0.961253528317    -0.024843129760     3.642024793996     1.007825032230
         H            0.940323528317    -2.196853129760    -2.938728206004     1.007825032230

  Running in c1 symmetry.

  Rotational constants: A =      0.02974  B =      0.02059  C =      0.01564 [cm^-1]
  Rotational constants: A =    891.47814  B =    617.27901  C =    468.99854 [MHz]
  Nuclear repulsion =  778.473737254514390

  Charge       = 0
  Multiplicity = 1
  Electrons    = 96
  Nalpha       = 48
  Nbeta        = 48

  ==> Algorithm <==

  SCF Algorithm Type is PK.
  DIIS enabled.
  MOM disabled.
  Fractional occupation disabled.
  Guess Type is SAD.
  Energy threshold   = 1.00e-06
  Density threshold  = 1.00e-10
  Integral threshold = 0.00e+00

  ==> Primary Basis <==

  Basis Set: CC-PVDZ
    Blend: CC-PVDZ
    Number of shells: 129
    Number of basis function: 267
    Number of Cartesian functions: 280
    Spherical Harmonics?: true
    Max angular momentum: 2

  ==> Pre-Iterations <==

   -------------------------------------------------------
    Irrep   Nso     Nmo     Nalpha   Nbeta   Ndocc  Nsocc
   -------------------------------------------------------
     A        267     267       0       0       0       0
   -------------------------------------------------------
    Total     267     267      48      48      48       0
   -------------------------------------------------------

  ==> Integral Setup <==

  Using integral reordering PK algorithm.
  Sizing the integral batches needed.
  Building batch lookup table.
   Calculation information:
      Number of atoms:                  30
      Number of AO shells:             129
      Number of primitives:            371
      Number of atomic orbitals:       280
      Number of basis functions:       267

      Integral cutoff                 1.00e-12
      Number of threads:                 1

	Batch   1 pq = [       0,    9405] index = [             0,44231715] size =     44231715
	Batch   2 pq = [    9405,   13301] index = [      44231715,88464951] size =     44233236
	Batch   3 pq = [   13301,   16290] index = [      88464951,132690195] size =     44225244
	Batch   4 pq = [   16290,   18810] index = [     132690195,176917455] size =     44227260
	Batch   5 pq = [   18810,   21030] index = [     176917455,221140965] size =     44223510
	Batch   6 pq = [   21030,   23037] index = [     221140965,265363203] size =     44222238
	Batch   7 pq = [   23037,   24883] index = [     265363203,309594286] size =     44231083
	Batch   8 pq = [   24883,   26601] index = [     309594286,353819901] size =     44225615
	Batch   9 pq = [   26601,   28214] index = [     353819901,398029005] size =     44209104
	Batch  10 pq = [   28214,   29740] index = [     398029005,442248670] size =     44219665
	Batch  11 pq = [   29740,   31191] index = [     442248670,486454836] size =     44206166
	Batch  12 pq = [   31191,   32578] index = [     486454836,530679331] size =     44224495
	Batch  13 pq = [   32578,   33908] index = [     530679331,574893186] size =     44213855
	Batch  14 pq = [   33908,   35188] index = [     574893186,619115266] size =     44222080
	Batch  15 pq = [   35188,   35778] index = [     619115266,640050531] size =     20935265
  Task number: 58
  Buffer size: 11059200
  Buffer per thread: 2
  We computed 41740697 shell quartets total.
  Whereas there are 35158305 unique shell quartets.
    18.72 percent of shell quartets recomputed by reordering.

  ==> DiskJK: Disk-Based J/K Matrices <==

    J tasked:                  Yes
    K tasked:                  Yes
    wK tasked:                  No
    Memory [MiB]:              375
    Schwarz Cutoff:          1E-12

    OpenMP threads:              1

  Minimum eigenvalue in the overlap matrix is 2.3339079146E-04.
  Using Symmetric Orthogonalization.

  SCF Guess: Superposition of Atomic Densities via on-the-fly atomic UHF.

  ==> Iterations <==

                        Total Energy        Delta E     RMS |[F,P]|

   @RHF iter SAD:  -518.41296508601567   -5.18413e+02   0.00000e+00
   @RHF iter   1:  -518.46179327597611   -4.88282e-02   2.55916e-03 DIIS
   @RHF iter   2:  -518.72732692976126   -2.65534e-01   1.15849e-03 DIIS
   @RHF iter   3:  -518.77747767379822   -5.01507e-02   2.90616e-04 DIIS
   @RHF iter   4:  -518.78169427207752   -4.21660e-03   1.32926e-04 DIIS
   @RHF iter   5:  -518.78239625035997   -7.01978e-04   2.00122e-05 DIIS
   @RHF iter   6:  -518.78242778964045   -3.15393e-05   8.61682e-06 DIIS
   @RHF iter   7:  -518.78243404488171   -6.25524e-06   3.39672e-06 DIIS
   @RHF iter   8:  -518.78243557295605   -1.52807e-06   1.43656e-06 DIIS
   @RHF iter   9:  -518.78243590521151   -3.32255e-07   6.26606e-07 DIIS
   @RHF iter  10:  -518.78243597609173   -7.08802e-08   2.70699e-07 DIIS
   @RHF iter  11:  -518.78243599199607   -1.59043e-08   1.07761e-07 DIIS
   @RHF iter  12:  -518.78243599437712   -2.38106e-09   4.04256e-08 DIIS
   @RHF iter  13:  -518.78243599457880   -2.01680e-10   1.13611e-08 DIIS
   @RHF iter  14:  -518.78243599458983   -1.10276e-11   4.39157e-09 DIIS
   @RHF iter  15:  -518.78243599459665   -6.82121e-12   2.00962e-09 DIIS
   @RHF iter  16:  -518.78243599459472    1.93268e-12   8.69838e-10 DIIS
   @RHF iter  17:  -518.78243599460325   -8.52651e-12   4.27462e-10 DIIS
   @RHF iter  18:  -518.78243599460166    1.59162e-12   1.69970e-10 DIIS
   @RHF iter  19:  -518.78243599460109    5.68434e-13   6.70949e-11 DIIS
  Energy and wave function converged.

  ==> Post-Iterations <==

    Orbital Energies [Eh]
    ---------------------

    Doubly Occupied:

       1A    -15.602292     2A    -11.262305     3A    -11.262275
       4A    -11.232522     5A    -11.228775     6A    -11.226500
       7A    -11.225558     8A    -11.221503     9A    -11.220415
      10A    -11.214975    11A    -11.199006    12A    -11.198232
      13A    -11.193810    14A     -1.301270    15A     -1.132411
      16A     -1.078513    17A     -1.057793    18A     -0.998063
      19A     -0.991666    20A     -0.933661    21A     -0.904003
      22A     -0.842472    23A     -0.804757    24A     -0.784768
      25A     -0.755286    26A     -0.722439    27A     -0.664118
      28A     -0.644834    29A     -0.627493    30A     -0.610682
      31A     -0.603413    32A     -0.593463    33A     -0.589397
      34A     -0.568920    35A     -0.553851    36A     -0.541219
      37A     -0.527542    38A     -0.525729    39A     -0.502124
      40A     -0.496069    41A     -0.473543    42A     -0.467972
      43A     -0.464846    44A     -0.451737    45A     -0.447763
      46A     -0.375057    47A     -0.297532    48A     -0.276817

    Virtual:

      49A      0.124074    50A      0.168335    51A      0.178816
      52A      0.181274    53A      0.199759    54A      0.207293
      55A      0.218998    56A      0.224939    57A      0.226998
      58A      0.247442    59A      0.248129    60A      0.265612
      61A      0.267033    62A      0.275605    63A      0.281719
      64A      0.298182    65A      0.309551    66A      0.314057
      67A      0.341032    68A      0.359580    69A      0.375954
      70A      0.382194    71A      0.401126    72A      0.412944
      73A      0.424161    74A      0.442305    75A      0.453928
      76A      0.469896    77A      0.486966    78A      0.507131
      79A      0.519094    80A      0.566466    81A      0.595261
      82A      0.597102    83A      0.613349    84A      0.617625
      85A      0.630904    86A      0.644558    87A      0.662794
      88A      0.677967    89A      0.686728    90A      0.696321
      91A      0.710024    92A      0.732883    93A      0.734506
      94A      0.740023    95A      0.742913    96A      0.751198
      97A      0.756762    98A      0.769121    99A      0.779016
     100A      0.789198   101A      0.799049   102A      0.811873
     103A      0.826410   104A      0.841468   105A      0.857689
     106A      0.864814   107A      0.871510   108A      0.878191
     109A      0.885119   110A      0.891828   111A      0.900094
     112A      0.903627   113A      0.908808   114A      0.914003
     115A      0.921616   116A      0.926058   117A      0.934421
     118A      0.942471   119A      0.950296   120A      0.956198
     121A      0.966389   122A      0.970151   123A      0.985246
     124A      0.988496   125A      1.001801   126A      1.016971
     127A      1.030308   128A      1.062369   129A      1.073440
     130A      1.095293   131A      1.098456   132A      1.115625
     133A      1.131246   134A      1.142271   135A      1.149329
     136A      1.165387   137A      1.175463   138A      1.200820
     139A      1.217406   140A      1.232829   141A      1.237252
     142A      1.250622   143A      1.262306   144A      1.275235
     145A      1.285524   146A      1.305593   147A      1.314002
     148A      1.332414   149A      1.347433   150A      1.361587
     151A      1.374029   152A      1.424781   153A      1.442932
     154A      1.450619   155A      1.498189   156A      1.517077
     157A      1.532185   158A      1.552944   159A      1.573083
     160A      1.598498   161A      1.617148   162A      1.628474
     163A      1.635317   164A      1.647170   165A      1.653970
     166A      1.661217   167A      1.705887   168A      1.707937
     169A      1.738804   170A      1.740894   171A      1.755920
     172A      1.774077   173A      1.781998   174A      1.794087
     175A      1.813782   176A      1.821185   177A      1.846799
     178A      1.857567   179A      1.879829   180A      1.883171
     181A      1.894001   182A      1.906771   183A      1.908852
     184A      1.918331   185A      1.922430   186A      1.930992
     187A      1.932889   188A      1.951771   189A      1.956715
     190A      1.967104   191A      1.977602   192A      1.980540
     193A      2.000384   194A      2.002862   195A      2.012190
     196A      2.017657   197A      2.025011   198A      2.027630
     199A      2.042955   200A      2.047814   201A      2.074694
     202A      2.080892   203A      2.092934   204A      2.096129
     205A      2.106279   206A      2.113769   207A      2.123002
     208A      2.139768   209A      2.152020   210A      2.165934
     211A      2.178612   212A      2.180419   213A      2.195678
     214A      2.232404   215A      2.257453   216A      2.273660
     217A      2.281393   218A      2.292492   219A      2.307378
     220A      2.320056   221A      2.340003   222A      2.346396
     223A      2.368788   224A      2.386440   225A      2.401631
     226A      2.419569   227A      2.446217   228A      2.456737
     229A      2.463269   230A      2.497882   231A      2.538207
     232A      2.561312   233A      2.583262   234A      2.604217
     235A      2.609826   236A      2.637440   237A      2.665307
     238A      2.673849   239A      2.690018   240A      2.732726
     241A      2.735928   242A      2.775637   243A      2.780436
     244A      2.781745   245A      2.789739   246A      2.805447
     247A      2.818684   248A      2.839893   249A      2.847606
     250A      2.867066   251A      2.878324   252A      2.884754
     253A      2.922824   254A      2.932715   255A      2.949168
     256A      2.982253   257A      2.999670   258A      3.039442
     259A      3.067025   260A      3.091378   261A      3.105929
     262A      3.127972   263A      3.215542   264A      3.315831
     265A      3.387889   266A      3.749136   267A      3.968324

    Final Occupation by Irrep:
              A
    DOCC [    48 ]

  @RHF Final Energy:  -518.78243599460109

   => Energetics <=

    Nuclear Repulsion Energy =            778.4737372545143899
    One-Electron Energy =               -2246.7135628951205035
    Two-Electron Energy =                 949.4573896460050264
    Total Energy =                       -518.7824359946010873

Computation Completed

Properties will be evaluated at   0.000000,   0.000000,   0.000000 [a0]

Properties computed using the SCF density matrix

  Nuclear Dipole Moment: [e a0]
     X:   -16.1050      Y:     0.8450      Z:    -2.8780

  Electronic Dipole Moment: [e a0]
     X:    16.8123      Y:    -0.3703      Z:     2.4891

  Dipole Moment: [e a0]
     X:     0.7073      Y:     0.4747      Z:    -0.3888     Total:     0.9364

  Dipole Moment: [D]
     X:     1.7978      Y:     1.2065      Z:    -0.9883     Total:     2.3800

*** tstop() called on ds3 at Sun Apr 26 18:46:29 2020
Module time:
	user time   =     326.15 seconds =       5.44 minutes
	system time =     105.26 seconds =       1.75 minutes
	total time  =        443 seconds =       7.38 minutes
Total time:
	user time   =     326.15 seconds =       5.44 minutes
	system time =     105.26 seconds =       1.75 minutes
	total time  =        443 seconds =       7.38 minutes
                                     G D M A

                                 by Anthony Stone

                           version 2.2.06, 22 June 2011

               Distributed Multipoles from Gaussian wavefunctions

Starting at 18:46:30 on 26 Apr 2020

Using SCF density matrix from file ./SSI/SSI-065PRO-111TRP-1-dimer.test.31781.fchk

                         Distributed Multipole Analysis

Standard DMA

Positions and radii in angstrom
Multipole moments in atomic units, ea_0^k for rank k

C          x = -2.771746  y =  0.594157  z = -0.595975 angstrom
           Maximum rank =  0   Radius =  0.650 angstrom
                   Q00  =  -0.105369

C          x = -2.277746  y =  1.323157  z =  0.650025 angstrom
           Maximum rank =  0   Radius =  0.650 angstrom
                   Q00  =  -0.224663

C          x = -4.124746  y =  0.091157  z = -0.237975 angstrom
           Maximum rank =  0   Radius =  0.650 angstrom
                   Q00  =  -0.186951

H          x = -2.114746  y = -0.245843  z = -0.821975 angstrom
           Maximum rank =  0   Radius =  0.325 angstrom
                   Q00  =   0.050098

H          x = -2.828746  y =  1.270157  z = -1.446975 angstrom
           Maximum rank =  0   Radius =  0.325 angstrom
                   Q00  =   0.047738

H          x = -1.203746  y =  1.198157  z =  0.777025 angstrom
           Maximum rank =  0   Radius =  0.325 angstrom
                   Q00  =   0.101637

H          x = -2.536746  y =  2.374157  z =  0.563025 angstrom
           Maximum rank =  0   Radius =  0.325 angstrom
                   Q00  =   0.075182

H          x = -4.475746  y = -0.714843  z = -0.859975 angstrom
           Maximum rank =  0   Radius =  0.325 angstrom
                   Q00  =   0.062455

H          x = -4.826746  y =  0.908157  z = -0.330975 angstrom
           Maximum rank =  0   Radius =  0.325 angstrom
                   Q00  =   0.068926

H          x = -2.845486  y =  0.862247  z =  1.471755 angstrom
           Maximum rank =  0   Radius =  0.325 angstrom
                   Q00  =   0.054390

H          x = -4.020826  y = -0.188843  z =  0.820705 angstrom
           Maximum rank =  0   Radius =  0.325 angstrom
                   Q00  =   0.047592

C          x =  0.320254  y = -1.339843  z = -2.636975 angstrom
           Maximum rank =  0   Radius =  0.650 angstrom
                   Q00  =  -0.222702

C          x =  0.776254  y = -0.555843  z = -0.185975 angstrom
           Maximum rank =  0   Radius =  0.650 angstrom
                   Q00  =  -0.048864

C          x =  0.942254  y = -0.469843  z = -1.601975 angstrom
           Maximum rank =  0   Radius =  0.650 angstrom
                   Q00  =  -0.114788

C          x =  1.548254  y =  0.481157  z =  0.387025 angstrom
           Maximum rank =  0   Radius =  0.650 angstrom
                   Q00  =   0.243010

C          x =  1.807254  y =  0.541157  z = -1.822975 angstrom
           Maximum rank =  0   Radius =  0.650 angstrom
                   Q00  =   0.074669

C          x =  0.038254  y = -1.388843  z =  0.670025 angstrom
           Maximum rank =  0   Radius =  0.650 angstrom
                   Q00  =  -0.103313

C          x =  1.617254  y =  0.682157  z =  1.755025 angstrom
           Maximum rank =  0   Radius =  0.650 angstrom
                   Q00  =  -0.123028

C          x =  0.114254  y = -1.174843  z =  2.051025 angstrom
           Maximum rank =  0   Radius =  0.650 angstrom
                   Q00  =  -0.073580

C          x =  0.887254  y = -0.145843  z =  2.570025 angstrom
           Maximum rank =  0   Radius =  0.650 angstrom
                   Q00  =  -0.020286

N          x =  2.198254  y =  1.102157  z = -0.636975 angstrom
           Maximum rank =  0   Radius =  0.650 angstrom
                   Q00  =  -0.492938

H          x = -0.584746  y = -2.173843  z =  0.265025 angstrom
           Maximum rank =  0   Radius =  0.325 angstrom
                   Q00  =   0.070528

H          x =  0.093254  y = -0.743843  z = -3.519975 angstrom
           Maximum rank =  0   Radius =  0.325 angstrom
                   Q00  =   0.105032

H          x = -0.629746  y = -1.715843  z = -2.252975 angstrom
           Maximum rank =  0   Radius =  0.325 angstrom
                   Q00  =   0.103665

H          x =  2.160254  y =  0.848157  z = -2.802975 angstrom
           Maximum rank =  0   Radius =  0.325 angstrom
                   Q00  =   0.098475

H          x =  2.931254  y =  1.805157  z = -0.528975 angstrom
           Maximum rank =  0   Radius =  0.325 angstrom
                   Q00  =   0.219321

H          x =  2.245254  y =  1.459157  z =  2.166025 angstrom
           Maximum rank =  0   Radius =  0.325 angstrom
                   Q00  =   0.071609

H          x = -0.436746  y = -1.815843  z =  2.726025 angstrom
           Maximum rank =  0   Radius =  0.325 angstrom
                   Q00  =   0.060354

H          x =  0.961254  y = -0.024843  z =  3.642025 angstrom
           Maximum rank =  0   Radius =  0.325 angstrom
                   Q00  =   0.062509

H          x =  0.940324  y = -2.196853  z = -2.938728 angstrom
           Maximum rank =  0   Radius =  0.325 angstrom
                   Q00  =   0.099290

Total multipoles referred to origin at
           x =   0.000000,  y =    0.000000,  z =    0.000000 angstrom
                   Q00  =  -0.000000

Finished at 18:46:30 on 26 Apr 2020

  DMA results are available in the Python driver through the
	  variable('DMA DISTRIBUTED MULTIPOLES')
  and
	  variable('DMA TOTAL MULTIPOLES')
  commands.

    Psi4 stopped on: Sunday, 26 April 2020 06:46PM
    Psi4 wall time for execution: 0:07:23.72

*** Psi4 exiting successfully. Buy a developer a beer!
