                               Psi4 1.3.2 release

  ==> Input File <==

--------------------------------------------------------------------------
import numpy as np
set {scf_type pk
basis cc-pvdz
d_convergence 10
gdma_switch   0
gdma_limit    0
gdma_origin   [ 0.0,  0.0,  0.0 ]
}
molecule test {
    units Angstrom
    0 1
    --
    0 1
    C                0.014258858909272     0.006260166661982    -3.979780375973896
    C                0.754258858909272     1.335260166661982    -3.866780375973896
    H               -0.464741141090729    -0.081739833338018    -4.957780375973895
    H                0.709258858909271    -0.824739833338018    -3.840780375973897
    H               -0.727741141090728    -0.013739833338018    -3.183780375973897
    H                1.125258858909272     1.437260166661982    -2.845780375973896
    H                0.060458858909272     2.163154166661982    -4.074695375973897
    H                1.628868858909272     1.335260166661982    -4.533905375973895
    C               -0.961741141090728     2.505260166661982     1.881219624026104
    C                0.393258858909272    -0.399739833338018    -0.178780375973896
    C               -0.024741141090728     0.882260166661982     0.195219624026104
    C                0.292258858909272    -1.451739833338018     0.731219624026104
    C               -0.538741141090728     1.119260166661981     1.471219624026104
    C               -0.222741141090728    -1.227739833338018     2.009219624026104
    C               -0.635741141090729     0.059260166661982     2.374219624026103
    O                0.706258858909272    -2.700739833338018     0.371219624026104
    H                0.827258858909272    -0.562739833338018    -1.156780375973896
    H                0.051258858909272     1.702260166661982    -0.509780375973896
    H                1.110258858909271    -2.729739833338018    -0.502780375973896
    H               -0.295741141090728    -2.046739833338018     2.711219624026104
    H               -0.286741141090728     3.232260166661982     1.429219624026104
    H               -0.839741141090728     2.567260166661982     2.959219624026104
    H               -1.032741141090728     0.228260166661982     3.366219624026104
    H               -2.004591141090728     2.779847166661982     1.664288624026104

}
e, wfn = energy('scf', return_wfn=True)
gdma(wfn)
dmavals = variable('DMA DISTRIBUTED MULTIPOLES')
charges = np.array(dmavals)
print(charges)
np.save('SSI-087ALA-173TYR-1-dimer.npy', np.array(charges))--------------------------------------------------------------------------

*** tstart() called on ds3
*** at Sun Apr 26 22:30:26 2020

   => Loading Basis Set <=

    Name: CC-PVDZ
    Role: ORBITAL
    Keyword: BASIS
    atoms 1-2, 9-15  entry C          line   138 file /theoryfs2/ds/metcalf/miniconda2/envs/tf2gpu/share/psi4/basis/cc-pvdz.gbs
    atoms 3-8, 17-24 entry H          line    22 file /theoryfs2/ds/metcalf/miniconda2/envs/tf2gpu/share/psi4/basis/cc-pvdz.gbs
    atoms 16         entry O          line   198 file /theoryfs2/ds/metcalf/miniconda2/envs/tf2gpu/share/psi4/basis/cc-pvdz.gbs

         ---------------------------------------------------------
                                   SCF
               by Justin Turney, Rob Parrish, Andy Simmonett
                          and Daniel G. A. Smith
                              RHF Reference
                        1 Threads,    500 MiB Core
         ---------------------------------------------------------

  ==> Geometry <==

    Molecular point group: c1
    Full point group: C1

    Geometry (in Angstrom), charge = 0, multiplicity = 1:

       Center              X                  Y                   Z               Mass
    ------------   -----------------  -----------------  -----------------  -----------------
         C            0.014258858909     0.006260166662    -3.979780375974    12.000000000000
         C            0.754258858909     1.335260166662    -3.866780375974    12.000000000000
         H           -0.464741141091    -0.081739833338    -4.957780375974     1.007825032230
         H            0.709258858909    -0.824739833338    -3.840780375974     1.007825032230
         H           -0.727741141091    -0.013739833338    -3.183780375974     1.007825032230
         H            1.125258858909     1.437260166662    -2.845780375974     1.007825032230
         H            0.060458858909     2.163154166662    -4.074695375974     1.007825032230
         H            1.628868858909     1.335260166662    -4.533905375974     1.007825032230
         C           -0.961741141091     2.505260166662     1.881219624026    12.000000000000
         C            0.393258858909    -0.399739833338    -0.178780375974    12.000000000000
         C           -0.024741141091     0.882260166662     0.195219624026    12.000000000000
         C            0.292258858909    -1.451739833338     0.731219624026    12.000000000000
         C           -0.538741141091     1.119260166662     1.471219624026    12.000000000000
         C           -0.222741141091    -1.227739833338     2.009219624026    12.000000000000
         C           -0.635741141091     0.059260166662     2.374219624026    12.000000000000
         O            0.706258858909    -2.700739833338     0.371219624026    15.994914619570
         H            0.827258858909    -0.562739833338    -1.156780375974     1.007825032230
         H            0.051258858909     1.702260166662    -0.509780375974     1.007825032230
         H            1.110258858909    -2.729739833338    -0.502780375974     1.007825032230
         H           -0.295741141091    -2.046739833338     2.711219624026     1.007825032230
         H           -0.286741141091     3.232260166662     1.429219624026     1.007825032230
         H           -0.839741141091     2.567260166662     2.959219624026     1.007825032230
         H           -1.032741141091     0.228260166662     3.366219624026     1.007825032230
         H           -2.004591141091     2.779847166662     1.664288624026     1.007825032230

  Running in c1 symmetry.

  Rotational constants: A =      0.04634  B =      0.02310  C =      0.01591 [cm^-1]
  Rotational constants: A =   1389.25692  B =    692.59696  C =    476.93566 [MHz]
  Nuclear repulsion =  489.634863930573431

  Charge       = 0
  Multiplicity = 1
  Electrons    = 76
  Nalpha       = 38
  Nbeta        = 38

  ==> Algorithm <==

  SCF Algorithm Type is PK.
  DIIS enabled.
  MOM disabled.
  Fractional occupation disabled.
  Guess Type is SAD.
  Energy threshold   = 1.00e-06
  Density threshold  = 1.00e-10
  Integral threshold = 0.00e+00

  ==> Primary Basis <==

  Basis Set: CC-PVDZ
    Blend: CC-PVDZ
    Number of shells: 102
    Number of basis function: 210
    Number of Cartesian functions: 220
    Spherical Harmonics?: true
    Max angular momentum: 2

  ==> Pre-Iterations <==

   -------------------------------------------------------
    Irrep   Nso     Nmo     Nalpha   Nbeta   Ndocc  Nsocc
   -------------------------------------------------------
     A        210     210       0       0       0       0
   -------------------------------------------------------
    Total     210     210      38      38      38       0
   -------------------------------------------------------

  ==> Integral Setup <==

  Using integral reordering PK algorithm.
  Sizing the integral batches needed.
  Building batch lookup table.
   Calculation information:
      Number of atoms:                  24
      Number of AO shells:             102
      Number of primitives:            290
      Number of atomic orbitals:       220
      Number of basis functions:       210

      Integral cutoff                 1.00e-12
      Number of threads:                 1

	Batch   1 pq = [       0,    9405] index = [             0,44231715] size =     44231715
	Batch   2 pq = [    9405,   13301] index = [      44231715,88464951] size =     44233236
	Batch   3 pq = [   13301,   16290] index = [      88464951,132690195] size =     44225244
	Batch   4 pq = [   16290,   18810] index = [     132690195,176917455] size =     44227260
	Batch   5 pq = [   18810,   21030] index = [     176917455,221140965] size =     44223510
	Batch   6 pq = [   21030,   22155] index = [     221140965,245433090] size =     24292125
  Task number: 23
  Buffer size: 11059200
  Buffer per thread: 2
  We computed 11261023 shell quartets total.
  Whereas there are 13799631 unique shell quartets.

  ==> DiskJK: Disk-Based J/K Matrices <==

    J tasked:                  Yes
    K tasked:                  Yes
    wK tasked:                  No
    Memory [MiB]:              375
    Schwarz Cutoff:          1E-12

    OpenMP threads:              1

  Minimum eigenvalue in the overlap matrix is 3.2819899344E-04.
  Using Symmetric Orthogonalization.

  SCF Guess: Superposition of Atomic Densities via on-the-fly atomic UHF.

  ==> Iterations <==

                        Total Energy        Delta E     RMS |[F,P]|

   @RHF iter SAD:  -422.65028765936631   -4.22650e+02   0.00000e+00
   @RHF iter   1:  -423.60040368295745   -9.50116e-01   2.97482e-03 DIIS
   @RHF iter   2:  -423.81638033857490   -2.15977e-01   1.25533e-03 DIIS
   @RHF iter   3:  -423.85119099083818   -3.48107e-02   2.86211e-04 DIIS
   @RHF iter   4:  -423.85408273178683   -2.89174e-03   1.19589e-04 DIIS
   @RHF iter   5:  -423.85445155927755   -3.68827e-04   2.05877e-05 DIIS
   @RHF iter   6:  -423.85446906293299   -1.75037e-05   6.40642e-06 DIIS
   @RHF iter   7:  -423.85447070883492   -1.64590e-06   2.10361e-06 DIIS
   @RHF iter   8:  -423.85447094142955   -2.32595e-07   7.90757e-07 DIIS
   @RHF iter   9:  -423.85447098022382   -3.87943e-08   3.19740e-07 DIIS
   @RHF iter  10:  -423.85447098776666   -7.54284e-09   1.35886e-07 DIIS
   @RHF iter  11:  -423.85447099009929   -2.33263e-09   6.08712e-08 DIIS
   @RHF iter  12:  -423.85447099053374   -4.34454e-10   2.93271e-08 DIIS
   @RHF iter  13:  -423.85447099061270   -7.89555e-11   8.22047e-09 DIIS
   @RHF iter  14:  -423.85447099061980   -7.10543e-12   2.15335e-09 DIIS
   @RHF iter  15:  -423.85447099061889    9.09495e-13   6.86462e-10 DIIS
   @RHF iter  16:  -423.85447099061889    0.00000e+00   2.24193e-10 DIIS
   @RHF iter  17:  -423.85447099061821    6.82121e-13   9.26081e-11 DIIS
  Energy and wave function converged.

  ==> Post-Iterations <==

    Orbital Energies [Eh]
    ---------------------

    Doubly Occupied:

       1A    -20.581833     2A    -11.300698     3A    -11.240021
       4A    -11.239415     5A    -11.234168     6A    -11.233474
       7A    -11.231945     8A    -11.226842     9A    -11.225105
      10A    -11.222818    11A     -1.397612    12A     -1.148456
      13A     -1.036713    14A     -1.026574    15A     -1.015613
      16A     -0.925592    17A     -0.844239    18A     -0.840087
      19A     -0.801649    20A     -0.731714    21A     -0.666612
      22A     -0.642210    23A     -0.608726    24A     -0.606875
      25A     -0.606431    26A     -0.584945    27A     -0.583036
      28A     -0.571594    29A     -0.562542    30A     -0.525338
      31A     -0.504188    32A     -0.497218    33A     -0.493822
      34A     -0.490716    35A     -0.483888    36A     -0.465181
      37A     -0.337196    38A     -0.301351

    Virtual:

      39A      0.128646    40A      0.153298    41A      0.162937
      42A      0.178926    43A      0.198925    44A      0.216723
      45A      0.227780    46A      0.243909    47A      0.246862
      48A      0.255834    49A      0.262457    50A      0.270084
      51A      0.279570    52A      0.289569    53A      0.311694
      54A      0.331717    55A      0.372294    56A      0.383872
      57A      0.395481    58A      0.431729    59A      0.457173
      60A      0.492200    61A      0.495752    62A      0.505982
      63A      0.594873    64A      0.602215    65A      0.608642
      66A      0.632633    67A      0.634902    68A      0.642241
      69A      0.665377    70A      0.673554    71A      0.689821
      72A      0.696694    73A      0.712137    74A      0.715025
      75A      0.731425    76A      0.744503    77A      0.759920
      78A      0.777173    79A      0.783039    80A      0.792034
      81A      0.796918    82A      0.835184    83A      0.841885
      84A      0.850492    85A      0.852798    86A      0.873622
      87A      0.880953    88A      0.884387    89A      0.891697
      90A      0.898627    91A      0.902167    92A      0.912820
      93A      0.926797    94A      0.933056    95A      0.943155
      96A      0.947607    97A      0.961891    98A      0.973704
      99A      0.988686   100A      1.023927   101A      1.046894
     102A      1.063302   103A      1.110472   104A      1.123737
     105A      1.130036   106A      1.144484   107A      1.146440
     108A      1.192762   109A      1.205673   110A      1.237766
     111A      1.243837   112A      1.259650   113A      1.270563
     114A      1.285448   115A      1.303551   116A      1.312770
     117A      1.325638   118A      1.357882   119A      1.366396
     120A      1.387098   121A      1.472051   122A      1.477784
     123A      1.486999   124A      1.504943   125A      1.531468
     126A      1.547207   127A      1.577725   128A      1.619071
     129A      1.627096   130A      1.678891   131A      1.686960
     132A      1.694228   133A      1.710180   134A      1.730714
     135A      1.749237   136A      1.776061   137A      1.797811
     138A      1.802925   139A      1.845891   140A      1.866421
     141A      1.872523   142A      1.877739   143A      1.896703
     144A      1.906350   145A      1.909728   146A      1.913685
     147A      1.920045   148A      1.933599   149A      1.935465
     150A      1.945002   151A      1.958434   152A      1.961242
     153A      1.967024   154A      1.973545   155A      1.988017
     156A      2.001136   157A      2.038024   158A      2.046040
     159A      2.050663   160A      2.061107   161A      2.067901
     162A      2.106793   163A      2.125810   164A      2.138717
     165A      2.153160   166A      2.175274   167A      2.204251
     168A      2.238749   169A      2.259368   170A      2.276412
     171A      2.292072   172A      2.300043   173A      2.306544
     174A      2.314373   175A      2.362331   176A      2.426294
     177A      2.435811   178A      2.456398   179A      2.461824
     180A      2.478454   181A      2.493059   182A      2.533779
     183A      2.545076   184A      2.573423   185A      2.580731
     186A      2.593500   187A      2.639153   188A      2.753420
     189A      2.760297   190A      2.775232   191A      2.789184
     192A      2.794329   193A      2.808054   194A      2.835260
     195A      2.849365   196A      2.859602   197A      2.899177
     198A      2.940097   199A      2.947460   200A      2.965595
     201A      2.995659   202A      3.083231   203A      3.105707
     204A      3.244081   205A      3.271950   206A      3.350696
     207A      3.569074   208A      3.660760   209A      3.970984
     210A      4.188827

    Final Occupation by Irrep:
              A
    DOCC [    38 ]

  @RHF Final Energy:  -423.85447099061821

   => Energetics <=

    Nuclear Repulsion Energy =            489.6348639305734309
    One-Electron Energy =               -1544.9058007191388242
    Two-Electron Energy =                 631.4164657979472395
    Total Energy =                       -423.8544709906182106

Computation Completed

Properties will be evaluated at   0.000000,   0.000000,   0.000000 [a0]

Properties computed using the SCF density matrix

  Nuclear Dipole Moment: [e a0]
     X:    -0.1273      Y:     8.5987      Z:   -12.6315

  Electronic Dipole Moment: [e a0]
     X:     0.2505      Y:    -8.2437      Z:    12.2228

  Dipole Moment: [e a0]
     X:     0.1232      Y:     0.3550      Z:    -0.4086     Total:     0.5552

  Dipole Moment: [D]
     X:     0.3131      Y:     0.9024      Z:    -1.0387     Total:     1.4111

*** tstop() called on ds3 at Sun Apr 26 22:32:24 2020
Module time:
	user time   =      83.57 seconds =       1.39 minutes
	system time =      38.84 seconds =       0.65 minutes
	total time  =        118 seconds =       1.97 minutes
Total time:
	user time   =      83.57 seconds =       1.39 minutes
	system time =      38.84 seconds =       0.65 minutes
	total time  =        118 seconds =       1.97 minutes
                                     G D M A

                                 by Anthony Stone

                           version 2.2.06, 22 June 2011

               Distributed Multipoles from Gaussian wavefunctions

Starting at 22:32:24 on 26 Apr 2020

Using SCF density matrix from file ./SSI/SSI-087ALA-173TYR-1-dimer.test.9634.fchk

                         Distributed Multipole Analysis

Standard DMA

Positions and radii in angstrom
Multipole moments in atomic units, ea_0^k for rank k

C          x =  0.014259  y =  0.006260  z = -3.979780 angstrom
           Maximum rank =  0   Radius =  0.650 angstrom
                   Q00  =  -0.234745

C          x =  0.754259  y =  1.335260  z = -3.866780 angstrom
           Maximum rank =  0   Radius =  0.650 angstrom
                   Q00  =  -0.235880

H          x = -0.464741  y = -0.081740  z = -4.957780 angstrom
           Maximum rank =  0   Radius =  0.325 angstrom
                   Q00  =   0.084520

H          x =  0.709259  y = -0.824740  z = -3.840780 angstrom
           Maximum rank =  0   Radius =  0.325 angstrom
                   Q00  =   0.070251

H          x = -0.727741  y = -0.013740  z = -3.183780 angstrom
           Maximum rank =  0   Radius =  0.325 angstrom
                   Q00  =   0.081103

H          x =  1.125259  y =  1.437260  z = -2.845780 angstrom
           Maximum rank =  0   Radius =  0.325 angstrom
                   Q00  =   0.072120

H          x =  0.060459  y =  2.163154  z = -4.074695 angstrom
           Maximum rank =  0   Radius =  0.325 angstrom
                   Q00  =   0.083011

H          x =  1.628869  y =  1.335260  z = -4.533905 angstrom
           Maximum rank =  0   Radius =  0.325 angstrom
                   Q00  =   0.079632

C          x = -0.961741  y =  2.505260  z =  1.881220 angstrom
           Maximum rank =  0   Radius =  0.650 angstrom
                   Q00  =  -0.193451

C          x =  0.393259  y = -0.399740  z = -0.178780 angstrom
           Maximum rank =  0   Radius =  0.650 angstrom
                   Q00  =  -0.182020

C          x = -0.024741  y =  0.882260  z =  0.195220 angstrom
           Maximum rank =  0   Radius =  0.650 angstrom
                   Q00  =   0.014038

C          x =  0.292259  y = -1.451740  z =  0.731220 angstrom
           Maximum rank =  0   Radius =  0.650 angstrom
                   Q00  =   0.316964

C          x = -0.538741  y =  1.119260  z =  1.471220 angstrom
           Maximum rank =  0   Radius =  0.650 angstrom
                   Q00  =  -0.130563

C          x = -0.222741  y = -1.227740  z =  2.009220 angstrom
           Maximum rank =  0   Radius =  0.650 angstrom
                   Q00  =  -0.115155

C          x = -0.635741  y =  0.059260  z =  2.374220 angstrom
           Maximum rank =  0   Radius =  0.650 angstrom
                   Q00  =  -0.017633

O          x =  0.706259  y = -2.700740  z =  0.371220 angstrom
           Maximum rank =  0   Radius =  0.650 angstrom
                   Q00  =  -0.682038

H          x =  0.827259  y = -0.562740  z = -1.156780 angstrom
           Maximum rank =  0   Radius =  0.325 angstrom
                   Q00  =   0.074232

H          x =  0.051259  y =  1.702260  z = -0.509780 angstrom
           Maximum rank =  0   Radius =  0.325 angstrom
                   Q00  =   0.069171

H          x =  1.110259  y = -2.729740  z = -0.502780 angstrom
           Maximum rank =  0   Radius =  0.325 angstrom
                   Q00  =   0.408253

H          x = -0.295741  y = -2.046740  z =  2.711220 angstrom
           Maximum rank =  0   Radius =  0.325 angstrom
                   Q00  =   0.082841

H          x = -0.286741  y =  3.232260  z =  1.429220 angstrom
           Maximum rank =  0   Radius =  0.325 angstrom
                   Q00  =   0.096349

H          x = -0.839741  y =  2.567260  z =  2.959220 angstrom
           Maximum rank =  0   Radius =  0.325 angstrom
                   Q00  =   0.093073

H          x = -1.032741  y =  0.228260  z =  3.366220 angstrom
           Maximum rank =  0   Radius =  0.325 angstrom
                   Q00  =   0.065809

H          x = -2.004591  y =  2.779847  z =  1.664289 angstrom
           Maximum rank =  0   Radius =  0.325 angstrom
                   Q00  =   0.100118

Total multipoles referred to origin at
           x =   0.000000,  y =    0.000000,  z =    0.000000 angstrom
                   Q00  =  -0.000000

Finished at 22:32:24 on 26 Apr 2020

  DMA results are available in the Python driver through the
	  variable('DMA DISTRIBUTED MULTIPOLES')
  and
	  variable('DMA TOTAL MULTIPOLES')
  commands.

    Psi4 stopped on: Sunday, 26 April 2020 10:32PM
    Psi4 wall time for execution: 0:01:57.97

*** Psi4 exiting successfully. Buy a developer a beer!
