                               Psi4 1.3.2 release

  ==> Input File <==

--------------------------------------------------------------------------
import numpy as np
set {scf_type pk
basis cc-pvdz
d_convergence 10
gdma_switch   0
gdma_limit    0
gdma_origin   [ 0.0,  0.0,  0.0 ]
}
molecule test {
    units Angstrom
    0 1
    --
    0 1
    C                1.976740895224443    -1.906859883396427     0.785241150851706
    C                2.869740895224443    -0.945859883396427     1.583241150851706
    C                0.961740895224443    -2.690859883396427     1.626241150851706
    H                1.441740895224443    -1.335859883396427     0.028241150851706
    H                2.610740895224443    -2.626859883396427     0.267241150851706
    H                2.253740895224443    -0.131859883396427     1.968241150851706
    H                1.493740895224443    -3.343859883396427     2.319241150851706
    H                3.642980895224443    -0.512753883396427     0.931692250851706
    H                3.329710895224443    -1.455497883396427     2.442715650851706
    H                0.322860895224443    -2.010830883396427     2.208814050851706
    H                0.345160895224443    -3.329179883396427     0.976332350851706
    C               -2.851259104775557    -0.445859883396427    -1.331758849148294
    C                0.646740895224443     0.996140116603573    -1.172758849148294
    C                0.534740895224443     1.895140116603574    -0.119758849148294
    C               -0.448259104775557     0.234140116603573    -1.562758849148294
    C               -1.669259104775557     0.376140116603573    -0.914758849148294
    C               -0.679259104775557     2.036140116603574     0.543241150851706
    C               -1.775259104775557     1.272140116603574     0.143241150851706
    H                1.593740895224443     0.882140116603573    -1.682758849148294
    H                1.392740895224443     2.478140116603573     0.180241150851706
    H               -0.346259104775557    -0.462859883396427    -2.380758849148294
    H               -0.778259104775557     2.734140116603573     1.363241150851706
    H               -3.338259104775557    -0.833859883396427    -0.439758849148294
    H               -2.497259104775557    -1.300859883396427    -1.908758849148294
    H               -2.713259104775557     1.380140116603573     0.668241150851706
    H               -3.591169104775557     0.101345116603573    -1.934331849148294

}
e, wfn = energy('scf', return_wfn=True)
gdma(wfn)
dmavals = variable('DMA DISTRIBUTED MULTIPOLES')
charges = np.array(dmavals)
print(charges)
np.save('SSI-006LEU-108PHE-1-dimer.npy', np.array(charges))--------------------------------------------------------------------------

*** tstart() called on ds3
*** at Tue Apr 28 03:12:20 2020

   => Loading Basis Set <=

    Name: CC-PVDZ
    Role: ORBITAL
    Keyword: BASIS
    atoms 1-3, 12-18  entry C          line   138 file /theoryfs2/ds/metcalf/miniconda2/envs/tf2gpu/share/psi4/basis/cc-pvdz.gbs
    atoms 4-11, 19-26 entry H          line    22 file /theoryfs2/ds/metcalf/miniconda2/envs/tf2gpu/share/psi4/basis/cc-pvdz.gbs

         ---------------------------------------------------------
                                   SCF
               by Justin Turney, Rob Parrish, Andy Simmonett
                          and Daniel G. A. Smith
                              RHF Reference
                        1 Threads,    500 MiB Core
         ---------------------------------------------------------

  ==> Geometry <==

    Molecular point group: c1
    Full point group: C1

    Geometry (in Angstrom), charge = 0, multiplicity = 1:

       Center              X                  Y                   Z               Mass
    ------------   -----------------  -----------------  -----------------  -----------------
         C            1.976740895224    -1.906859883396     0.785241150852    12.000000000000
         C            2.869740895224    -0.945859883396     1.583241150852    12.000000000000
         C            0.961740895224    -2.690859883396     1.626241150852    12.000000000000
         H            1.441740895224    -1.335859883396     0.028241150852     1.007825032230
         H            2.610740895224    -2.626859883396     0.267241150852     1.007825032230
         H            2.253740895224    -0.131859883396     1.968241150852     1.007825032230
         H            1.493740895224    -3.343859883396     2.319241150852     1.007825032230
         H            3.642980895224    -0.512753883396     0.931692250852     1.007825032230
         H            3.329710895224    -1.455497883396     2.442715650852     1.007825032230
         H            0.322860895224    -2.010830883396     2.208814050852     1.007825032230
         H            0.345160895224    -3.329179883396     0.976332350852     1.007825032230
         C           -2.851259104776    -0.445859883396    -1.331758849148    12.000000000000
         C            0.646740895224     0.996140116604    -1.172758849148    12.000000000000
         C            0.534740895224     1.895140116604    -0.119758849148    12.000000000000
         C           -0.448259104776     0.234140116604    -1.562758849148    12.000000000000
         C           -1.669259104776     0.376140116604    -0.914758849148    12.000000000000
         C           -0.679259104776     2.036140116604     0.543241150852    12.000000000000
         C           -1.775259104776     1.272140116604     0.143241150852    12.000000000000
         H            1.593740895224     0.882140116604    -1.682758849148     1.007825032230
         H            1.392740895224     2.478140116604     0.180241150852     1.007825032230
         H           -0.346259104776    -0.462859883396    -2.380758849148     1.007825032230
         H           -0.778259104776     2.734140116604     1.363241150852     1.007825032230
         H           -3.338259104776    -0.833859883396    -0.439758849148     1.007825032230
         H           -2.497259104776    -1.300859883396    -1.908758849148     1.007825032230
         H           -2.713259104776     1.380140116604     0.668241150852     1.007825032230
         H           -3.591169104776     0.101345116604    -1.934331849148     1.007825032230

  Running in c1 symmetry.

  Rotational constants: A =      0.05291  B =      0.02347  C =      0.01979 [cm^-1]
  Rotational constants: A =   1586.19502  B =    703.61045  C =    593.41085 [MHz]
  Nuclear repulsion =  495.397690871668544

  Charge       = 0
  Multiplicity = 1
  Electrons    = 76
  Nalpha       = 38
  Nbeta        = 38

  ==> Algorithm <==

  SCF Algorithm Type is PK.
  DIIS enabled.
  MOM disabled.
  Fractional occupation disabled.
  Guess Type is SAD.
  Energy threshold   = 1.00e-06
  Density threshold  = 1.00e-10
  Integral threshold = 0.00e+00

  ==> Primary Basis <==

  Basis Set: CC-PVDZ
    Blend: CC-PVDZ
    Number of shells: 108
    Number of basis function: 220
    Number of Cartesian functions: 230
    Spherical Harmonics?: true
    Max angular momentum: 2

  ==> Pre-Iterations <==

   -------------------------------------------------------
    Irrep   Nso     Nmo     Nalpha   Nbeta   Ndocc  Nsocc
   -------------------------------------------------------
     A        220     220       0       0       0       0
   -------------------------------------------------------
    Total     220     220      38      38      38       0
   -------------------------------------------------------

  ==> Integral Setup <==

  Using integral reordering PK algorithm.
  Sizing the integral batches needed.
  Building batch lookup table.
   Calculation information:
      Number of atoms:                  26
      Number of AO shells:             108
      Number of primitives:            300
      Number of atomic orbitals:       230
      Number of basis functions:       220

      Integral cutoff                 1.00e-12
      Number of threads:                 1

	Batch   1 pq = [       0,    9405] index = [             0,44231715] size =     44231715
	Batch   2 pq = [    9405,   13301] index = [      44231715,88464951] size =     44233236
	Batch   3 pq = [   13301,   16290] index = [      88464951,132690195] size =     44225244
	Batch   4 pq = [   16290,   18810] index = [     132690195,176917455] size =     44227260
	Batch   5 pq = [   18810,   21030] index = [     176917455,221140965] size =     44223510
	Batch   6 pq = [   21030,   23037] index = [     221140965,265363203] size =     44222238
	Batch   7 pq = [   23037,   24310] index = [     265363203,295500205] size =     30137002
  Task number: 27
  Buffer size: 11059200
  Buffer per thread: 2
  We computed 16611901 shell quartets total.
  Whereas there are 17325441 unique shell quartets.

  ==> DiskJK: Disk-Based J/K Matrices <==

    J tasked:                  Yes
    K tasked:                  Yes
    wK tasked:                  No
    Memory [MiB]:              375
    Schwarz Cutoff:          1E-12

    OpenMP threads:              1

  Minimum eigenvalue in the overlap matrix is 3.0710567290E-04.
  Using Symmetric Orthogonalization.

  SCF Guess: Superposition of Atomic Densities via on-the-fly atomic UHF.

  ==> Iterations <==

                        Total Energy        Delta E     RMS |[F,P]|

   @RHF iter SAD:  -386.87782568123561   -3.86878e+02   0.00000e+00
   @RHF iter   1:  -387.77304566460418   -8.95220e-01   2.75361e-03 DIIS
   @RHF iter   2:  -387.99142629037277   -2.18381e-01   1.17019e-03 DIIS
   @RHF iter   3:  -388.02730506958574   -3.58788e-02   2.51629e-04 DIIS
   @RHF iter   4:  -388.03020275524693   -2.89769e-03   5.35927e-05 DIIS
   @RHF iter   5:  -388.03029629107027   -9.35358e-05   1.64741e-05 DIIS
   @RHF iter   6:  -388.03030477105432   -8.47998e-06   4.93897e-06 DIIS
   @RHF iter   7:  -388.03030562465102   -8.53597e-07   1.19834e-06 DIIS
   @RHF iter   8:  -388.03030568661529   -6.19643e-08   2.95909e-07 DIIS
   @RHF iter   9:  -388.03030569471531   -8.10002e-09   1.21949e-07 DIIS
   @RHF iter  10:  -388.03030569654157   -1.82627e-09   6.00785e-08 DIIS
   @RHF iter  11:  -388.03030569713229   -5.90717e-10   2.21577e-08 DIIS
   @RHF iter  12:  -388.03030569722165   -8.93579e-11   8.00353e-09 DIIS
   @RHF iter  13:  -388.03030569722841   -6.76437e-12   3.19720e-09 DIIS
   @RHF iter  14:  -388.03030569722870   -2.84217e-13   8.66742e-10 DIIS
   @RHF iter  15:  -388.03030569723012   -1.42109e-12   2.86722e-10 DIIS
   @RHF iter  16:  -388.03030569723035   -2.27374e-13   7.90660e-11 DIIS
  Energy and wave function converged.

  ==> Post-Iterations <==

    Orbital Energies [Eh]
    ---------------------

    Doubly Occupied:

       1A    -11.240436     2A    -11.237274     3A    -11.235729
       4A    -11.231794     5A    -11.231119     6A    -11.230705
       7A    -11.229021     8A    -11.211792     9A    -11.211558
      10A    -11.210696    11A     -1.155565    12A     -1.047155
      13A     -1.042300    14A     -1.013391    15A     -0.932705
      16A     -0.917463    17A     -0.826928    18A     -0.797304
      19A     -0.788523    20A     -0.692748    21A     -0.633533
      22A     -0.631277    23A     -0.615908    24A     -0.586641
      25A     -0.583737    26A     -0.577962    27A     -0.564338
      28A     -0.542911    29A     -0.535479    30A     -0.523887
      31A     -0.490044    32A     -0.486348    33A     -0.483199
      34A     -0.465831    35A     -0.460289    36A     -0.458500
      37A     -0.332847    38A     -0.323870

    Virtual:

      39A      0.133743    40A      0.139514    41A      0.172391
      42A      0.194674    43A      0.201400    44A      0.211553
      45A      0.233008    46A      0.240006    47A      0.251118
      48A      0.253528    49A      0.262463    50A      0.263282
      51A      0.273780    52A      0.280182    53A      0.291242
      54A      0.299751    55A      0.310329    56A      0.328707
      57A      0.365884    58A      0.375528    59A      0.379867
      60A      0.432200    61A      0.452423    62A      0.460983
      63A      0.476884    64A      0.497264    65A      0.561966
      66A      0.582004    67A      0.587475    68A      0.603800
      69A      0.609349    70A      0.625837    71A      0.640999
      72A      0.648435    73A      0.681834    74A      0.689968
      75A      0.700877    76A      0.729596    77A      0.736895
      78A      0.743773    79A      0.751114    80A      0.757833
      81A      0.771856    82A      0.785145    83A      0.792862
      84A      0.810572    85A      0.828762    86A      0.835703
      87A      0.849397    88A      0.860692    89A      0.864954
      90A      0.872780    91A      0.883186    92A      0.894882
      93A      0.896249    94A      0.898618    95A      0.907163
      96A      0.909522    97A      0.912414    98A      0.921278
      99A      0.927807   100A      0.937668   101A      0.939887
     102A      0.951681   103A      0.956757   104A      0.979932
     105A      1.001317   106A      1.006730   107A      1.041111
     108A      1.073110   109A      1.122394   110A      1.127133
     111A      1.136641   112A      1.144053   113A      1.152283
     114A      1.170557   115A      1.191399   116A      1.234352
     117A      1.239185   118A      1.252060   119A      1.256658
     120A      1.290685   121A      1.303742   122A      1.315042
     123A      1.324236   124A      1.332650   125A      1.381816
     126A      1.413264   127A      1.481817   128A      1.491946
     129A      1.501295   130A      1.515301   131A      1.527702
     132A      1.554453   133A      1.601633   134A      1.643905
     135A      1.676433   136A      1.686056   137A      1.690246
     138A      1.696661   139A      1.700251   140A      1.731581
     141A      1.748994   142A      1.770674   143A      1.793561
     144A      1.816942   145A      1.856688   146A      1.860621
     147A      1.872586   148A      1.880744   149A      1.888620
     150A      1.894173   151A      1.906624   152A      1.917606
     153A      1.924875   154A      1.932818   155A      1.942438
     156A      1.947719   157A      1.952725   158A      1.956295
     159A      1.969033   160A      1.977092   161A      1.979614
     162A      1.989240   163A      1.992119   164A      2.004678
     165A      2.008762   166A      2.011861   167A      2.040303
     168A      2.040615   169A      2.065216   170A      2.081089
     171A      2.109302   172A      2.130109   173A      2.139443
     174A      2.157575   175A      2.159332   176A      2.170917
     177A      2.178955   178A      2.191867   179A      2.249722
     180A      2.273413   181A      2.288884   182A      2.295467
     183A      2.299919   184A      2.310232   185A      2.321487
     186A      2.331772   187A      2.334686   188A      2.351874
     189A      2.459012   190A      2.477225   191A      2.500196
     192A      2.513240   193A      2.535982   194A      2.542384
     195A      2.593852   196A      2.614734   197A      2.626200
     198A      2.627204   199A      2.736112   200A      2.754216
     201A      2.756732   202A      2.760240   203A      2.770281
     204A      2.789196   205A      2.798460   206A      2.808895
     207A      2.815664   208A      2.855692   209A      2.873697
     210A      2.937034   211A      2.968457   212A      2.975666
     213A      2.988400   214A      3.017746   215A      3.037084
     216A      3.086036   217A      3.160826   218A      3.207980
     219A      3.301084   220A      3.976455

    Final Occupation by Irrep:
              A
    DOCC [    38 ]

  @RHF Final Energy:  -388.03030569723035

   => Energetics <=

    Nuclear Repulsion Energy =            495.3976908716685443
    One-Electron Energy =               -1505.2943775069097683
    Two-Electron Energy =                 621.8663809380108205
    Total Energy =                       -388.0303056972303466

Computation Completed

Properties will be evaluated at   0.000000,   0.000000,   0.000000 [a0]

Properties computed using the SCF density matrix

  Nuclear Dipole Moment: [e a0]
     X:     4.8399      Y:    -9.1576      Z:     4.6947

  Electronic Dipole Moment: [e a0]
     X:    -5.0125      Y:     9.1627      Z:    -4.7916

  Dipole Moment: [e a0]
     X:    -0.1727      Y:     0.0051      Z:    -0.0969     Total:     0.1981

  Dipole Moment: [D]
     X:    -0.4389      Y:     0.0130      Z:    -0.2463     Total:     0.5034

*** tstop() called on ds3 at Tue Apr 28 03:15:08 2020
Module time:
	user time   =     114.35 seconds =       1.91 minutes
	system time =      41.20 seconds =       0.69 minutes
	total time  =        168 seconds =       2.80 minutes
Total time:
	user time   =     114.35 seconds =       1.91 minutes
	system time =      41.20 seconds =       0.69 minutes
	total time  =        168 seconds =       2.80 minutes
                                     G D M A

                                 by Anthony Stone

                           version 2.2.06, 22 June 2011

               Distributed Multipoles from Gaussian wavefunctions

Starting at 3:15:8 on 28 Apr 2020

Using SCF density matrix from file ./SSI/SSI-006LEU-108PHE-1-dimer.test.8583.fchk

                         Distributed Multipole Analysis

Standard DMA

Positions and radii in angstrom
Multipole moments in atomic units, ea_0^k for rank k

C          x =  1.976741  y = -1.906860  z =  0.785241 angstrom
           Maximum rank =  0   Radius =  0.650 angstrom
                   Q00  =  -0.081288

C          x =  2.869741  y = -0.945860  z =  1.583241 angstrom
           Maximum rank =  0   Radius =  0.650 angstrom
                   Q00  =  -0.248376

C          x =  0.961741  y = -2.690860  z =  1.626241 angstrom
           Maximum rank =  0   Radius =  0.650 angstrom
                   Q00  =  -0.244705

H          x =  1.441741  y = -1.335860  z =  0.028241 angstrom
           Maximum rank =  0   Radius =  0.325 angstrom
                   Q00  =   0.070408

H          x =  2.610741  y = -2.626860  z =  0.267241 angstrom
           Maximum rank =  0   Radius =  0.325 angstrom
                   Q00  =   0.037262

H          x =  2.253741  y = -0.131860  z =  1.968241 angstrom
           Maximum rank =  0   Radius =  0.325 angstrom
                   Q00  =   0.080187

H          x =  1.493741  y = -3.343860  z =  2.319241 angstrom
           Maximum rank =  0   Radius =  0.325 angstrom
                   Q00  =   0.072539

H          x =  3.642981  y = -0.512754  z =  0.931692 angstrom
           Maximum rank =  0   Radius =  0.325 angstrom
                   Q00  =   0.080770

H          x =  3.329711  y = -1.455498  z =  2.442716 angstrom
           Maximum rank =  0   Radius =  0.325 angstrom
                   Q00  =   0.073584

H          x =  0.322861  y = -2.010831  z =  2.208814 angstrom
           Maximum rank =  0   Radius =  0.325 angstrom
                   Q00  =   0.078824

H          x =  0.345161  y = -3.329180  z =  0.976332 angstrom
           Maximum rank =  0   Radius =  0.325 angstrom
                   Q00  =   0.081904

C          x = -2.851259  y = -0.445860  z = -1.331759 angstrom
           Maximum rank =  0   Radius =  0.650 angstrom
                   Q00  =  -0.198873

C          x =  0.646741  y =  0.996140  z = -1.172759 angstrom
           Maximum rank =  0   Radius =  0.650 angstrom
                   Q00  =  -0.053850

C          x =  0.534741  y =  1.895140  z = -0.119759 angstrom
           Maximum rank =  0   Radius =  0.650 angstrom
                   Q00  =  -0.098746

C          x = -0.448259  y =  0.234140  z = -1.562759 angstrom
           Maximum rank =  0   Radius =  0.650 angstrom
                   Q00  =  -0.088950

C          x = -1.669259  y =  0.376140  z = -0.914759 angstrom
           Maximum rank =  0   Radius =  0.650 angstrom
                   Q00  =  -0.096754

C          x = -0.679259  y =  2.036140  z =  0.543241 angstrom
           Maximum rank =  0   Radius =  0.650 angstrom
                   Q00  =  -0.069186

C          x = -1.775259  y =  1.272140  z =  0.143241 angstrom
           Maximum rank =  0   Radius =  0.650 angstrom
                   Q00  =  -0.002459

H          x =  1.593741  y =  0.882140  z = -1.682759 angstrom
           Maximum rank =  0   Radius =  0.325 angstrom
                   Q00  =   0.064974

H          x =  1.392741  y =  2.478140  z =  0.180241 angstrom
           Maximum rank =  0   Radius =  0.325 angstrom
                   Q00  =   0.062062

H          x = -0.346259  y = -0.462860  z = -2.380759 angstrom
           Maximum rank =  0   Radius =  0.325 angstrom
                   Q00  =   0.057983

H          x = -0.778259  y =  2.734140  z =  1.363241 angstrom
           Maximum rank =  0   Radius =  0.325 angstrom
                   Q00  =   0.066132

H          x = -3.338259  y = -0.833860  z = -0.439759 angstrom
           Maximum rank =  0   Radius =  0.325 angstrom
                   Q00  =   0.099550

H          x = -2.497259  y = -1.300860  z = -1.908759 angstrom
           Maximum rank =  0   Radius =  0.325 angstrom
                   Q00  =   0.096155

H          x = -2.713259  y =  1.380140  z =  0.668241 angstrom
           Maximum rank =  0   Radius =  0.325 angstrom
                   Q00  =   0.055862

H          x = -3.591169  y =  0.101345  z = -1.934332 angstrom
           Maximum rank =  0   Radius =  0.325 angstrom
                   Q00  =   0.104990

Total multipoles referred to origin at
           x =   0.000000,  y =    0.000000,  z =    0.000000 angstrom
                   Q00  =  -0.000000

Finished at 3:15:8 on 28 Apr 2020

  DMA results are available in the Python driver through the
	  variable('DMA DISTRIBUTED MULTIPOLES')
  and
	  variable('DMA TOTAL MULTIPOLES')
  commands.

    Psi4 stopped on: Tuesday, 28 April 2020 03:15AM
    Psi4 wall time for execution: 0:02:48.22

*** Psi4 exiting successfully. Buy a developer a beer!
