                               Psi4 1.3.2 release

  ==> Input File <==

--------------------------------------------------------------------------
import numpy as np
set {scf_type pk
basis cc-pvdz
d_convergence 10
gdma_switch   0
gdma_limit    0
gdma_origin   [ 0.0,  0.0,  0.0 ]
}
molecule test {
    units Angstrom
    0 1
    --
    0 1
    C                0.884597811201862     1.607126547599869    -3.166208856635627
    C                0.979597811201862     0.907126547599869    -1.804208856635627
    O                0.768597811201862    -0.326873452400131    -1.678208856635627
    O                1.290597811201862     1.620126547599869    -0.827208856635627
    H                1.889597811201862     1.925126547599869    -3.453208856635627
    H                0.288597811201862     2.516126547599869    -3.077208856635627
    H                0.495497811201862     0.984416547599869    -3.985258856635627
    C               -1.544402188798138    -2.355873452400131     0.587791143364373
    C               -0.597402188798138    -0.368873452400131     1.704791143364373
    N               -0.751402188798138    -1.128873452400131     0.633791143364373
    N               -1.122402188798138    -0.713873452400131     2.872791143364373
    N                0.095597811201862     0.743126547599869     1.597791143364373
    H               -0.241402188798138    -0.850873452400131    -0.208208856635627
    H               -1.370402188798138    -2.966873452400131     1.471791143364373
    H               -1.253402188798138    -2.940873452400131    -0.287208856635627
    H               -1.566402188798138    -1.613873452400131     3.015791143364373
    H               -1.065402188798138    -0.037873452400131     3.630791143364373
    H                0.520597811201862     0.994126547599869     0.702791143364373
    H                0.241597811201862     1.336126547599869     2.411791143364373
    H               -2.607342188798138    -2.085596452400131     0.503511143364373

}
e, wfn = energy('scf', return_wfn=True)
gdma(wfn)
dmavals = variable('DMA DISTRIBUTED MULTIPOLES')
charges = np.array(dmavals)
print(charges)
np.save('SSI-033GLU-036ARG-1-dimer.npy', np.array(charges))--------------------------------------------------------------------------

*** tstart() called on ds3
*** at Mon Apr 27 18:37:58 2020

   => Loading Basis Set <=

    Name: CC-PVDZ
    Role: ORBITAL
    Keyword: BASIS
    atoms 1-2, 8-9   entry C          line   138 file /theoryfs2/ds/metcalf/miniconda2/envs/tf2gpu/share/psi4/basis/cc-pvdz.gbs
    atoms 3-4        entry O          line   198 file /theoryfs2/ds/metcalf/miniconda2/envs/tf2gpu/share/psi4/basis/cc-pvdz.gbs
    atoms 5-7, 13-20 entry H          line    22 file /theoryfs2/ds/metcalf/miniconda2/envs/tf2gpu/share/psi4/basis/cc-pvdz.gbs
    atoms 10-12      entry N          line   168 file /theoryfs2/ds/metcalf/miniconda2/envs/tf2gpu/share/psi4/basis/cc-pvdz.gbs

         ---------------------------------------------------------
                                   SCF
               by Justin Turney, Rob Parrish, Andy Simmonett
                          and Daniel G. A. Smith
                              RHF Reference
                        1 Threads,    500 MiB Core
         ---------------------------------------------------------

  ==> Geometry <==

    Molecular point group: c1
    Full point group: C1

    Geometry (in Angstrom), charge = 0, multiplicity = 1:

       Center              X                  Y                   Z               Mass
    ------------   -----------------  -----------------  -----------------  -----------------
         C            0.884597811202     1.607126547600    -3.166208856636    12.000000000000
         C            0.979597811202     0.907126547600    -1.804208856636    12.000000000000
         O            0.768597811202    -0.326873452400    -1.678208856636    15.994914619570
         O            1.290597811202     1.620126547600    -0.827208856636    15.994914619570
         H            1.889597811202     1.925126547600    -3.453208856636     1.007825032230
         H            0.288597811202     2.516126547600    -3.077208856636     1.007825032230
         H            0.495497811202     0.984416547600    -3.985258856636     1.007825032230
         C           -1.544402188798    -2.355873452400     0.587791143364    12.000000000000
         C           -0.597402188798    -0.368873452400     1.704791143364    12.000000000000
         N           -0.751402188798    -1.128873452400     0.633791143364    14.003074004430
         N           -1.122402188798    -0.713873452400     2.872791143364    14.003074004430
         N            0.095597811202     0.743126547600     1.597791143364    14.003074004430
         H           -0.241402188798    -0.850873452400    -0.208208856636     1.007825032230
         H           -1.370402188798    -2.966873452400     1.471791143364     1.007825032230
         H           -1.253402188798    -2.940873452400    -0.287208856636     1.007825032230
         H           -1.566402188798    -1.613873452400     3.015791143364     1.007825032230
         H           -1.065402188798    -0.037873452400     3.630791143364     1.007825032230
         H            0.520597811202     0.994126547600     0.702791143364     1.007825032230
         H            0.241597811202     1.336126547600     2.411791143364     1.007825032230
         H           -2.607342188798    -2.085596452400     0.503511143364     1.007825032230

  Running in c1 symmetry.

  Rotational constants: A =      0.09587  B =      0.02491  C =      0.02043 [cm^-1]
  Rotational constants: A =   2874.09405  B =    746.72619  C =    612.56550 [MHz]
  Nuclear repulsion =  464.789710569322835

  Charge       = 0
  Multiplicity = 1
  Electrons    = 72
  Nalpha       = 36
  Nbeta        = 36

  ==> Algorithm <==

  SCF Algorithm Type is PK.
  DIIS enabled.
  MOM disabled.
  Fractional occupation disabled.
  Guess Type is SAD.
  Energy threshold   = 1.00e-06
  Density threshold  = 1.00e-10
  Integral threshold = 0.00e+00

  ==> Primary Basis <==

  Basis Set: CC-PVDZ
    Blend: CC-PVDZ
    Number of shells: 87
    Number of basis function: 181
    Number of Cartesian functions: 190
    Spherical Harmonics?: true
    Max angular momentum: 2

  ==> Pre-Iterations <==

   -------------------------------------------------------
    Irrep   Nso     Nmo     Nalpha   Nbeta   Ndocc  Nsocc
   -------------------------------------------------------
     A        181     181       0       0       0       0
   -------------------------------------------------------
    Total     181     181      36      36      36       0
   -------------------------------------------------------

  ==> Integral Setup <==

  Using integral reordering PK algorithm.
  Sizing the integral batches needed.
  Building batch lookup table.
   Calculation information:
      Number of atoms:                  20
      Number of AO shells:              87
      Number of primitives:            253
      Number of atomic orbitals:       190
      Number of basis functions:       181

      Integral cutoff                 1.00e-12
      Number of threads:                 1

	Batch   1 pq = [       0,    9405] index = [             0,44231715] size =     44231715
	Batch   2 pq = [    9405,   13301] index = [      44231715,88464951] size =     44233236
	Batch   3 pq = [   13301,   16471] index = [      88464951,135655156] size =     47190205
  Task number: 13
  Buffer size: 11059200
  Buffer per thread: 2
  We computed 5972372 shell quartets total.
  Whereas there are 7328706 unique shell quartets.

  ==> DiskJK: Disk-Based J/K Matrices <==

    J tasked:                  Yes
    K tasked:                  Yes
    wK tasked:                  No
    Memory [MiB]:              375
    Schwarz Cutoff:          1E-12

    OpenMP threads:              1

  Minimum eigenvalue in the overlap matrix is 3.6877566320E-03.
  Using Symmetric Orthogonalization.

  SCF Guess: Superposition of Atomic Densities via on-the-fly atomic UHF.

  ==> Iterations <==

                        Total Energy        Delta E     RMS |[F,P]|

   @RHF iter SAD:  -469.70567596985154   -4.69706e+02   0.00000e+00
   @RHF iter   1:  -470.72779141871280   -1.02212e+00   4.18161e-03 DIIS
   @RHF iter   2:  -470.94680086575642   -2.19009e-01   2.16845e-03 DIIS
   @RHF iter   3:  -471.00289434997779   -5.60935e-02   3.89716e-04 DIIS
   @RHF iter   4:  -471.00603527528563   -3.14093e-03   1.29337e-04 DIIS
   @RHF iter   5:  -471.00638737055749   -3.52095e-04   2.32662e-05 DIIS
   @RHF iter   6:  -471.00640394875069   -1.65782e-05   7.44421e-06 DIIS
   @RHF iter   7:  -471.00640528636279   -1.33761e-06   2.13162e-06 DIIS
   @RHF iter   8:  -471.00640543666549   -1.50303e-07   8.27136e-07 DIIS
   @RHF iter   9:  -471.00640545193102   -1.52655e-08   2.99391e-07 DIIS
   @RHF iter  10:  -471.00640545397385   -2.04284e-09   6.71830e-08 DIIS
   @RHF iter  11:  -471.00640545418071   -2.06853e-10   2.22343e-08 DIIS
   @RHF iter  12:  -471.00640545420413   -2.34195e-11   1.00675e-08 DIIS
   @RHF iter  13:  -471.00640545421032   -6.19593e-12   3.51644e-09 DIIS
   @RHF iter  14:  -471.00640545420879    1.53477e-12   1.06310e-09 DIIS
   @RHF iter  15:  -471.00640545421038   -1.59162e-12   3.94643e-10 DIIS
   @RHF iter  16:  -471.00640545420765    2.72848e-12   1.34486e-10 DIIS
   @RHF iter  17:  -471.00640545420998   -2.33058e-12   5.81700e-11 DIIS
  Energy and wave function converged.

  ==> Post-Iterations <==

    Orbital Energies [Eh]
    ---------------------

    Doubly Occupied:

       1A    -20.429277     2A    -20.427903     3A    -15.648234
       4A    -15.607428     5A    -15.604831     6A    -11.424285
       7A    -11.304020     8A    -11.279010     9A    -11.177738
      10A     -1.382917    11A     -1.318928    12A     -1.241904
      13A     -1.224257    14A     -1.201509    15A     -0.991862
      16A     -0.925295    17A     -0.877391    18A     -0.815918
      19A     -0.775752    20A     -0.707254    21A     -0.694029
      22A     -0.669172    23A     -0.648516    24A     -0.633101
      25A     -0.601124    26A     -0.582046    27A     -0.562650
      28A     -0.549877    29A     -0.540669    30A     -0.486895
      31A     -0.465384    32A     -0.455124    33A     -0.415603
      34A     -0.348744    35A     -0.339454    36A     -0.333218

    Virtual:

      37A      0.123432    38A      0.155918    39A      0.180640
      40A      0.207763    41A      0.213174    42A      0.238179
      43A      0.245457    44A      0.257960    45A      0.269438
      46A      0.299272    47A      0.305939    48A      0.342083
      49A      0.366699    50A      0.411311    51A      0.433482
      52A      0.447638    53A      0.489764    54A      0.492514
      55A      0.577156    56A      0.594495    57A      0.609381
      58A      0.618121    59A      0.657943    60A      0.674151
      61A      0.678116    62A      0.690668    63A      0.698022
      64A      0.713546    65A      0.728259    66A      0.773025
      67A      0.808813    68A      0.811605    69A      0.832868
      70A      0.833054    71A      0.845338    72A      0.850436
      73A      0.893899    74A      0.903887    75A      0.911677
      76A      0.915664    77A      0.931025    78A      0.945236
      79A      0.956329    80A      0.970293    81A      0.980865
      82A      0.995706    83A      1.052555    84A      1.070400
      85A      1.091342    86A      1.108685    87A      1.118211
      88A      1.131548    89A      1.200374    90A      1.217104
      91A      1.249183    92A      1.267371    93A      1.298544
      94A      1.300826    95A      1.342448    96A      1.349549
      97A      1.358101    98A      1.388973    99A      1.411599
     100A      1.430764   101A      1.460487   102A      1.477394
     103A      1.494495   104A      1.549341   105A      1.559209
     106A      1.572873   107A      1.613926   108A      1.633629
     109A      1.664622   110A      1.693725   111A      1.702093
     112A      1.720793   113A      1.729452   114A      1.740282
     115A      1.806204   116A      1.819800   117A      1.852836
     118A      1.875043   119A      1.886368   120A      1.908997
     121A      1.911935   122A      1.927597   123A      1.928661
     124A      1.950979   125A      1.961006   126A      1.978253
     127A      1.996131   128A      2.001698   129A      2.019671
     130A      2.077353   131A      2.096233   132A      2.126173
     133A      2.150939   134A      2.171280   135A      2.187456
     136A      2.225290   137A      2.275079   138A      2.281904
     139A      2.295107   140A      2.341768   141A      2.357885
     142A      2.403175   143A      2.420059   144A      2.448199
     145A      2.471011   146A      2.479438   147A      2.500877
     148A      2.521905   149A      2.563571   150A      2.577228
     151A      2.604829   152A      2.630053   153A      2.639861
     154A      2.716445   155A      2.734483   156A      2.744278
     157A      2.790552   158A      2.798486   159A      2.845172
     160A      2.860427   161A      2.872794   162A      2.913569
     163A      2.940461   164A      2.967547   165A      2.996468
     166A      3.031792   167A      3.103561   168A      3.133287
     169A      3.155612   170A      3.186805   171A      3.234939
     172A      3.304568   173A      3.376708   174A      3.488369
     175A      3.609217   176A      3.649402   177A      3.755812
     178A      3.797519   179A      3.915314   180A      3.932256
     181A      4.056244

    Final Occupation by Irrep:
              A
    DOCC [    36 ]

  @RHF Final Energy:  -471.00640545420998

   => Energetics <=

    Nuclear Repulsion Energy =            464.7897105693228355
    One-Electron Energy =               -1566.2095947889265517
    Two-Electron Energy =                 630.4134787653938474
    Total Energy =                       -471.0064054542099257

Computation Completed

Properties will be evaluated at   0.000000,   0.000000,   0.000000 [a0]

Properties computed using the SCF density matrix

  Nuclear Dipole Moment: [e a0]
     X:    -4.3615      Y:    -2.5593      Z:     0.6532

  Electronic Dipole Moment: [e a0]
     X:     1.9894      Y:     1.2120      Z:     3.0252

  Dipole Moment: [e a0]
     X:    -2.3721      Y:    -1.3473      Z:     3.6783     Total:     4.5795

  Dipole Moment: [D]
     X:    -6.0292      Y:    -3.4246      Z:     9.3494     Total:    11.6400

*** tstop() called on ds3 at Mon Apr 27 18:39:01 2020
Module time:
	user time   =      45.01 seconds =       0.75 minutes
	system time =      19.61 seconds =       0.33 minutes
	total time  =         63 seconds =       1.05 minutes
Total time:
	user time   =      45.01 seconds =       0.75 minutes
	system time =      19.61 seconds =       0.33 minutes
	total time  =         63 seconds =       1.05 minutes
                                     G D M A

                                 by Anthony Stone

                           version 2.2.06, 22 June 2011

               Distributed Multipoles from Gaussian wavefunctions

Starting at 18:39:1 on 27 Apr 2020

Using SCF density matrix from file ./SSI/SSI-033GLU-036ARG-1-dimer.test.26182.fchk

                         Distributed Multipole Analysis

Standard DMA

Positions and radii in angstrom
Multipole moments in atomic units, ea_0^k for rank k

C          x =  0.884598  y =  1.607127  z = -3.166209 angstrom
           Maximum rank =  0   Radius =  0.650 angstrom
                   Q00  =  -0.267957

C          x =  0.979598  y =  0.907127  z = -1.804209 angstrom
           Maximum rank =  0   Radius =  0.650 angstrom
                   Q00  =   0.885631

O          x =  0.768598  y = -0.326873  z = -1.678209 angstrom
           Maximum rank =  0   Radius =  0.650 angstrom
                   Q00  =  -0.938125

O          x =  1.290598  y =  1.620127  z = -0.827209 angstrom
           Maximum rank =  0   Radius =  0.650 angstrom
                   Q00  =  -0.924885

H          x =  1.889598  y =  1.925127  z = -3.453209 angstrom
           Maximum rank =  0   Radius =  0.325 angstrom
                   Q00  =   0.109084

H          x =  0.288598  y =  2.516127  z = -3.077209 angstrom
           Maximum rank =  0   Radius =  0.325 angstrom
                   Q00  =   0.092286

H          x =  0.495498  y =  0.984417  z = -3.985259 angstrom
           Maximum rank =  0   Radius =  0.325 angstrom
                   Q00  =   0.078252

C          x = -1.544402  y = -2.355873  z =  0.587791 angstrom
           Maximum rank =  0   Radius =  0.650 angstrom
                   Q00  =  -0.105410

C          x = -0.597402  y = -0.368873  z =  1.704791 angstrom
           Maximum rank =  0   Radius =  0.650 angstrom
                   Q00  =   1.068324

N          x = -0.751402  y = -1.128873  z =  0.633791 angstrom
           Maximum rank =  0   Radius =  0.650 angstrom
                   Q00  =  -0.516434

N          x = -1.122402  y = -0.713873  z =  2.872791 angstrom
           Maximum rank =  0   Radius =  0.650 angstrom
                   Q00  =  -0.592831

N          x =  0.095598  y =  0.743127  z =  1.597791 angstrom
           Maximum rank =  0   Radius =  0.650 angstrom
                   Q00  =  -0.609563

H          x = -0.241402  y = -0.850873  z = -0.208209 angstrom
           Maximum rank =  0   Radius =  0.325 angstrom
                   Q00  =   0.324939

H          x = -1.370402  y = -2.966873  z =  1.471791 angstrom
           Maximum rank =  0   Radius =  0.325 angstrom
                   Q00  =   0.075667

H          x = -1.253402  y = -2.940873  z = -0.287209 angstrom
           Maximum rank =  0   Radius =  0.325 angstrom
                   Q00  =   0.158997

H          x = -1.566402  y = -1.613873  z =  3.015791 angstrom
           Maximum rank =  0   Radius =  0.325 angstrom
                   Q00  =   0.252004

H          x = -1.065402  y = -0.037873  z =  3.630791 angstrom
           Maximum rank =  0   Radius =  0.325 angstrom
                   Q00  =   0.236733

H          x =  0.520598  y =  0.994127  z =  0.702791 angstrom
           Maximum rank =  0   Radius =  0.325 angstrom
                   Q00  =   0.354657

H          x =  0.241598  y =  1.336127  z =  2.411791 angstrom
           Maximum rank =  0   Radius =  0.325 angstrom
                   Q00  =   0.223719

H          x = -2.607342  y = -2.085596  z =  0.503511 angstrom
           Maximum rank =  0   Radius =  0.325 angstrom
                   Q00  =   0.094911

Total multipoles referred to origin at
           x =   0.000000,  y =    0.000000,  z =    0.000000 angstrom
                   Q00  =  -0.000000

Finished at 18:39:1 on 27 Apr 2020

  DMA results are available in the Python driver through the
	  variable('DMA DISTRIBUTED MULTIPOLES')
  and
	  variable('DMA TOTAL MULTIPOLES')
  commands.

    Psi4 stopped on: Monday, 27 April 2020 06:39PM
    Psi4 wall time for execution: 0:01:02.80

*** Psi4 exiting successfully. Buy a developer a beer!
