                               Psi4 1.3.2 release

  ==> Input File <==

--------------------------------------------------------------------------
import numpy as np
set {scf_type pk
basis cc-pvdz
d_convergence 10
gdma_switch   0
gdma_limit    0
gdma_origin   [ 0.0,  0.0,  0.0 ]
}
molecule test {
    units Angstrom
    0 1
    --
    0 1
    C                1.135113845093438    -0.107099233614631    -0.136440068300705
    C                1.924113845093438    -1.403099233614632    -0.225440068300705
    C                1.331113845093438     0.604900766385369     1.213559931699295
    C                1.359113845093438     0.826900766385368    -1.314440068300705
    H                0.085113845093438    -0.375099233614631    -0.186440068300705
    H                2.969113845093438    -1.116099233614631    -0.153440068300705
    H                1.776113845093438    -1.806099233614631    -1.230440068300705
    H                2.383113845093438     0.855900766385368     1.336559931699295
    H                0.743113845093438     1.521900766385369     1.238559931699295
    H                1.003113845093438    -0.034099233614631     2.034559931699295
    H                1.092113845093438     0.320900766385369    -2.244440068300705
    H                0.745113845093438     1.717900766385368    -1.209440068300705
    H                2.409113845093438     1.123900766385369    -1.355440068300705
    H                1.730183845093438    -2.214159233614631     0.491899931699295
    C               -2.651886154906562     0.048900766385369    -0.528440068300705
    C               -2.940886154906562     0.010900766385369     0.988559931699295
    H               -3.569886154906562     0.229900766385369    -1.086440068300705
    H               -1.939886154906562     0.839900766385369    -0.759440068300705
    H               -2.227886154906562    -0.904099233614632    -0.845440068300705
    H               -2.009886154906562    -0.112099233614631     1.537559931699295
    H               -3.646996154906562    -0.800689233614632     1.218189931699295
    H               -3.407266154906562     0.973550766385369     1.245069931699295

}
e, wfn = energy('scf', return_wfn=True)
gdma(wfn)
dmavals = variable('DMA DISTRIBUTED MULTIPOLES')
charges = np.array(dmavals)
print(charges)
np.save('SSI-125LEU-129LEU-1-dimer.npy', np.array(charges))--------------------------------------------------------------------------

*** tstart() called on ds3
*** at Tue Apr 28 04:36:31 2020

   => Loading Basis Set <=

    Name: CC-PVDZ
    Role: ORBITAL
    Keyword: BASIS
    atoms 1-4, 15-16  entry C          line   138 file /theoryfs2/ds/metcalf/miniconda2/envs/tf2gpu/share/psi4/basis/cc-pvdz.gbs
    atoms 5-14, 17-22 entry H          line    22 file /theoryfs2/ds/metcalf/miniconda2/envs/tf2gpu/share/psi4/basis/cc-pvdz.gbs

         ---------------------------------------------------------
                                   SCF
               by Justin Turney, Rob Parrish, Andy Simmonett
                          and Daniel G. A. Smith
                              RHF Reference
                        1 Threads,    500 MiB Core
         ---------------------------------------------------------

  ==> Geometry <==

    Molecular point group: c1
    Full point group: C1

    Geometry (in Angstrom), charge = 0, multiplicity = 1:

       Center              X                  Y                   Z               Mass
    ------------   -----------------  -----------------  -----------------  -----------------
         C            1.135113845093    -0.107099233615    -0.136440068301    12.000000000000
         C            1.924113845093    -1.403099233615    -0.225440068301    12.000000000000
         C            1.331113845093     0.604900766385     1.213559931699    12.000000000000
         C            1.359113845093     0.826900766385    -1.314440068301    12.000000000000
         H            0.085113845093    -0.375099233615    -0.186440068301     1.007825032230
         H            2.969113845093    -1.116099233615    -0.153440068301     1.007825032230
         H            1.776113845093    -1.806099233615    -1.230440068301     1.007825032230
         H            2.383113845093     0.855900766385     1.336559931699     1.007825032230
         H            0.743113845093     1.521900766385     1.238559931699     1.007825032230
         H            1.003113845093    -0.034099233615     2.034559931699     1.007825032230
         H            1.092113845093     0.320900766385    -2.244440068301     1.007825032230
         H            0.745113845093     1.717900766385    -1.209440068301     1.007825032230
         H            2.409113845093     1.123900766385    -1.355440068301     1.007825032230
         H            1.730183845093    -2.214159233615     0.491899931699     1.007825032230
         C           -2.651886154907     0.048900766385    -0.528440068301    12.000000000000
         C           -2.940886154907     0.010900766385     0.988559931699    12.000000000000
         H           -3.569886154907     0.229900766385    -1.086440068301     1.007825032230
         H           -1.939886154907     0.839900766385    -0.759440068301     1.007825032230
         H           -2.227886154907    -0.904099233615    -0.845440068301     1.007825032230
         H           -2.009886154907    -0.112099233615     1.537559931699     1.007825032230
         H           -3.646996154907    -0.800689233615     1.218189931699     1.007825032230
         H           -3.407266154907     0.973550766385     1.245069931699     1.007825032230

  Running in c1 symmetry.

  Rotational constants: A =      0.12779  B =      0.03897  C =      0.03718 [cm^-1]
  Rotational constants: A =   3830.93044  B =   1168.25820  C =   1114.72421 [MHz]
  Nuclear repulsion =  249.085079653341069

  Charge       = 0
  Multiplicity = 1
  Electrons    = 52
  Nalpha       = 26
  Nbeta        = 26

  ==> Algorithm <==

  SCF Algorithm Type is PK.
  DIIS enabled.
  MOM disabled.
  Fractional occupation disabled.
  Guess Type is SAD.
  Energy threshold   = 1.00e-06
  Density threshold  = 1.00e-10
  Integral threshold = 0.00e+00

  ==> Primary Basis <==

  Basis Set: CC-PVDZ
    Blend: CC-PVDZ
    Number of shells: 84
    Number of basis function: 164
    Number of Cartesian functions: 170
    Spherical Harmonics?: true
    Max angular momentum: 2

  ==> Pre-Iterations <==

   -------------------------------------------------------
    Irrep   Nso     Nmo     Nalpha   Nbeta   Ndocc  Nsocc
   -------------------------------------------------------
     A        164     164       0       0       0       0
   -------------------------------------------------------
    Total     164     164      26      26      26       0
   -------------------------------------------------------

  ==> Integral Setup <==

  Using integral reordering PK algorithm.
  Sizing the integral batches needed.
  Building batch lookup table.
   Calculation information:
      Number of atoms:                  22
      Number of AO shells:              84
      Number of primitives:            212
      Number of atomic orbitals:       170
      Number of basis functions:       164

      Integral cutoff                 1.00e-12
      Number of threads:                 1

	Batch   1 pq = [       0,    9405] index = [             0,44231715] size =     44231715
	Batch   2 pq = [    9405,   13530] index = [      44231715,91537215] size =     47305500
  Task number: 9
  Buffer size: 11059200
  Buffer per thread: 2
  We computed 6055792 shell quartets total.
  Whereas there are 6374235 unique shell quartets.

  ==> DiskJK: Disk-Based J/K Matrices <==

    J tasked:                  Yes
    K tasked:                  Yes
    wK tasked:                  No
    Memory [MiB]:              375
    Schwarz Cutoff:          1E-12

    OpenMP threads:              1

  Minimum eigenvalue in the overlap matrix is 4.5963595020E-03.
  Using Symmetric Orthogonalization.

  SCF Guess: Superposition of Atomic Densities via on-the-fly atomic UHF.

  ==> Iterations <==

                        Total Energy        Delta E     RMS |[F,P]|

   @RHF iter SAD:  -235.41936812643715   -2.35419e+02   0.00000e+00
   @RHF iter   1:  -236.31149723198152   -8.92129e-01   3.51373e-03 DIIS
   @RHF iter   2:  -236.50107207272509   -1.89575e-01   1.51414e-03 DIIS
   @RHF iter   3:  -236.53427433071460   -3.32023e-02   3.13862e-04 DIIS
   @RHF iter   4:  -236.53690362833893   -2.62930e-03   7.22970e-05 DIIS
   @RHF iter   5:  -236.53699561040571   -9.19821e-05   1.57905e-05 DIIS
   @RHF iter   6:  -236.53700150576026   -5.89535e-06   2.64502e-06 DIIS
   @RHF iter   7:  -236.53700169625967   -1.90499e-07   7.46109e-07 DIIS
   @RHF iter   8:  -236.53700171233498   -1.60753e-08   1.84796e-07 DIIS
   @RHF iter   9:  -236.53700171344755   -1.11257e-09   4.80556e-08 DIIS
   @RHF iter  10:  -236.53700171352938   -8.18261e-11   1.09506e-08 DIIS
   @RHF iter  11:  -236.53700171353290   -3.52429e-12   2.20458e-09 DIIS
   @RHF iter  12:  -236.53700171353267    2.27374e-13   5.02300e-10 DIIS
   @RHF iter  13:  -236.53700171353282   -1.42109e-13   1.38703e-10 DIIS
   @RHF iter  14:  -236.53700171353296   -1.42109e-13   2.99545e-11 DIIS
  Energy and wave function converged.

  ==> Post-Iterations <==

    Orbital Energies [Eh]
    ---------------------

    Doubly Occupied:

       1A    -11.221198     2A    -11.220849     3A    -11.218160
       4A    -11.215200     5A    -11.214157     6A    -11.213544
       7A     -1.082387     8A     -1.015854     9A     -0.928806
      10A     -0.927882    11A     -0.838196    12A     -0.763762
      13A     -0.634649    14A     -0.598843    15A     -0.597084
      16A     -0.592864    17A     -0.583734    18A     -0.537254
      19A     -0.531742    20A     -0.510350    21A     -0.496632
      22A     -0.491609    23A     -0.484877    24A     -0.471024
      25A     -0.454170    26A     -0.444873

    Virtual:

      27A      0.161548    28A      0.199498    29A      0.209881
      30A      0.214913    31A      0.234321    32A      0.248061
      33A      0.252856    34A      0.261622    35A      0.263847
      36A      0.272038    37A      0.295744    38A      0.303665
      39A      0.308339    40A      0.314819    41A      0.328980
      42A      0.341895    43A      0.372608    44A      0.388114
      45A      0.413681    46A      0.420499    47A      0.561538
      48A      0.565545    49A      0.595006    50A      0.599761
      51A      0.607117    52A      0.619423    53A      0.636236
      54A      0.667292    55A      0.683451    56A      0.718011
      57A      0.776163    58A      0.785449    59A      0.804837
      60A      0.830994    61A      0.836791    62A      0.859824
      63A      0.878320    64A      0.881935    65A      0.888813
      66A      0.897497    67A      0.898854    68A      0.907110
      69A      0.909979    70A      0.912620    71A      0.919391
      72A      0.925173    73A      0.945195    74A      0.947263
      75A      0.955347    76A      0.967633    77A      0.990342
      78A      1.006203    79A      1.018341    80A      1.062110
      81A      1.120147    82A      1.124783    83A      1.136217
      84A      1.142993    85A      1.224947    86A      1.273820
      87A      1.360251    88A      1.411416    89A      1.421932
      90A      1.471322    91A      1.484231    92A      1.526014
      93A      1.549341    94A      1.591751    95A      1.645271
      96A      1.653732    97A      1.673808    98A      1.682286
      99A      1.690339   100A      1.695329   101A      1.711049
     102A      1.726852   103A      1.766409   104A      1.833722
     105A      1.845663   106A      1.859927   107A      1.866903
     108A      1.880334   109A      1.888949   110A      1.926872
     111A      1.932991   112A      1.942893   113A      1.945242
     114A      1.948702   115A      1.950823   116A      1.966227
     117A      1.970288   118A      1.974587   119A      1.987697
     120A      2.010553   121A      2.012161   122A      2.027231
     123A      2.052835   124A      2.090401   125A      2.091119
     126A      2.120691   127A      2.135926   128A      2.138837
     129A      2.166859   130A      2.258676   131A      2.274049
     132A      2.277438   133A      2.289777   134A      2.307426
     135A      2.325344   136A      2.333677   137A      2.362951
     138A      2.392206   139A      2.449532   140A      2.466544
     141A      2.487289   142A      2.560047   143A      2.575542
     144A      2.596534   145A      2.611932   146A      2.653718
     147A      2.713942   148A      2.739225   149A      2.755319
     150A      2.769822   151A      2.789886   152A      2.793499
     153A      2.800488   154A      2.809654   155A      2.830061
     156A      2.833296   157A      2.835415   158A      2.850788
     159A      2.863712   160A      2.961462   161A      2.973735
     162A      3.015774   163A      3.054581   164A      3.161051

    Final Occupation by Irrep:
              A
    DOCC [    26 ]

  @RHF Final Energy:  -236.53700171353296

   => Energetics <=

    Nuclear Repulsion Energy =            249.0850796533410687
    One-Electron Energy =                -810.6647655096322751
    Two-Electron Energy =                 325.0426841427582758
    Total Energy =                       -236.5370017135329590

Computation Completed

Properties will be evaluated at   0.000000,   0.000000,   0.000000 [a0]

Properties computed using the SCF density matrix

  Nuclear Dipole Moment: [e a0]
     X:    -1.7489      Y:     0.2076      Z:     0.0295

  Electronic Dipole Moment: [e a0]
     X:     1.6840      Y:    -0.2157      Z:    -0.0565

  Dipole Moment: [e a0]
     X:    -0.0650      Y:    -0.0081      Z:    -0.0270     Total:     0.0709

  Dipole Moment: [D]
     X:    -0.1652      Y:    -0.0207      Z:    -0.0687     Total:     0.1801

*** tstop() called on ds3 at Tue Apr 28 04:38:25 2020
Module time:
	user time   =      30.34 seconds =       0.51 minutes
	system time =      10.36 seconds =       0.17 minutes
	total time  =        114 seconds =       1.90 minutes
Total time:
	user time   =      30.34 seconds =       0.51 minutes
	system time =      10.36 seconds =       0.17 minutes
	total time  =        114 seconds =       1.90 minutes
                                     G D M A

                                 by Anthony Stone

                           version 2.2.06, 22 June 2011

               Distributed Multipoles from Gaussian wavefunctions

Starting at 4:38:25 on 28 Apr 2020

Using SCF density matrix from file ./SSI/SSI-125LEU-129LEU-1-dimer.test.27733.fchk

                         Distributed Multipole Analysis

Standard DMA

Positions and radii in angstrom
Multipole moments in atomic units, ea_0^k for rank k

C          x =  1.135114  y = -0.107099  z = -0.136440 angstrom
           Maximum rank =  0   Radius =  0.650 angstrom
                   Q00  =   0.021865

C          x =  1.924114  y = -1.403099  z = -0.225440 angstrom
           Maximum rank =  0   Radius =  0.650 angstrom
                   Q00  =  -0.236535

C          x =  1.331114  y =  0.604901  z =  1.213560 angstrom
           Maximum rank =  0   Radius =  0.650 angstrom
                   Q00  =  -0.257379

C          x =  1.359114  y =  0.826901  z = -1.314440 angstrom
           Maximum rank =  0   Radius =  0.650 angstrom
                   Q00  =  -0.247147

H          x =  0.085114  y = -0.375099  z = -0.186440 angstrom
           Maximum rank =  0   Radius =  0.325 angstrom
                   Q00  =   0.003595

H          x =  2.969114  y = -1.116099  z = -0.153440 angstrom
           Maximum rank =  0   Radius =  0.325 angstrom
                   Q00  =   0.069008

H          x =  1.776114  y = -1.806099  z = -1.230440 angstrom
           Maximum rank =  0   Radius =  0.325 angstrom
                   Q00  =   0.075661

H          x =  2.383114  y =  0.855901  z =  1.336560 angstrom
           Maximum rank =  0   Radius =  0.325 angstrom
                   Q00  =   0.074664

H          x =  0.743114  y =  1.521901  z =  1.238560 angstrom
           Maximum rank =  0   Radius =  0.325 angstrom
                   Q00  =   0.080055

H          x =  1.003114  y = -0.034099  z =  2.034560 angstrom
           Maximum rank =  0   Radius =  0.325 angstrom
                   Q00  =   0.083372

H          x =  1.092114  y =  0.320901  z = -2.244440 angstrom
           Maximum rank =  0   Radius =  0.325 angstrom
                   Q00  =   0.082759

H          x =  0.745114  y =  1.717901  z = -1.209440 angstrom
           Maximum rank =  0   Radius =  0.325 angstrom
                   Q00  =   0.085229

H          x =  2.409114  y =  1.123901  z = -1.355440 angstrom
           Maximum rank =  0   Radius =  0.325 angstrom
                   Q00  =   0.073265

H          x =  1.730184  y = -2.214159  z =  0.491900 angstrom
           Maximum rank =  0   Radius =  0.325 angstrom
                   Q00  =   0.090290

C          x = -2.651886  y =  0.048901  z = -0.528440 angstrom
           Maximum rank =  0   Radius =  0.650 angstrom
                   Q00  =  -0.256122

C          x = -2.940886  y =  0.010901  z =  0.988560 angstrom
           Maximum rank =  0   Radius =  0.650 angstrom
                   Q00  =  -0.225968

H          x = -3.569886  y =  0.229901  z = -1.086440 angstrom
           Maximum rank =  0   Radius =  0.325 angstrom
                   Q00  =   0.081516

H          x = -1.939886  y =  0.839901  z = -0.759440 angstrom
           Maximum rank =  0   Radius =  0.325 angstrom
                   Q00  =   0.080390

H          x = -2.227886  y = -0.904099  z = -0.845440 angstrom
           Maximum rank =  0   Radius =  0.325 angstrom
                   Q00  =   0.077948

H          x = -2.009886  y = -0.112099  z =  1.537560 angstrom
           Maximum rank =  0   Radius =  0.325 angstrom
                   Q00  =   0.085401

H          x = -3.646996  y = -0.800689  z =  1.218190 angstrom
           Maximum rank =  0   Radius =  0.325 angstrom
                   Q00  =   0.081643

H          x = -3.407266  y =  0.973551  z =  1.245070 angstrom
           Maximum rank =  0   Radius =  0.325 angstrom
                   Q00  =   0.076490

Total multipoles referred to origin at
           x =   0.000000,  y =    0.000000,  z =    0.000000 angstrom
                   Q00  =  -0.000000

Finished at 4:38:25 on 28 Apr 2020

  DMA results are available in the Python driver through the
	  variable('DMA DISTRIBUTED MULTIPOLES')
  and
	  variable('DMA TOTAL MULTIPOLES')
  commands.

    Psi4 stopped on: Tuesday, 28 April 2020 04:38AM
    Psi4 wall time for execution: 0:01:54.36

*** Psi4 exiting successfully. Buy a developer a beer!
