                               Psi4 1.3.2 release

  ==> Input File <==

--------------------------------------------------------------------------
import numpy as np
set {scf_type pk
basis cc-pvdz
d_convergence 10
gdma_switch   0
gdma_limit    0
gdma_origin   [ 0.0,  0.0,  0.0 ]
}
molecule test {
    units Angstrom
    0 1
    --
    0 1
    C                0.556490138924786     2.628823708777676    -2.048018380687406
    C                0.366490138924786     3.784823708777676    -1.099018380687406
    C                1.926490138924786     2.101823708777676    -1.652018380687406
    H                0.538490138924786     2.969823708777676    -3.084018380687406
    H               -0.180509861075214     1.877823708777676    -1.853018380687406
    H               -0.424509861075213     4.455823708777676    -1.433018380687406
    H                0.163490138924786     3.417823708777676    -0.090018380687406
    H                1.814490138924786     1.449823708777676    -0.787018380687406
    H                1.353400138924786     4.269215708777677    -1.135998380687406
    H                2.467040138924787     3.012027708777676    -1.353138380687406
    H                2.393890138924787     1.524958708777676    -2.463658380687406
    C               -0.720509861075214     0.615823708777676     3.017981619312594
    C               -1.519509861075214     0.831823708777676     0.597981619312594
    C               -0.826509861075214     0.201823708777676     1.586981619312594
    C               -0.583509861075214    -0.949176291222324    -0.392018380687406
    C               -0.212509861075214    -0.945176291222324     0.979981619312594
    C               -0.155509861075214    -1.930176291222324    -1.279018380687406
    C                0.615490138924786    -1.971176291222324     1.454981619312594
    C                0.662490138924786    -2.933176291222324    -0.783018380687406
    C                1.041490138924786    -2.960176291222324     0.567981619312594
    N               -1.379509861075214     0.146823708777676    -0.587018380687406
    H               -2.082509861075213     1.748823708777676     0.727981619312594
    H               -1.693509861075214     0.487823708777676    -1.500018380687406
    H               -0.698509861075214    -0.272176291222324     3.640981619312594
    H               -1.617509861075213     1.183823708777676     3.258981619312594
    H               -0.428509861075214    -1.887176291222324    -2.323018380687406
    H                0.944490138924787    -1.970176291222324     2.479981619312594
    H                1.078490138924786    -3.667176291222324    -1.449018380687406
    H                1.685490138924786    -3.742176291222324     0.930981619312594
    H                0.150340138924786     1.248451708777676     3.244691619312594

}
e, wfn = energy('scf', return_wfn=True)
gdma(wfn)
dmavals = variable('DMA DISTRIBUTED MULTIPOLES')
charges = np.array(dmavals)
print(charges)
np.save('SSI-099PRO-104TRP-1-dimer.npy', np.array(charges))--------------------------------------------------------------------------

*** tstart() called on ds3
*** at Tue Apr 28 12:32:31 2020

   => Loading Basis Set <=

    Name: CC-PVDZ
    Role: ORBITAL
    Keyword: BASIS
    atoms 1-3, 12-20  entry C          line   138 file /theoryfs2/ds/metcalf/miniconda2/envs/tf2gpu/share/psi4/basis/cc-pvdz.gbs
    atoms 4-11, 22-30 entry H          line    22 file /theoryfs2/ds/metcalf/miniconda2/envs/tf2gpu/share/psi4/basis/cc-pvdz.gbs
    atoms 21          entry N          line   168 file /theoryfs2/ds/metcalf/miniconda2/envs/tf2gpu/share/psi4/basis/cc-pvdz.gbs

         ---------------------------------------------------------
                                   SCF
               by Justin Turney, Rob Parrish, Andy Simmonett
                          and Daniel G. A. Smith
                              RHF Reference
                        1 Threads,    500 MiB Core
         ---------------------------------------------------------

  ==> Geometry <==

    Molecular point group: c1
    Full point group: C1

    Geometry (in Angstrom), charge = 0, multiplicity = 1:

       Center              X                  Y                   Z               Mass
    ------------   -----------------  -----------------  -----------------  -----------------
         C            0.556490138925     2.628823708778    -2.048018380687    12.000000000000
         C            0.366490138925     3.784823708778    -1.099018380687    12.000000000000
         C            1.926490138925     2.101823708778    -1.652018380687    12.000000000000
         H            0.538490138925     2.969823708778    -3.084018380687     1.007825032230
         H           -0.180509861075     1.877823708778    -1.853018380687     1.007825032230
         H           -0.424509861075     4.455823708778    -1.433018380687     1.007825032230
         H            0.163490138925     3.417823708778    -0.090018380687     1.007825032230
         H            1.814490138925     1.449823708778    -0.787018380687     1.007825032230
         H            1.353400138925     4.269215708778    -1.135998380687     1.007825032230
         H            2.467040138925     3.012027708778    -1.353138380687     1.007825032230
         H            2.393890138925     1.524958708778    -2.463658380687     1.007825032230
         C           -0.720509861075     0.615823708778     3.017981619313    12.000000000000
         C           -1.519509861075     0.831823708778     0.597981619313    12.000000000000
         C           -0.826509861075     0.201823708778     1.586981619313    12.000000000000
         C           -0.583509861075    -0.949176291222    -0.392018380687    12.000000000000
         C           -0.212509861075    -0.945176291222     0.979981619313    12.000000000000
         C           -0.155509861075    -1.930176291222    -1.279018380687    12.000000000000
         C            0.615490138925    -1.971176291222     1.454981619313    12.000000000000
         C            0.662490138925    -2.933176291222    -0.783018380687    12.000000000000
         C            1.041490138925    -2.960176291222     0.567981619313    12.000000000000
         N           -1.379509861075     0.146823708778    -0.587018380687    14.003074004430
         H           -2.082509861075     1.748823708778     0.727981619313     1.007825032230
         H           -1.693509861075     0.487823708778    -1.500018380687     1.007825032230
         H           -0.698509861075    -0.272176291222     3.640981619313     1.007825032230
         H           -1.617509861075     1.183823708778     3.258981619313     1.007825032230
         H           -0.428509861075    -1.887176291222    -2.323018380687     1.007825032230
         H            0.944490138925    -1.970176291222     2.479981619313     1.007825032230
         H            1.078490138925    -3.667176291222    -1.449018380687     1.007825032230
         H            1.685490138925    -3.742176291222     0.930981619313     1.007825032230
         H            0.150340138925     1.248451708778     3.244691619313     1.007825032230

  Running in c1 symmetry.

  Rotational constants: A =      0.03274  B =      0.01771  C =      0.01406 [cm^-1]
  Rotational constants: A =    981.41498  B =    530.91401  C =    421.46050 [MHz]
  Nuclear repulsion =  765.736716386259559

  Charge       = 0
  Multiplicity = 1
  Electrons    = 96
  Nalpha       = 48
  Nbeta        = 48

  ==> Algorithm <==

  SCF Algorithm Type is PK.
  DIIS enabled.
  MOM disabled.
  Fractional occupation disabled.
  Guess Type is SAD.
  Energy threshold   = 1.00e-06
  Density threshold  = 1.00e-10
  Integral threshold = 0.00e+00

  ==> Primary Basis <==

  Basis Set: CC-PVDZ
    Blend: CC-PVDZ
    Number of shells: 129
    Number of basis function: 267
    Number of Cartesian functions: 280
    Spherical Harmonics?: true
    Max angular momentum: 2

  ==> Pre-Iterations <==

   -------------------------------------------------------
    Irrep   Nso     Nmo     Nalpha   Nbeta   Ndocc  Nsocc
   -------------------------------------------------------
     A        267     267       0       0       0       0
   -------------------------------------------------------
    Total     267     267      48      48      48       0
   -------------------------------------------------------

  ==> Integral Setup <==

  Using integral reordering PK algorithm.
  Sizing the integral batches needed.
  Building batch lookup table.
   Calculation information:
      Number of atoms:                  30
      Number of AO shells:             129
      Number of primitives:            371
      Number of atomic orbitals:       280
      Number of basis functions:       267

      Integral cutoff                 1.00e-12
      Number of threads:                 1

	Batch   1 pq = [       0,    9405] index = [             0,44231715] size =     44231715
	Batch   2 pq = [    9405,   13301] index = [      44231715,88464951] size =     44233236
	Batch   3 pq = [   13301,   16290] index = [      88464951,132690195] size =     44225244
	Batch   4 pq = [   16290,   18810] index = [     132690195,176917455] size =     44227260
	Batch   5 pq = [   18810,   21030] index = [     176917455,221140965] size =     44223510
	Batch   6 pq = [   21030,   23037] index = [     221140965,265363203] size =     44222238
	Batch   7 pq = [   23037,   24883] index = [     265363203,309594286] size =     44231083
	Batch   8 pq = [   24883,   26601] index = [     309594286,353819901] size =     44225615
	Batch   9 pq = [   26601,   28214] index = [     353819901,398029005] size =     44209104
	Batch  10 pq = [   28214,   29740] index = [     398029005,442248670] size =     44219665
	Batch  11 pq = [   29740,   31191] index = [     442248670,486454836] size =     44206166
	Batch  12 pq = [   31191,   32578] index = [     486454836,530679331] size =     44224495
	Batch  13 pq = [   32578,   33908] index = [     530679331,574893186] size =     44213855
	Batch  14 pq = [   33908,   35188] index = [     574893186,619115266] size =     44222080
	Batch  15 pq = [   35188,   35778] index = [     619115266,640050531] size =     20935265
  Task number: 58
  Buffer size: 11059200
  Buffer per thread: 2
  We computed 39144403 shell quartets total.
  Whereas there are 35158305 unique shell quartets.
    11.34 percent of shell quartets recomputed by reordering.

  ==> DiskJK: Disk-Based J/K Matrices <==

    J tasked:                  Yes
    K tasked:                  Yes
    wK tasked:                  No
    Memory [MiB]:              375
    Schwarz Cutoff:          1E-12

    OpenMP threads:              1

  Minimum eigenvalue in the overlap matrix is 2.4177998206E-04.
  Using Symmetric Orthogonalization.

  SCF Guess: Superposition of Atomic Densities via on-the-fly atomic UHF.

  ==> Iterations <==

                        Total Energy        Delta E     RMS |[F,P]|

   @RHF iter SAD:  -518.24873905269328   -5.18249e+02   0.00000e+00
   @RHF iter   1:  -518.46798598148632   -2.19247e-01   2.53305e-03 DIIS
   @RHF iter   2:  -518.72935371682695   -2.61368e-01   1.14724e-03 DIIS
   @RHF iter   3:  -518.77865013354472   -4.92964e-02   2.89000e-04 DIIS
   @RHF iter   4:  -518.78285165812997   -4.20152e-03   1.31961e-04 DIIS
   @RHF iter   5:  -518.78353982311012   -6.88165e-04   1.98740e-05 DIIS
   @RHF iter   6:  -518.78357204946667   -3.22264e-05   8.64405e-06 DIIS
   @RHF iter   7:  -518.78357860286928   -6.55340e-06   3.53682e-06 DIIS
   @RHF iter   8:  -518.78358028967466   -1.68681e-06   1.50428e-06 DIIS
   @RHF iter   9:  -518.78358067624799   -3.86573e-07   6.51527e-07 DIIS
   @RHF iter  10:  -518.78358075326480   -7.70168e-08   2.86274e-07 DIIS
   @RHF iter  11:  -518.78358077160044   -1.83356e-08   1.11928e-07 DIIS
   @RHF iter  12:  -518.78358077410326   -2.50282e-09   3.93718e-08 DIIS
   @RHF iter  13:  -518.78358077430482   -2.01567e-10   1.16605e-08 DIIS
   @RHF iter  14:  -518.78358077431699   -1.21645e-11   4.58538e-09 DIIS
   @RHF iter  15:  -518.78358077432608   -9.09495e-12   2.14568e-09 DIIS
   @RHF iter  16:  -518.78358077432824   -2.16005e-12   1.09541e-09 DIIS
   @RHF iter  17:  -518.78358077432677    1.47793e-12   4.60025e-10 DIIS
   @RHF iter  18:  -518.78358077432677    0.00000e+00   1.77662e-10 DIIS
   @RHF iter  19:  -518.78358077432097    5.79803e-12   7.22717e-11 DIIS
  Energy and wave function converged.

  ==> Post-Iterations <==

    Orbital Energies [Eh]
    ---------------------

    Doubly Occupied:

       1A    -15.604042     2A    -11.265900     3A    -11.265147
       4A    -11.231978     5A    -11.231752     6A    -11.230056
       7A    -11.227342     8A    -11.222194     9A    -11.221989
      10A    -11.219862    11A    -11.212165    12A    -11.210912
      13A    -11.208020    14A     -1.297362    15A     -1.128645
      16A     -1.076089    17A     -1.069112    18A     -0.998295
      19A     -0.989005    20A     -0.933796    21A     -0.909357
      22A     -0.841309    23A     -0.805923    24A     -0.798025
      25A     -0.754575    26A     -0.720502    27A     -0.665774
      28A     -0.645105    29A     -0.642340    30A     -0.611592
      31A     -0.605042    32A     -0.594702    33A     -0.588529
      34A     -0.569782    35A     -0.553684    36A     -0.541637
      37A     -0.536543    38A     -0.529179    39A     -0.506777
      40A     -0.496997    41A     -0.480120    42A     -0.474372
      43A     -0.471695    44A     -0.459653    45A     -0.457659
      46A     -0.374280    47A     -0.296133    48A     -0.276836

    Virtual:

      49A      0.122493    50A      0.166379    51A      0.172180
      52A      0.183389    53A      0.197754    54A      0.203883
      55A      0.216207    56A      0.220863    57A      0.229638
      58A      0.237933    59A      0.248823    60A      0.258976
      61A      0.265043    62A      0.267353    63A      0.280904
      64A      0.291221    65A      0.301361    66A      0.310536
      67A      0.333928    68A      0.337384    69A      0.371935
      70A      0.376549    71A      0.401665    72A      0.403789
      73A      0.417353    74A      0.428475    75A      0.444392
      76A      0.470687    77A      0.475197    78A      0.499840
      79A      0.514992    80A      0.575282    81A      0.579635
      82A      0.601402    83A      0.606591    84A      0.625182
      85A      0.631499    86A      0.642916    87A      0.647499
      88A      0.668075    89A      0.675164    90A      0.697885
      91A      0.709240    92A      0.721434    93A      0.727707
      94A      0.736299    95A      0.742573    96A      0.745648
      97A      0.757335    98A      0.766428    99A      0.771757
     100A      0.781765   101A      0.791355   102A      0.799684
     103A      0.820325   104A      0.831182   105A      0.846710
     106A      0.851407   107A      0.859218   108A      0.868500
     109A      0.874463   110A      0.878922   111A      0.886608
     112A      0.890864   113A      0.893263   114A      0.900747
     115A      0.911861   116A      0.915318   117A      0.915671
     118A      0.928707   119A      0.939483   120A      0.948548
     121A      0.955495   122A      0.962349   123A      0.969714
     124A      0.985348   125A      0.994759   126A      1.005126
     127A      1.013745   128A      1.020597   129A      1.063459
     130A      1.089469   131A      1.095229   132A      1.122557
     133A      1.123207   134A      1.132830   135A      1.141639
     136A      1.154068   137A      1.160593   138A      1.179512
     139A      1.207504   140A      1.222126   141A      1.231996
     142A      1.239550   143A      1.254220   144A      1.260714
     145A      1.288304   146A      1.295653   147A      1.317769
     148A      1.327189   149A      1.343265   150A      1.367978
     151A      1.383407   152A      1.396934   153A      1.418483
     154A      1.440679   155A      1.496827   156A      1.500032
     157A      1.529319   158A      1.552442   159A      1.574153
     160A      1.595483   161A      1.607458   162A      1.626736
     163A      1.629337   164A      1.637380   165A      1.653306
     166A      1.662167   167A      1.689975   168A      1.700852
     169A      1.740191   170A      1.747358   171A      1.752704
     172A      1.758351   173A      1.769700   174A      1.786116
     175A      1.799863   176A      1.804696   177A      1.827893
     178A      1.834310   179A      1.864277   180A      1.875762
     181A      1.879975   182A      1.892923   183A      1.897063
     184A      1.904136   185A      1.912445   186A      1.925946
     187A      1.933501   188A      1.936577   189A      1.938616
     190A      1.944084   191A      1.951801   192A      1.964265
     193A      1.976273   194A      1.992907   195A      2.003941
     196A      2.005676   197A      2.013145   198A      2.033569
     199A      2.053863   200A      2.056571   201A      2.062832
     202A      2.074623   203A      2.085353   204A      2.099357
     205A      2.106259   206A      2.109830   207A      2.124254
     208A      2.133009   209A      2.144243   210A      2.154955
     211A      2.158458   212A      2.166823   213A      2.177382
     214A      2.196167   215A      2.229028   216A      2.242870
     217A      2.267161   218A      2.286393   219A      2.292725
     220A      2.307286   221A      2.318021   222A      2.337308
     223A      2.345715   224A      2.350890   225A      2.398049
     226A      2.414373   227A      2.440875   228A      2.449853
     229A      2.460578   230A      2.492454   231A      2.511366
     232A      2.549739   233A      2.558247   234A      2.582974
     235A      2.601126   236A      2.638159   237A      2.655455
     238A      2.663765   239A      2.678899   240A      2.693936
     241A      2.717528   242A      2.753122   243A      2.770331
     244A      2.780643   245A      2.786406   246A      2.790827
     247A      2.803921   248A      2.815386   249A      2.846488
     250A      2.866003   251A      2.871684   252A      2.880385
     253A      2.894317   254A      2.917208   255A      2.944679
     256A      2.976658   257A      2.978031   258A      3.024363
     259A      3.062853   260A      3.069809   261A      3.091787
     262A      3.123120   263A      3.206704   264A      3.305154
     265A      3.375502   266A      3.730716   267A      3.949208

    Final Occupation by Irrep:
              A
    DOCC [    48 ]

  @RHF Final Energy:  -518.78358077432097

   => Energetics <=

    Nuclear Repulsion Energy =            765.7367163862595589
    One-Electron Energy =               -2220.9370263033806623
    Two-Electron Energy =                 936.4167291428001363
    Total Energy =                       -518.7835807743209671

Computation Completed

Properties will be evaluated at   0.000000,   0.000000,   0.000000 [a0]

Properties computed using the SCF density matrix

  Nuclear Dipole Moment: [e a0]
     X:     5.1264      Y:    15.0997      Z:    -2.9873

  Electronic Dipole Moment: [e a0]
     X:    -5.4991      Y:   -14.6447      Z:     2.6627

  Dipole Moment: [e a0]
     X:    -0.3727      Y:     0.4551      Z:    -0.3246     Total:     0.6718

  Dipole Moment: [D]
     X:    -0.9474      Y:     1.1567      Z:    -0.8249     Total:     1.7076

*** tstop() called on ds3 at Tue Apr 28 12:41:48 2020
Module time:
	user time   =     307.82 seconds =       5.13 minutes
	system time =     107.84 seconds =       1.80 minutes
	total time  =        557 seconds =       9.28 minutes
Total time:
	user time   =     307.82 seconds =       5.13 minutes
	system time =     107.84 seconds =       1.80 minutes
	total time  =        557 seconds =       9.28 minutes
                                     G D M A

                                 by Anthony Stone

                           version 2.2.06, 22 June 2011

               Distributed Multipoles from Gaussian wavefunctions

Starting at 12:41:48 on 28 Apr 2020

Using SCF density matrix from file ./SSI/SSI-099PRO-104TRP-1-dimer.test.15053.fchk

                         Distributed Multipole Analysis

Standard DMA

Positions and radii in angstrom
Multipole moments in atomic units, ea_0^k for rank k

C          x =  0.556490  y =  2.628824  z = -2.048018 angstrom
           Maximum rank =  0   Radius =  0.650 angstrom
                   Q00  =  -0.091176

C          x =  0.366490  y =  3.784824  z = -1.099018 angstrom
           Maximum rank =  0   Radius =  0.650 angstrom
                   Q00  =  -0.206886

C          x =  1.926490  y =  2.101824  z = -1.652018 angstrom
           Maximum rank =  0   Radius =  0.650 angstrom
                   Q00  =  -0.205784

H          x =  0.538490  y =  2.969824  z = -3.084018 angstrom
           Maximum rank =  0   Radius =  0.325 angstrom
                   Q00  =   0.049019

H          x = -0.180510  y =  1.877824  z = -1.853018 angstrom
           Maximum rank =  0   Radius =  0.325 angstrom
                   Q00  =   0.029299

H          x = -0.424510  y =  4.455824  z = -1.433018 angstrom
           Maximum rank =  0   Radius =  0.325 angstrom
                   Q00  =   0.073748

H          x =  0.163490  y =  3.417824  z = -0.090018 angstrom
           Maximum rank =  0   Radius =  0.325 angstrom
                   Q00  =   0.080493

H          x =  1.814490  y =  1.449824  z = -0.787018 angstrom
           Maximum rank =  0   Radius =  0.325 angstrom
                   Q00  =   0.099045

H          x =  1.353400  y =  4.269216  z = -1.135998 angstrom
           Maximum rank =  0   Radius =  0.325 angstrom
                   Q00  =   0.049691

H          x =  2.467040  y =  3.012028  z = -1.353138 angstrom
           Maximum rank =  0   Radius =  0.325 angstrom
                   Q00  =   0.042825

H          x =  2.393890  y =  1.524959  z = -2.463658 angstrom
           Maximum rank =  0   Radius =  0.325 angstrom
                   Q00  =   0.067006

C          x = -0.720510  y =  0.615824  z =  3.017982 angstrom
           Maximum rank =  0   Radius =  0.650 angstrom
                   Q00  =  -0.211553

C          x = -1.519510  y =  0.831824  z =  0.597982 angstrom
           Maximum rank =  0   Radius =  0.650 angstrom
                   Q00  =   0.061678

C          x = -0.826510  y =  0.201824  z =  1.586982 angstrom
           Maximum rank =  0   Radius =  0.650 angstrom
                   Q00  =  -0.121670

C          x = -0.583510  y = -0.949176  z = -0.392018 angstrom
           Maximum rank =  0   Radius =  0.650 angstrom
                   Q00  =   0.287255

C          x = -0.212510  y = -0.945176  z =  0.979982 angstrom
           Maximum rank =  0   Radius =  0.650 angstrom
                   Q00  =  -0.050964

C          x = -0.155510  y = -1.930176  z = -1.279018 angstrom
           Maximum rank =  0   Radius =  0.650 angstrom
                   Q00  =  -0.117613

C          x =  0.615490  y = -1.971176  z =  1.454982 angstrom
           Maximum rank =  0   Radius =  0.650 angstrom
                   Q00  =  -0.099414

C          x =  0.662490  y = -2.933176  z = -0.783018 angstrom
           Maximum rank =  0   Radius =  0.650 angstrom
                   Q00  =  -0.076465

C          x =  1.041490  y = -2.960176  z =  0.567982 angstrom
           Maximum rank =  0   Radius =  0.650 angstrom
                   Q00  =  -0.079147

N          x = -1.379510  y =  0.146824  z = -0.587018 angstrom
           Maximum rank =  0   Radius =  0.650 angstrom
                   Q00  =  -0.482315

H          x = -2.082510  y =  1.748824  z =  0.727982 angstrom
           Maximum rank =  0   Radius =  0.325 angstrom
                   Q00  =   0.101192

H          x = -1.693510  y =  0.487824  z = -1.500018 angstrom
           Maximum rank =  0   Radius =  0.325 angstrom
                   Q00  =   0.221289

H          x = -0.698510  y = -0.272176  z =  3.640982 angstrom
           Maximum rank =  0   Radius =  0.325 angstrom
                   Q00  =   0.105701

H          x = -1.617510  y =  1.183824  z =  3.258982 angstrom
           Maximum rank =  0   Radius =  0.325 angstrom
                   Q00  =   0.103271

H          x = -0.428510  y = -1.887176  z = -2.323018 angstrom
           Maximum rank =  0   Radius =  0.325 angstrom
                   Q00  =   0.073653

H          x =  0.944490  y = -1.970176  z =  2.479982 angstrom
           Maximum rank =  0   Radius =  0.325 angstrom
                   Q00  =   0.071751

H          x =  1.078490  y = -3.667176  z = -1.449018 angstrom
           Maximum rank =  0   Radius =  0.325 angstrom
                   Q00  =   0.066017

H          x =  1.685490  y = -3.742176  z =  0.930982 angstrom
           Maximum rank =  0   Radius =  0.325 angstrom
                   Q00  =   0.061491

H          x =  0.150340  y =  1.248452  z =  3.244692 angstrom
           Maximum rank =  0   Radius =  0.325 angstrom
                   Q00  =   0.098564

Total multipoles referred to origin at
           x =   0.000000,  y =    0.000000,  z =    0.000000 angstrom
                   Q00  =  -0.000000

Finished at 12:41:48 on 28 Apr 2020

  DMA results are available in the Python driver through the
	  variable('DMA DISTRIBUTED MULTIPOLES')
  and
	  variable('DMA TOTAL MULTIPOLES')
  commands.

    Psi4 stopped on: Tuesday, 28 April 2020 12:41PM
    Psi4 wall time for execution: 0:09:17.38

*** Psi4 exiting successfully. Buy a developer a beer!
