                               Psi4 1.3.2 release

  ==> Input File <==

--------------------------------------------------------------------------
import numpy as np
set {scf_type pk
basis cc-pvdz
d_convergence 10
gdma_switch   0
gdma_limit    0
gdma_origin   [ 0.0,  0.0,  0.0 ]
}
molecule test {
    units Angstrom
    0 1
    --
    0 1
    C               -1.165642920576362     0.111438731974678    -2.732101515602804
    C               -0.334642920576362    -0.073561268025322    -0.363101515602804
    C               -0.430642920576362     0.673438731974678    -1.537101515602804
    C                0.383357079423638     0.415438731974678     0.719898484397196
    C                0.228357079423638     1.903438731974678    -1.619101515602804
    C                1.028357079423638     1.643438731974678     0.631898484397196
    C                0.949357079423638     2.393438731974677    -0.536101515602804
    H               -0.827642920576362    -1.033561268025322    -0.291101515602804
    H                0.454357079423638    -0.162561268025322     1.630898484397196
    H               -1.148642920576362    -0.977561268025322    -2.671101515602803
    H               -0.617642920576362     0.384438731974678    -3.630101515602803
    H                0.186357079423638     2.478438731974678    -2.535101515602804
    H                1.613357079423638     2.003438731974678     1.466898484397196
    H                1.467357079423638     3.340438731974678    -0.610101515602804
    H               -2.208812920576361     0.444078731974678    -2.837711515602804
    C               -0.281642920576362    -3.254561268025322     1.751898484397196
    C               -0.173642920576362    -2.825561268025322     3.228898484397196
    H               -1.317642920576362    -3.267561268025323     1.419898484397196
    H                0.279357079423638    -2.561561268025322     1.125898484397196
    H                0.141357079423638    -4.251561268025322     1.623898484397196
    H               -0.600642920576362    -1.829561268025322     3.336898484397196
    H               -0.726692920576362    -3.531721268025322     3.865658484397196
    H                0.885947079423638    -2.786611268025322     3.521748484397196

}
e, wfn = energy('scf', return_wfn=True)
gdma(wfn)
dmavals = variable('DMA DISTRIBUTED MULTIPOLES')
charges = np.array(dmavals)
print(charges)
np.save('SSI-121PHE-126VAL-1-dimer.npy', np.array(charges))--------------------------------------------------------------------------

*** tstart() called on ds3
*** at Tue Apr 28 10:05:18 2020

   => Loading Basis Set <=

    Name: CC-PVDZ
    Role: ORBITAL
    Keyword: BASIS
    atoms 1-7, 16-17  entry C          line   138 file /theoryfs2/ds/metcalf/miniconda2/envs/tf2gpu/share/psi4/basis/cc-pvdz.gbs
    atoms 8-15, 18-23 entry H          line    22 file /theoryfs2/ds/metcalf/miniconda2/envs/tf2gpu/share/psi4/basis/cc-pvdz.gbs

         ---------------------------------------------------------
                                   SCF
               by Justin Turney, Rob Parrish, Andy Simmonett
                          and Daniel G. A. Smith
                              RHF Reference
                        1 Threads,    500 MiB Core
         ---------------------------------------------------------

  ==> Geometry <==

    Molecular point group: c1
    Full point group: C1

    Geometry (in Angstrom), charge = 0, multiplicity = 1:

       Center              X                  Y                   Z               Mass
    ------------   -----------------  -----------------  -----------------  -----------------
         C           -1.165642920576     0.111438731975    -2.732101515603    12.000000000000
         C           -0.334642920576    -0.073561268025    -0.363101515603    12.000000000000
         C           -0.430642920576     0.673438731975    -1.537101515603    12.000000000000
         C            0.383357079424     0.415438731975     0.719898484397    12.000000000000
         C            0.228357079424     1.903438731975    -1.619101515603    12.000000000000
         C            1.028357079424     1.643438731975     0.631898484397    12.000000000000
         C            0.949357079424     2.393438731975    -0.536101515603    12.000000000000
         H           -0.827642920576    -1.033561268025    -0.291101515603     1.007825032230
         H            0.454357079424    -0.162561268025     1.630898484397     1.007825032230
         H           -1.148642920576    -0.977561268025    -2.671101515603     1.007825032230
         H           -0.617642920576     0.384438731975    -3.630101515603     1.007825032230
         H            0.186357079424     2.478438731975    -2.535101515603     1.007825032230
         H            1.613357079424     2.003438731975     1.466898484397     1.007825032230
         H            1.467357079424     3.340438731975    -0.610101515603     1.007825032230
         H           -2.208812920576     0.444078731975    -2.837711515603     1.007825032230
         C           -0.281642920576    -3.254561268025     1.751898484397    12.000000000000
         C           -0.173642920576    -2.825561268025     3.228898484397    12.000000000000
         H           -1.317642920576    -3.267561268025     1.419898484397     1.007825032230
         H            0.279357079424    -2.561561268025     1.125898484397     1.007825032230
         H            0.141357079424    -4.251561268025     1.623898484397     1.007825032230
         H           -0.600642920576    -1.829561268025     3.336898484397     1.007825032230
         H           -0.726692920576    -3.531721268025     3.865658484397     1.007825032230
         H            0.885947079424    -2.786611268025     3.521748484397     1.007825032230

  Running in c1 symmetry.

  Rotational constants: A =      0.07784  B =      0.02322  C =      0.01821 [cm^-1]
  Rotational constants: A =   2333.63624  B =    696.22216  C =    546.04565 [MHz]
  Nuclear repulsion =  402.872309643941151

  Charge       = 0
  Multiplicity = 1
  Electrons    = 68
  Nalpha       = 34
  Nbeta        = 34

  ==> Algorithm <==

  SCF Algorithm Type is PK.
  DIIS enabled.
  MOM disabled.
  Fractional occupation disabled.
  Guess Type is SAD.
  Energy threshold   = 1.00e-06
  Density threshold  = 1.00e-10
  Integral threshold = 0.00e+00

  ==> Primary Basis <==

  Basis Set: CC-PVDZ
    Blend: CC-PVDZ
    Number of shells: 96
    Number of basis function: 196
    Number of Cartesian functions: 205
    Spherical Harmonics?: true
    Max angular momentum: 2

  ==> Pre-Iterations <==

   -------------------------------------------------------
    Irrep   Nso     Nmo     Nalpha   Nbeta   Ndocc  Nsocc
   -------------------------------------------------------
     A        196     196       0       0       0       0
   -------------------------------------------------------
    Total     196     196      34      34      34       0
   -------------------------------------------------------

  ==> Integral Setup <==

  Using integral reordering PK algorithm.
  Sizing the integral batches needed.
  Building batch lookup table.
   Calculation information:
      Number of atoms:                  23
      Number of AO shells:              96
      Number of primitives:            268
      Number of atomic orbitals:       205
      Number of basis functions:       196

      Integral cutoff                 1.00e-12
      Number of threads:                 1

	Batch   1 pq = [       0,    9405] index = [             0,44231715] size =     44231715
	Batch   2 pq = [    9405,   13301] index = [      44231715,88464951] size =     44233236
	Batch   3 pq = [   13301,   16290] index = [      88464951,132690195] size =     44225244
	Batch   4 pq = [   16290,   18810] index = [     132690195,176917455] size =     44227260
	Batch   5 pq = [   18810,   19306] index = [     176917455,186370471] size =      9453016
  Task number: 17
  Buffer size: 11059200
  Buffer per thread: 2
  We computed 9015148 shell quartets total.
  Whereas there are 10841496 unique shell quartets.

  ==> DiskJK: Disk-Based J/K Matrices <==

    J tasked:                  Yes
    K tasked:                  Yes
    wK tasked:                  No
    Memory [MiB]:              375
    Schwarz Cutoff:          1E-12

    OpenMP threads:              1

  Minimum eigenvalue in the overlap matrix is 3.0030244379E-04.
  Using Symmetric Orthogonalization.

  SCF Guess: Superposition of Atomic Densities via on-the-fly atomic UHF.

  ==> Iterations <==

                        Total Energy        Delta E     RMS |[F,P]|

   @RHF iter SAD:  -347.86217906982932   -3.47862e+02   0.00000e+00
   @RHF iter   1:  -348.76910431500960   -9.06925e-01   2.87834e-03 DIIS
   @RHF iter   2:  -348.96060398863733   -1.91500e-01   1.18439e-03 DIIS
   @RHF iter   3:  -348.99007999292144   -2.94760e-02   2.57316e-04 DIIS
   @RHF iter   4:  -348.99254365642702   -2.46366e-03   5.06752e-05 DIIS
   @RHF iter   5:  -348.99261255519355   -6.88988e-05   1.69166e-05 DIIS
   @RHF iter   6:  -348.99261960576365   -7.05057e-06   4.55555e-06 DIIS
   @RHF iter   7:  -348.99262019081323   -5.85050e-07   1.27142e-06 DIIS
   @RHF iter   8:  -348.99262024081611   -5.00029e-08   2.99934e-07 DIIS
   @RHF iter   9:  -348.99262024620333   -5.38722e-09   1.34164e-07 DIIS
   @RHF iter  10:  -348.99262024736265   -1.15932e-09   6.22021e-08 DIIS
   @RHF iter  11:  -348.99262024780160   -4.38945e-10   2.38076e-08 DIIS
   @RHF iter  12:  -348.99262024786623   -6.46310e-11   9.78640e-09 DIIS
   @RHF iter  13:  -348.99262024787282   -6.59384e-12   3.61329e-09 DIIS
   @RHF iter  14:  -348.99262024787407   -1.25056e-12   8.20350e-10 DIIS
   @RHF iter  15:  -348.99262024787288    1.19371e-12   3.56755e-10 DIIS
   @RHF iter  16:  -348.99262024787299   -1.13687e-13   9.73659e-11 DIIS
  Energy and wave function converged.

  ==> Post-Iterations <==

    Orbital Energies [Eh]
    ---------------------

    Doubly Occupied:

       1A    -11.240972     2A    -11.235122     3A    -11.234016
       4A    -11.230832     5A    -11.230365     6A    -11.229558
       7A    -11.228740     8A    -11.223000     9A    -11.219329
      10A     -1.152387    11A     -1.042702    12A     -1.018413
      13A     -1.011942    14A     -0.930356    15A     -0.840658
      16A     -0.824049    17A     -0.795575    18A     -0.691072
      19A     -0.630945    20A     -0.629609    21A     -0.602994
      22A     -0.599150    23A     -0.579665    24A     -0.575564
      25A     -0.560406    26A     -0.534013    27A     -0.499392
      28A     -0.492018    29A     -0.490396    30A     -0.486287
      31A     -0.481943    32A     -0.481023    33A     -0.332749
      34A     -0.321331

    Virtual:

      35A      0.136866    36A      0.139186    37A      0.172670
      38A      0.193237    39A      0.204694    40A      0.223720
      41A      0.232297    42A      0.246850    43A      0.257064
      44A      0.261135    45A      0.267066    46A      0.277341
      47A      0.279970    48A      0.289869    49A      0.315651
      50A      0.332004    51A      0.366839    52A      0.383680
      53A      0.389964    54A      0.453353    55A      0.463802
      56A      0.480780    57A      0.497095    58A      0.560033
      59A      0.592029    60A      0.601500    61A      0.611066
      62A      0.634873    63A      0.640591    64A      0.672279
      65A      0.690865    66A      0.693510    67A      0.712499
      68A      0.718584    69A      0.732247    70A      0.741144
      71A      0.744017    72A      0.747517    73A      0.762854
      74A      0.774485    75A      0.784716    76A      0.807425
      77A      0.832080    78A      0.837874    79A      0.858527
      80A      0.867328    81A      0.876476    82A      0.879381
      83A      0.886202    84A      0.891314    85A      0.894610
      86A      0.911733    87A      0.912289    88A      0.929393
      89A      0.933196    90A      0.945701    91A      0.949159
      92A      0.969600    93A      0.979631    94A      1.008278
      95A      1.035771    96A      1.056868    97A      1.113141
      98A      1.128643    99A      1.133235   100A      1.156766
     101A      1.163628   102A      1.178380   103A      1.195975
     104A      1.232885   105A      1.243718   106A      1.251829
     107A      1.265763   108A      1.275167   109A      1.311183
     110A      1.318331   111A      1.326276   112A      1.341169
     113A      1.413120   114A      1.465747   115A      1.480452
     116A      1.508006   117A      1.522683   118A      1.543803
     119A      1.585144   120A      1.605500   121A      1.678635
     122A      1.686112   123A      1.698513   124A      1.711706
     125A      1.742983   126A      1.754084   127A      1.758045
     128A      1.787902   129A      1.810831   130A      1.857084
     131A      1.869931   132A      1.875725   133A      1.892461
     134A      1.896673   135A      1.907846   136A      1.913981
     137A      1.915661   138A      1.920564   139A      1.937115
     140A      1.942609   141A      1.944584   142A      1.948983
     143A      1.961411   144A      1.969805   145A      1.974522
     146A      1.990364   147A      1.995554   148A      1.996331
     149A      2.037680   150A      2.059347   151A      2.073981
     152A      2.093212   153A      2.103191   154A      2.120244
     155A      2.151387   156A      2.160305   157A      2.173690
     158A      2.183587   159A      2.201222   160A      2.255143
     161A      2.275386   162A      2.287071   163A      2.296341
     164A      2.299129   165A      2.316614   166A      2.322797
     167A      2.333081   168A      2.452055   169A      2.467111
     170A      2.471691   171A      2.486938   172A      2.505729
     173A      2.545352   174A      2.571352   175A      2.573704
     176A      2.617992   177A      2.745085   178A      2.753415
     179A      2.765608   180A      2.769484   181A      2.783730
     182A      2.803196   183A      2.818345   184A      2.845069
     185A      2.852905   186A      2.865031   187A      2.869986
     188A      2.957578   189A      2.967394   190A      2.983879
     191A      3.014655   192A      3.024412   193A      3.156389
     194A      3.201965   195A      3.301952   196A      3.967992

    Final Occupation by Irrep:
              A
    DOCC [    34 ]

  @RHF Final Energy:  -348.99262024787299

   => Energetics <=

    Nuclear Repulsion Energy =            402.8723096439411506
    One-Electron Energy =               -1268.3767123286136211
    Two-Electron Energy =                 516.5117824367994217
    Total Energy =                       -348.9926202478729920

Computation Completed

Properties will be evaluated at   0.000000,   0.000000,   0.000000 [a0]

Properties computed using the SCF density matrix

  Nuclear Dipole Moment: [e a0]
     X:    -2.2683      Y:   -11.0166      Z:     5.0779

  Electronic Dipole Moment: [e a0]
     X:     2.2388      Y:    10.9595      Z:    -5.1913

  Dipole Moment: [e a0]
     X:    -0.0295      Y:    -0.0571      Z:    -0.1135     Total:     0.1304

  Dipole Moment: [D]
     X:    -0.0750      Y:    -0.1452      Z:    -0.2884     Total:     0.3315

*** tstop() called on ds3 at Tue Apr 28 10:06:50 2020
Module time:
	user time   =      64.39 seconds =       1.07 minutes
	system time =      29.81 seconds =       0.50 minutes
	total time  =         92 seconds =       1.53 minutes
Total time:
	user time   =      64.39 seconds =       1.07 minutes
	system time =      29.81 seconds =       0.50 minutes
	total time  =         92 seconds =       1.53 minutes
                                     G D M A

                                 by Anthony Stone

                           version 2.2.06, 22 June 2011

               Distributed Multipoles from Gaussian wavefunctions

Starting at 10:6:50 on 28 Apr 2020

Using SCF density matrix from file ./SSI/SSI-121PHE-126VAL-1-dimer.test.28012.fchk

                         Distributed Multipole Analysis

Standard DMA

Positions and radii in angstrom
Multipole moments in atomic units, ea_0^k for rank k

C          x = -1.165643  y =  0.111439  z = -2.732102 angstrom
           Maximum rank =  0   Radius =  0.650 angstrom
                   Q00  =  -0.200987

C          x = -0.334643  y = -0.073561  z = -0.363102 angstrom
           Maximum rank =  0   Radius =  0.650 angstrom
                   Q00  =  -0.089908

C          x = -0.430643  y =  0.673439  z = -1.537102 angstrom
           Maximum rank =  0   Radius =  0.650 angstrom
                   Q00  =  -0.099669

C          x =  0.383357  y =  0.415439  z =  0.719898 angstrom
           Maximum rank =  0   Radius =  0.650 angstrom
                   Q00  =  -0.078682

C          x =  0.228357  y =  1.903439  z = -1.619102 angstrom
           Maximum rank =  0   Radius =  0.650 angstrom
                   Q00  =  -0.052228

C          x =  1.028357  y =  1.643439  z =  0.631898 angstrom
           Maximum rank =  0   Radius =  0.650 angstrom
                   Q00  =  -0.014580

C          x =  0.949357  y =  2.393439  z = -0.536102 angstrom
           Maximum rank =  0   Radius =  0.650 angstrom
                   Q00  =  -0.067541

H          x = -0.827643  y = -1.033561  z = -0.291102 angstrom
           Maximum rank =  0   Radius =  0.325 angstrom
                   Q00  =   0.059331

H          x =  0.454357  y = -0.162561  z =  1.630898 angstrom
           Maximum rank =  0   Radius =  0.325 angstrom
                   Q00  =   0.063832

H          x = -1.148643  y = -0.977561  z = -2.671102 angstrom
           Maximum rank =  0   Radius =  0.325 angstrom
                   Q00  =   0.096854

H          x = -0.617643  y =  0.384439  z = -3.630102 angstrom
           Maximum rank =  0   Radius =  0.325 angstrom
                   Q00  =   0.098381

H          x =  0.186357  y =  2.478439  z = -2.535102 angstrom
           Maximum rank =  0   Radius =  0.325 angstrom
                   Q00  =   0.057192

H          x =  1.613357  y =  2.003439  z =  1.466898 angstrom
           Maximum rank =  0   Radius =  0.325 angstrom
                   Q00  =   0.059514

H          x =  1.467357  y =  3.340439  z = -0.610102 angstrom
           Maximum rank =  0   Radius =  0.325 angstrom
                   Q00  =   0.065160

H          x = -2.208813  y =  0.444079  z = -2.837712 angstrom
           Maximum rank =  0   Radius =  0.325 angstrom
                   Q00  =   0.105274

C          x = -0.281643  y = -3.254561  z =  1.751898 angstrom
           Maximum rank =  0   Radius =  0.650 angstrom
                   Q00  =  -0.240380

C          x = -0.173643  y = -2.825561  z =  3.228898 angstrom
           Maximum rank =  0   Radius =  0.650 angstrom
                   Q00  =  -0.246538

H          x = -1.317643  y = -3.267561  z =  1.419898 angstrom
           Maximum rank =  0   Radius =  0.325 angstrom
                   Q00  =   0.079941

H          x =  0.279357  y = -2.561561  z =  1.125898 angstrom
           Maximum rank =  0   Radius =  0.325 angstrom
                   Q00  =   0.080496

H          x =  0.141357  y = -4.251561  z =  1.623898 angstrom
           Maximum rank =  0   Radius =  0.325 angstrom
                   Q00  =   0.081803

H          x = -0.600643  y = -1.829561  z =  3.336898 angstrom
           Maximum rank =  0   Radius =  0.325 angstrom
                   Q00  =   0.078937

H          x = -0.726693  y = -3.531721  z =  3.865658 angstrom
           Maximum rank =  0   Radius =  0.325 angstrom
                   Q00  =   0.083283

H          x =  0.885947  y = -2.786611  z =  3.521748 angstrom
           Maximum rank =  0   Radius =  0.325 angstrom
                   Q00  =   0.080519

Total multipoles referred to origin at
           x =   0.000000,  y =    0.000000,  z =    0.000000 angstrom
                   Q00  =  -0.000000

Finished at 10:6:50 on 28 Apr 2020

  DMA results are available in the Python driver through the
	  variable('DMA DISTRIBUTED MULTIPOLES')
  and
	  variable('DMA TOTAL MULTIPOLES')
  commands.

    Psi4 stopped on: Tuesday, 28 April 2020 10:06AM
    Psi4 wall time for execution: 0:01:31.52

*** Psi4 exiting successfully. Buy a developer a beer!
