                               Psi4 1.3.2 release

  ==> Input File <==

--------------------------------------------------------------------------
import numpy as np
set {scf_type pk
basis cc-pvdz
d_convergence 10
gdma_switch   0
gdma_limit    0
gdma_origin   [ 0.0,  0.0,  0.0 ]
}
molecule test {
    units Angstrom
    0 1
    --
    0 1
    C               -0.804662650737509    -2.937726127559319    -0.421199758844935
    C                0.152337349262491    -1.771726127559319    -0.516199758844935
    O               -0.168662650737509    -0.739726127559319    -1.095199758844935
    N                1.293337349262491    -1.894726127559319     0.135800241155065
    H               -1.684662650737509    -2.585726127559319     0.102800241155065
    H               -0.358662650737509    -3.730726127559318     0.178800241155065
    H                1.879337349262491    -1.074726127559319     0.245800241155065
    H                1.522337349262491    -2.745726127559319     0.623800241155065
    H               -1.106412650737509    -3.329716127559319    -1.403689758844935
    C               -0.002662650737509     1.904273872440681     0.885800241155065
    C                0.693337349262491     2.380273872440681    -0.395199758844935
    O               -1.140662650737509     2.694273872440681     1.220800241155065
    H               -0.342662650737509     0.879273872440681     0.752800241155065
    H                0.709337349262491     1.914273872440681     1.710800241155065
    H                1.247337349262491     1.529273872440681    -0.795199758844935
    H               -0.856662650737509     3.624273872440681     1.345800241155065
    H                1.394277349262491     3.199173872440681    -0.175919758844935
    H               -0.050322650737509     2.685513872440681    -1.146059758844935

}
e, wfn = energy('scf', return_wfn=True)
gdma(wfn)
dmavals = variable('DMA DISTRIBUTED MULTIPOLES')
charges = np.array(dmavals)
print(charges)
np.save('SSI-034ASN-076SER-1-dimer.npy', np.array(charges))--------------------------------------------------------------------------

*** tstart() called on ds3
*** at Sun Apr 26 19:26:05 2020

   => Loading Basis Set <=

    Name: CC-PVDZ
    Role: ORBITAL
    Keyword: BASIS
    atoms 1-2, 10-11 entry C          line   138 file /theoryfs2/ds/metcalf/miniconda2/envs/tf2gpu/share/psi4/basis/cc-pvdz.gbs
    atoms 3, 12      entry O          line   198 file /theoryfs2/ds/metcalf/miniconda2/envs/tf2gpu/share/psi4/basis/cc-pvdz.gbs
    atoms 4          entry N          line   168 file /theoryfs2/ds/metcalf/miniconda2/envs/tf2gpu/share/psi4/basis/cc-pvdz.gbs
    atoms 5-9, 13-18 entry H          line    22 file /theoryfs2/ds/metcalf/miniconda2/envs/tf2gpu/share/psi4/basis/cc-pvdz.gbs

         ---------------------------------------------------------
                                   SCF
               by Justin Turney, Rob Parrish, Andy Simmonett
                          and Daniel G. A. Smith
                              RHF Reference
                        1 Threads,    500 MiB Core
         ---------------------------------------------------------

  ==> Geometry <==

    Molecular point group: c1
    Full point group: C1

    Geometry (in Angstrom), charge = 0, multiplicity = 1:

       Center              X                  Y                   Z               Mass
    ------------   -----------------  -----------------  -----------------  -----------------
         C           -0.804662650738    -2.937726127559    -0.421199758845    12.000000000000
         C            0.152337349262    -1.771726127559    -0.516199758845    12.000000000000
         O           -0.168662650738    -0.739726127559    -1.095199758845    15.994914619570
         N            1.293337349262    -1.894726127559     0.135800241155    14.003074004430
         H           -1.684662650738    -2.585726127559     0.102800241155     1.007825032230
         H           -0.358662650738    -3.730726127559     0.178800241155     1.007825032230
         H            1.879337349262    -1.074726127559     0.245800241155     1.007825032230
         H            1.522337349262    -2.745726127559     0.623800241155     1.007825032230
         H           -1.106412650738    -3.329716127559    -1.403689758845     1.007825032230
         C           -0.002662650738     1.904273872441     0.885800241155    12.000000000000
         C            0.693337349262     2.380273872441    -0.395199758845    12.000000000000
         O           -1.140662650738     2.694273872441     1.220800241155    15.994914619570
         H           -0.342662650738     0.879273872441     0.752800241155     1.007825032230
         H            0.709337349262     1.914273872441     1.710800241155     1.007825032230
         H            1.247337349262     1.529273872441    -0.795199758845     1.007825032230
         H           -0.856662650738     3.624273872441     1.345800241155     1.007825032230
         H            1.394277349262     3.199173872441    -0.175919758845     1.007825032230
         H           -0.050322650738     2.685513872441    -1.146059758845     1.007825032230

  Running in c1 symmetry.

  Rotational constants: A =      0.14269  B =      0.02931  C =      0.02784 [cm^-1]
  Rotational constants: A =   4277.80181  B =    878.55041  C =    834.60362 [MHz]
  Nuclear repulsion =  303.216458831706746

  Charge       = 0
  Multiplicity = 1
  Electrons    = 58
  Nalpha       = 29
  Nbeta        = 29

  ==> Algorithm <==

  SCF Algorithm Type is PK.
  DIIS enabled.
  MOM disabled.
  Fractional occupation disabled.
  Guess Type is SAD.
  Energy threshold   = 1.00e-06
  Density threshold  = 1.00e-10
  Integral threshold = 0.00e+00

  ==> Primary Basis <==

  Basis Set: CC-PVDZ
    Blend: CC-PVDZ
    Number of shells: 75
    Number of basis function: 153
    Number of Cartesian functions: 160
    Spherical Harmonics?: true
    Max angular momentum: 2

  ==> Pre-Iterations <==

   -------------------------------------------------------
    Irrep   Nso     Nmo     Nalpha   Nbeta   Ndocc  Nsocc
   -------------------------------------------------------
     A        153     153       0       0       0       0
   -------------------------------------------------------
    Total     153     153      29      29      29       0
   -------------------------------------------------------

  ==> Integral Setup <==

  Using integral reordering PK algorithm.
  Sizing the integral batches needed.
  Building batch lookup table.
   Calculation information:
      Number of atoms:                  18
      Number of AO shells:              75
      Number of primitives:            209
      Number of atomic orbitals:       160
      Number of basis functions:       153

      Integral cutoff                 1.00e-12
      Number of threads:                 1

	Batch   1 pq = [       0,    9405] index = [             0,44231715] size =     44231715
	Batch   2 pq = [    9405,   11781] index = [      44231715,69401871] size =     25170156
  Task number: 7
  Buffer size: 11059200
  Buffer per thread: 2
  We computed 3419370 shell quartets total.
  Whereas there are 4062675 unique shell quartets.

  ==> DiskJK: Disk-Based J/K Matrices <==

    J tasked:                  Yes
    K tasked:                  Yes
    wK tasked:                  No
    Memory [MiB]:              375
    Schwarz Cutoff:          1E-12

    OpenMP threads:              1

  Minimum eigenvalue in the overlap matrix is 4.3155772732E-03.
  Using Symmetric Orthogonalization.

  SCF Guess: Superposition of Atomic Densities via on-the-fly atomic UHF.

  ==> Iterations <==

                        Total Energy        Delta E     RMS |[F,P]|

   @RHF iter SAD:  -360.66576155633493   -3.60666e+02   0.00000e+00
   @RHF iter   1:  -361.83076816877059   -1.16501e+00   4.49060e-03 DIIS
   @RHF iter   2:  -362.02174243711073   -1.90974e-01   2.52455e-03 DIIS
   @RHF iter   3:  -362.07669218354437   -5.49497e-02   5.05441e-04 DIIS
   @RHF iter   4:  -362.08021487542123   -3.52269e-03   2.03309e-04 DIIS
   @RHF iter   5:  -362.08081348188443   -5.98606e-04   3.85723e-05 DIIS
   @RHF iter   6:  -362.08084771421466   -3.42323e-05   1.72989e-05 DIIS
   @RHF iter   7:  -362.08085443273393   -6.71852e-06   6.17716e-06 DIIS
   @RHF iter   8:  -362.08085569599899   -1.26327e-06   2.27386e-06 DIIS
   @RHF iter   9:  -362.08085587234871   -1.76350e-07   7.18016e-07 DIIS
   @RHF iter  10:  -362.08085588762850   -1.52798e-08   2.35334e-07 DIIS
   @RHF iter  11:  -362.08085588906954   -1.44104e-09   5.35325e-08 DIIS
   @RHF iter  12:  -362.08085588915071   -8.11724e-11   1.76537e-08 DIIS
   @RHF iter  13:  -362.08085588915975   -9.03810e-12   5.43246e-09 DIIS
   @RHF iter  14:  -362.08085588916060   -8.52651e-13   2.08059e-09 DIIS
   @RHF iter  15:  -362.08085588916157   -9.66338e-13   8.90367e-10 DIIS
   @RHF iter  16:  -362.08085588915986    1.70530e-12   4.11266e-10 DIIS
   @RHF iter  17:  -362.08085588916413   -4.26326e-12   1.57809e-10 DIIS
   @RHF iter  18:  -362.08085588916214    1.98952e-12   4.43790e-11 DIIS
  Energy and wave function converged.

  ==> Post-Iterations <==

    Orbital Energies [Eh]
    ---------------------

    Doubly Occupied:

       1A    -20.532866     2A    -20.508220     3A    -15.596594
       4A    -11.352606     5A    -11.255344     6A    -11.244841
       7A    -11.203625     8A     -1.376048     9A     -1.328189
      10A     -1.226018    11A     -1.005329    12A     -0.987159
      13A     -0.822813    14A     -0.807734    15A     -0.734797
      16A     -0.663318    17A     -0.657850    18A     -0.619364
      19A     -0.598203    20A     -0.581326    21A     -0.574473
      22A     -0.563084    23A     -0.528082    24A     -0.519367
      25A     -0.500268    26A     -0.456431    27A     -0.417543
      28A     -0.413723    29A     -0.409233

    Virtual:

      30A      0.155812    31A      0.189391    32A      0.194885
      33A      0.208275    34A      0.216098    35A      0.248348
      36A      0.253446    37A      0.271513    38A      0.274159
      39A      0.290498    40A      0.311256    41A      0.337755
      42A      0.380161    43A      0.414041    44A      0.416952
      45A      0.495369    46A      0.569779    47A      0.625976
      48A      0.631752    49A      0.640693    50A      0.668727
      51A      0.678380    52A      0.694016    53A      0.707076
      54A      0.737091    55A      0.745979    56A      0.769517
      57A      0.794847    58A      0.821875    59A      0.847478
      60A      0.853374    61A      0.870285    62A      0.884095
      63A      0.894549    64A      0.904755    65A      0.916106
      66A      0.928189    67A      0.941709    68A      0.962568
      69A      0.971795    70A      1.005024    71A      1.013846
      72A      1.058058    73A      1.114370    74A      1.130062
      75A      1.142147    76A      1.166584    77A      1.244403
      78A      1.285114    79A      1.312492    80A      1.350993
      81A      1.373057    82A      1.391278    83A      1.400545
      84A      1.421788    85A      1.443053    86A      1.455259
      87A      1.492340    88A      1.511474    89A      1.545247
      90A      1.604392    91A      1.626081    92A      1.661793
      93A      1.676896    94A      1.690221    95A      1.720187
      96A      1.771676    97A      1.826515    98A      1.850800
      99A      1.875491   100A      1.885180   101A      1.895150
     102A      1.907735   103A      1.916048   104A      1.922334
     105A      1.926584   106A      1.953507   107A      1.964981
     108A      1.971361   109A      2.008308   110A      2.016789
     111A      2.051208   112A      2.064547   113A      2.080404
     114A      2.114944   115A      2.143836   116A      2.204132
     117A      2.224907   118A      2.252112   119A      2.306830
     120A      2.318462   121A      2.377519   122A      2.417587
     123A      2.423330   124A      2.431950   125A      2.461124
     126A      2.473369   127A      2.538143   128A      2.556048
     129A      2.570591   130A      2.594195   131A      2.639161
     132A      2.742857   133A      2.773832   134A      2.777438
     135A      2.792846   136A      2.809587   137A      2.833792
     138A      2.865043   139A      2.910315   140A      2.945122
     141A      2.974471   142A      3.092497   143A      3.130098
     144A      3.269500   145A      3.315058   146A      3.406159
     147A      3.461330   148A      3.505486   149A      3.525218
     150A      3.650371   151A      3.872009   152A      3.933679
     153A      4.095296

    Final Occupation by Irrep:
              A
    DOCC [    29 ]

  @RHF Final Energy:  -362.08085588916214

   => Energetics <=

    Nuclear Repulsion Energy =            303.2164588317067455
    One-Electron Energy =               -1095.6257267555743056
    Two-Electron Energy =                 430.3284120347054227
    Total Energy =                       -362.0808558891621374

Computation Completed

Properties will be evaluated at   0.000000,   0.000000,   0.000000 [a0]

Properties computed using the SCF density matrix

  Nuclear Dipole Moment: [e a0]
     X:     2.1960      Y:     0.3572      Z:     1.3499

  Electronic Dipole Moment: [e a0]
     X:    -0.9622      Y:    -1.5807      Z:    -0.5676

  Dipole Moment: [e a0]
     X:     1.2338      Y:    -1.2235      Z:     0.7823     Total:     1.9055

  Dipole Moment: [D]
     X:     3.1360      Y:    -3.1097      Z:     1.9883     Total:     4.8434

*** tstop() called on ds3 at Sun Apr 26 19:26:37 2020
Module time:
	user time   =      21.51 seconds =       0.36 minutes
	system time =      10.44 seconds =       0.17 minutes
	total time  =         32 seconds =       0.53 minutes
Total time:
	user time   =      21.51 seconds =       0.36 minutes
	system time =      10.44 seconds =       0.17 minutes
	total time  =         32 seconds =       0.53 minutes
                                     G D M A

                                 by Anthony Stone

                           version 2.2.06, 22 June 2011

               Distributed Multipoles from Gaussian wavefunctions

Starting at 19:26:37 on 26 Apr 2020

Using SCF density matrix from file ./SSI/SSI-034ASN-076SER-1-dimer.test.6707.fchk

                         Distributed Multipole Analysis

Standard DMA

Positions and radii in angstrom
Multipole moments in atomic units, ea_0^k for rank k

C          x = -0.804663  y = -2.937726  z = -0.421200 angstrom
           Maximum rank =  0   Radius =  0.650 angstrom
                   Q00  =  -0.258141

C          x =  0.152337  y = -1.771726  z = -0.516200 angstrom
           Maximum rank =  0   Radius =  0.650 angstrom
                   Q00  =   0.807045

O          x = -0.168663  y = -0.739726  z = -1.095200 angstrom
           Maximum rank =  0   Radius =  0.650 angstrom
                   Q00  =  -0.792071

N          x =  1.293337  y = -1.894726  z =  0.135800 angstrom
           Maximum rank =  0   Radius =  0.650 angstrom
                   Q00  =  -0.518731

H          x = -1.684663  y = -2.585726  z =  0.102800 angstrom
           Maximum rank =  0   Radius =  0.325 angstrom
                   Q00  =   0.137188

H          x = -0.358663  y = -3.730726  z =  0.178800 angstrom
           Maximum rank =  0   Radius =  0.325 angstrom
                   Q00  =   0.068902

H          x =  1.879337  y = -1.074726  z =  0.245800 angstrom
           Maximum rank =  0   Radius =  0.325 angstrom
                   Q00  =   0.224147

H          x =  1.522337  y = -2.745726  z =  0.623800 angstrom
           Maximum rank =  0   Radius =  0.325 angstrom
                   Q00  =   0.208185

H          x = -1.106413  y = -3.329716  z = -1.403690 angstrom
           Maximum rank =  0   Radius =  0.325 angstrom
                   Q00  =   0.135015

C          x = -0.002663  y =  1.904274  z =  0.885800 angstrom
           Maximum rank =  0   Radius =  0.650 angstrom
                   Q00  =   0.139302

C          x =  0.693337  y =  2.380274  z = -0.395200 angstrom
           Maximum rank =  0   Radius =  0.650 angstrom
                   Q00  =  -0.264624

O          x = -1.140663  y =  2.694274  z =  1.220800 angstrom
           Maximum rank =  0   Radius =  0.650 angstrom
                   Q00  =  -0.632057

H          x = -0.342663  y =  0.879274  z =  0.752800 angstrom
           Maximum rank =  0   Radius =  0.325 angstrom
                   Q00  =   0.106649

H          x =  0.709337  y =  1.914274  z =  1.710800 angstrom
           Maximum rank =  0   Radius =  0.325 angstrom
                   Q00  =   0.012104

H          x =  1.247337  y =  1.529274  z = -0.795200 angstrom
           Maximum rank =  0   Radius =  0.325 angstrom
                   Q00  =   0.097793

H          x = -0.856663  y =  3.624274  z =  1.345800 angstrom
           Maximum rank =  0   Radius =  0.325 angstrom
                   Q00  =   0.374836

H          x =  1.394277  y =  3.199174  z = -0.175920 angstrom
           Maximum rank =  0   Radius =  0.325 angstrom
                   Q00  =   0.055880

H          x = -0.050323  y =  2.685514  z = -1.146060 angstrom
           Maximum rank =  0   Radius =  0.325 angstrom
                   Q00  =   0.098580

Total multipoles referred to origin at
           x =   0.000000,  y =    0.000000,  z =    0.000000 angstrom
                   Q00  =  -0.000000

Finished at 19:26:37 on 26 Apr 2020

  DMA results are available in the Python driver through the
	  variable('DMA DISTRIBUTED MULTIPOLES')
  and
	  variable('DMA TOTAL MULTIPOLES')
  commands.

    Psi4 stopped on: Sunday, 26 April 2020 07:26PM
    Psi4 wall time for execution: 0:00:31.82

*** Psi4 exiting successfully. Buy a developer a beer!
