                               Psi4 1.3.2 release

  ==> Input File <==

--------------------------------------------------------------------------
import numpy as np
set {scf_type pk
basis cc-pvdz
d_convergence 10
gdma_switch   0
gdma_limit    0
gdma_origin   [ 0.0,  0.0,  0.0 ]
}
molecule test {
    units Angstrom
    0 1
    --
    0 1
    C                2.431553840889783     0.465852135246510    -2.245860407518630
    C                2.848553840889783    -0.973147864753490    -2.526860407518630
    H                2.442553840889783     1.049852135246510    -3.167860407518630
    H                1.424553840889783     0.483852135246510    -1.824860407518630
    H                3.117553840889783     0.915852135246510    -1.526860407518630
    H                2.846553840889783    -1.516147864753490    -1.580860407518630
    H                3.864693840889783    -1.003317864753490    -2.947044407518630
    H                2.123443840889783    -1.456797864753490    -3.197909407518630
    C               -2.722446159110217    -1.581147864753490    -0.686860407518630
    C               -0.696446159110217    -0.363147864753490     0.392139592481370
    C               -2.055446159110217    -0.419147864753490    -0.055860407518630
    C               -0.458446159110217     0.950852135246510     0.862139592481370
    C               -2.566446159110217     0.827852135246510     0.112139592481370
    C                0.338553840889783    -1.300147864753490     0.465139592481370
    C                1.563553840889783    -0.912147864753490     0.996139592481370
    C                1.771553840889783     0.397852135246510     1.447139592481370
    C                0.762553840889783     1.341852135246510     1.390139592481370
    N               -1.620446159110217     1.650852135246510     0.676139592481370
    H                0.149553840889783    -2.310147864753489     0.148139592481370
    H                2.369553840889783    -1.631147864753490     1.076139592481370
    H                2.735553840889783     0.671852135246510     1.857139592481370
    H               -3.798446159110217    -1.544147864753490    -0.521860407518630
    H               -2.329446159110217    -2.496147864753490    -0.244860407518630
    H               -3.578446159110217     1.121852135246510    -0.146860407518630
    H               -1.779446159110217     2.622852135246510     0.921139592481370
    H                0.919553840889783     2.352852135246510     1.742139592481370
    H               -2.484446159110217    -1.568887864753490    -1.760735407518630

}
e, wfn = energy('scf', return_wfn=True)
gdma(wfn)
dmavals = variable('DMA DISTRIBUTED MULTIPOLES')
charges = np.array(dmavals)
print(charges)
np.save('SSI-162ALA-175TRP-1-dimer.npy', np.array(charges))--------------------------------------------------------------------------

*** tstart() called on ds3
*** at Mon Apr 27 09:57:43 2020

   => Loading Basis Set <=

    Name: CC-PVDZ
    Role: ORBITAL
    Keyword: BASIS
    atoms 1-2, 9-17  entry C          line   138 file /theoryfs2/ds/metcalf/miniconda2/envs/tf2gpu/share/psi4/basis/cc-pvdz.gbs
    atoms 3-8, 19-27 entry H          line    22 file /theoryfs2/ds/metcalf/miniconda2/envs/tf2gpu/share/psi4/basis/cc-pvdz.gbs
    atoms 18         entry N          line   168 file /theoryfs2/ds/metcalf/miniconda2/envs/tf2gpu/share/psi4/basis/cc-pvdz.gbs

         ---------------------------------------------------------
                                   SCF
               by Justin Turney, Rob Parrish, Andy Simmonett
                          and Daniel G. A. Smith
                              RHF Reference
                        1 Threads,    500 MiB Core
         ---------------------------------------------------------

  ==> Geometry <==

    Molecular point group: c1
    Full point group: C1

    Geometry (in Angstrom), charge = 0, multiplicity = 1:

       Center              X                  Y                   Z               Mass
    ------------   -----------------  -----------------  -----------------  -----------------
         C            2.431553840890     0.465852135247    -2.245860407519    12.000000000000
         C            2.848553840890    -0.973147864753    -2.526860407519    12.000000000000
         H            2.442553840890     1.049852135247    -3.167860407519     1.007825032230
         H            1.424553840890     0.483852135247    -1.824860407519     1.007825032230
         H            3.117553840890     0.915852135247    -1.526860407519     1.007825032230
         H            2.846553840890    -1.516147864753    -1.580860407519     1.007825032230
         H            3.864693840890    -1.003317864753    -2.947044407519     1.007825032230
         H            2.123443840890    -1.456797864753    -3.197909407519     1.007825032230
         C           -2.722446159110    -1.581147864753    -0.686860407519    12.000000000000
         C           -0.696446159110    -0.363147864753     0.392139592481    12.000000000000
         C           -2.055446159110    -0.419147864753    -0.055860407519    12.000000000000
         C           -0.458446159110     0.950852135247     0.862139592481    12.000000000000
         C           -2.566446159110     0.827852135247     0.112139592481    12.000000000000
         C            0.338553840890    -1.300147864753     0.465139592481    12.000000000000
         C            1.563553840890    -0.912147864753     0.996139592481    12.000000000000
         C            1.771553840890     0.397852135247     1.447139592481    12.000000000000
         C            0.762553840890     1.341852135247     1.390139592481    12.000000000000
         N           -1.620446159110     1.650852135247     0.676139592481    14.003074004430
         H            0.149553840890    -2.310147864753     0.148139592481     1.007825032230
         H            2.369553840890    -1.631147864753     1.076139592481     1.007825032230
         H            2.735553840890     0.671852135247     1.857139592481     1.007825032230
         H           -3.798446159110    -1.544147864753    -0.521860407519     1.007825032230
         H           -2.329446159110    -2.496147864753    -0.244860407519     1.007825032230
         H           -3.578446159110     1.121852135247    -0.146860407519     1.007825032230
         H           -1.779446159110     2.622852135247     0.921139592481     1.007825032230
         H            0.919553840890     2.352852135247     1.742139592481     1.007825032230
         H           -2.484446159110    -1.568887864753    -1.760735407519     1.007825032230

  Running in c1 symmetry.

  Rotational constants: A =      0.03896  B =      0.02128  C =      0.01796 [cm^-1]
  Rotational constants: A =   1167.92051  B =    637.81630  C =    538.57578 [MHz]
  Nuclear repulsion =  669.735014595415805

  Charge       = 0
  Multiplicity = 1
  Electrons    = 88
  Nalpha       = 44
  Nbeta        = 44

  ==> Algorithm <==

  SCF Algorithm Type is PK.
  DIIS enabled.
  MOM disabled.
  Fractional occupation disabled.
  Guess Type is SAD.
  Energy threshold   = 1.00e-06
  Density threshold  = 1.00e-10
  Integral threshold = 0.00e+00

  ==> Primary Basis <==

  Basis Set: CC-PVDZ
    Blend: CC-PVDZ
    Number of shells: 117
    Number of basis function: 243
    Number of Cartesian functions: 255
    Spherical Harmonics?: true
    Max angular momentum: 2

  ==> Pre-Iterations <==

   -------------------------------------------------------
    Irrep   Nso     Nmo     Nalpha   Nbeta   Ndocc  Nsocc
   -------------------------------------------------------
     A        243     243       0       0       0       0
   -------------------------------------------------------
    Total     243     243      44      44      44       0
   -------------------------------------------------------

  ==> Integral Setup <==

  Using integral reordering PK algorithm.
  Sizing the integral batches needed.
  Building batch lookup table.
   Calculation information:
      Number of atoms:                  27
      Number of AO shells:             117
      Number of primitives:            339
      Number of atomic orbitals:       255
      Number of basis functions:       243

      Integral cutoff                 1.00e-12
      Number of threads:                 1

	Batch   1 pq = [       0,    9405] index = [             0,44231715] size =     44231715
	Batch   2 pq = [    9405,   13301] index = [      44231715,88464951] size =     44233236
	Batch   3 pq = [   13301,   16290] index = [      88464951,132690195] size =     44225244
	Batch   4 pq = [   16290,   18810] index = [     132690195,176917455] size =     44227260
	Batch   5 pq = [   18810,   21030] index = [     176917455,221140965] size =     44223510
	Batch   6 pq = [   21030,   23037] index = [     221140965,265363203] size =     44222238
	Batch   7 pq = [   23037,   24883] index = [     265363203,309594286] size =     44231083
	Batch   8 pq = [   24883,   26601] index = [     309594286,353819901] size =     44225615
	Batch   9 pq = [   26601,   28214] index = [     353819901,398029005] size =     44209104
	Batch  10 pq = [   28214,   29646] index = [     398029005,439457481] size =     41428476
  Task number: 40
  Buffer size: 11059200
  Buffer per thread: 2
  We computed 25297110 shell quartets total.
  Whereas there are 23829156 unique shell quartets.
     6.16 percent of shell quartets recomputed by reordering.

  ==> DiskJK: Disk-Based J/K Matrices <==

    J tasked:                  Yes
    K tasked:                  Yes
    wK tasked:                  No
    Memory [MiB]:              375
    Schwarz Cutoff:          1E-12

    OpenMP threads:              1

  Minimum eigenvalue in the overlap matrix is 2.4087248235E-04.
  Using Symmetric Orthogonalization.

  SCF Guess: Superposition of Atomic Densities via on-the-fly atomic UHF.

  ==> Iterations <==

                        Total Energy        Delta E     RMS |[F,P]|

   @RHF iter SAD:  -479.12336194689294   -4.79123e+02   0.00000e+00
   @RHF iter   1:  -479.48489447700615   -3.61533e-01   2.62920e-03 DIIS
   @RHF iter   2:  -479.71884699045398   -2.33953e-01   1.18858e-03 DIIS
   @RHF iter   3:  -479.76265366728461   -4.38067e-02   3.08524e-04 DIIS
   @RHF iter   4:  -479.76654260037230   -3.88893e-03   1.41889e-04 DIIS
   @RHF iter   5:  -479.76721514584676   -6.72545e-04   2.00848e-05 DIIS
   @RHF iter   6:  -479.76724421254937   -2.90667e-05   9.22585e-06 DIIS
   @RHF iter   7:  -479.76725019134756   -5.97880e-06   3.83142e-06 DIIS
   @RHF iter   8:  -479.76725187505224   -1.68370e-06   1.51781e-06 DIIS
   @RHF iter   9:  -479.76725221309107   -3.38039e-07   6.67230e-07 DIIS
   @RHF iter  10:  -479.76725227968262   -6.65916e-08   3.02922e-07 DIIS
   @RHF iter  11:  -479.76725229552147   -1.58389e-08   1.16101e-07 DIIS
   @RHF iter  12:  -479.76725229783699   -2.31552e-09   3.84443e-08 DIIS
   @RHF iter  13:  -479.76725229800218   -1.65187e-10   1.06565e-08 DIIS
   @RHF iter  14:  -479.76725229801775   -1.55751e-11   4.82426e-09 DIIS
   @RHF iter  15:  -479.76725229802003   -2.27374e-12   2.30187e-09 DIIS
   @RHF iter  16:  -479.76725229802457   -4.54747e-12   9.73570e-10 DIIS
   @RHF iter  17:  -479.76725229802457    0.00000e+00   4.35291e-10 DIIS
   @RHF iter  18:  -479.76725229802054    4.03588e-12   1.61330e-10 DIIS
   @RHF iter  19:  -479.76725229801576    4.77485e-12   5.77819e-11 DIIS
  Energy and wave function converged.

  ==> Post-Iterations <==

    Orbital Energies [Eh]
    ---------------------

    Doubly Occupied:

       1A    -15.601196     2A    -11.263697     3A    -11.262782
       4A    -11.230852     5A    -11.230512     6A    -11.229425
       7A    -11.225769     8A    -11.221974     9A    -11.219544
      10A    -11.215329    11A    -11.205975    12A    -11.200486
      13A     -1.296274    14A     -1.130667    15A     -1.077505
      16A     -1.004855    17A     -0.998879    18A     -0.989363
      19A     -0.933214    20A     -0.841060    21A     -0.821162
      22A     -0.805057    23A     -0.752636    24A     -0.720250
      25A     -0.663664    26A     -0.643480    27A     -0.605448
      28A     -0.596525    29A     -0.591345    30A     -0.584804
      31A     -0.583121    32A     -0.570173    33A     -0.554588
      34A     -0.538992    35A     -0.528192    36A     -0.495394
      37A     -0.486530    38A     -0.473384    39A     -0.472970
      40A     -0.469983    41A     -0.459397    42A     -0.373601
      43A     -0.296295    44A     -0.275382

    Virtual:

      45A      0.124602    46A      0.167642    47A      0.179243
      48A      0.182844    49A      0.196742    50A      0.212613
      51A      0.218028    52A      0.226369    53A      0.231518
      54A      0.252535    55A      0.264013    56A      0.266427
      57A      0.270304    58A      0.283210    59A      0.292486
      60A      0.303207    61A      0.313863    62A      0.333045
      63A      0.372577    64A      0.384733    65A      0.404968
      66A      0.412657    67A      0.420767    68A      0.447232
      69A      0.470331    70A      0.479714    71A      0.506325
      72A      0.512160    73A      0.584754    74A      0.596469
      75A      0.603593    76A      0.611353    77A      0.621942
      78A      0.635700    79A      0.640621    80A      0.652919
      81A      0.665026    82A      0.690296    83A      0.699848
      84A      0.709621    85A      0.723227    86A      0.738650
      87A      0.740648    88A      0.750474    89A      0.757916
      90A      0.764131    91A      0.782018    92A      0.786518
      93A      0.795553    94A      0.810447    95A      0.838967
      96A      0.847974    97A      0.862418    98A      0.868134
      99A      0.870425   100A      0.876262   101A      0.886576
     102A      0.892520   103A      0.904343   104A      0.910829
     105A      0.912792   106A      0.922810   107A      0.931577
     108A      0.949057   109A      0.952724   110A      0.955826
     111A      0.967563   112A      0.976034   113A      0.987217
     114A      1.010401   115A      1.025430   116A      1.039881
     117A      1.072016   118A      1.073372   119A      1.093629
     120A      1.131813   121A      1.135278   122A      1.141100
     123A      1.144441   124A      1.150783   125A      1.162662
     126A      1.182773   127A      1.208870   128A      1.225812
     129A      1.232670   130A      1.244500   131A      1.250708
     132A      1.271645   133A      1.289208   134A      1.296630
     135A      1.311614   136A      1.330872   137A      1.333380
     138A      1.362749   139A      1.371652   140A      1.412857
     141A      1.441960   142A      1.487672   143A      1.503276
     144A      1.526540   145A      1.561786   146A      1.571546
     147A      1.593462   148A      1.609366   149A      1.623157
     150A      1.636043   151A      1.648402   152A      1.683133
     153A      1.691248   154A      1.704035   155A      1.711712
     156A      1.739650   157A      1.768290   158A      1.774127
     159A      1.791878   160A      1.810994   161A      1.836803
     162A      1.841746   163A      1.872711   164A      1.879203
     165A      1.890458   166A      1.893148   167A      1.907274
     168A      1.908916   169A      1.915626   170A      1.923444
     171A      1.931660   172A      1.942484   173A      1.951645
     174A      1.962996   175A      1.969452   176A      1.971730
     177A      1.977302   178A      1.985101   179A      2.002251
     180A      2.007492   181A      2.014398   182A      2.030437
     183A      2.051231   184A      2.073353   185A      2.090292
     186A      2.100698   187A      2.106377   188A      2.114793
     189A      2.127466   190A      2.130546   191A      2.141250
     192A      2.151023   193A      2.171390   194A      2.177879
     195A      2.192226   196A      2.229508   197A      2.261531
     198A      2.276089   199A      2.298091   200A      2.306524
     201A      2.324953   202A      2.331579   203A      2.345995
     204A      2.357599   205A      2.399270   206A      2.425240
     207A      2.452681   208A      2.461480   209A      2.473351
     210A      2.483106   211A      2.544437   212A      2.580136
     213A      2.587898   214A      2.589995   215A      2.601330
     216A      2.636942   217A      2.671697   218A      2.692300
     219A      2.720223   220A      2.772117   221A      2.773765
     222A      2.780504   223A      2.788300   224A      2.807576
     225A      2.814289   226A      2.828199   227A      2.858273
     228A      2.868867   229A      2.874567   230A      2.877476
     231A      2.915431   232A      2.966577   233A      2.975422
     234A      2.990257   235A      3.034281   236A      3.058979
     237A      3.078476   238A      3.126800   239A      3.206746
     240A      3.313441   241A      3.388707   242A      3.746661
     243A      3.959414

    Final Occupation by Irrep:
              A
    DOCC [    44 ]

  @RHF Final Energy:  -479.76725229801576

   => Energetics <=

    Nuclear Repulsion Energy =            669.7350145954158052
    One-Electron Energy =               -1977.5210623480938921
    Two-Electron Energy =                 828.0187954546622677
    Total Energy =                       -479.7672522980158192

Computation Completed

Properties will be evaluated at   0.000000,   0.000000,   0.000000 [a0]

Properties computed using the SCF density matrix

  Nuclear Dipole Moment: [e a0]
     X:     7.5263      Y:    -4.0432      Z:   -10.4782

  Electronic Dipole Moment: [e a0]
     X:    -8.1337      Y:     4.6800      Z:    10.5960

  Dipole Moment: [e a0]
     X:    -0.6073      Y:     0.6368      Z:     0.1178     Total:     0.8878

  Dipole Moment: [D]
     X:    -1.5437      Y:     1.6186      Z:     0.2994     Total:     2.2567

*** tstop() called on ds3 at Mon Apr 27 10:09:40 2020
Module time:
	user time   =     196.46 seconds =       3.27 minutes
	system time =      81.53 seconds =       1.36 minutes
	total time  =        717 seconds =      11.95 minutes
Total time:
	user time   =     196.46 seconds =       3.27 minutes
	system time =      81.53 seconds =       1.36 minutes
	total time  =        717 seconds =      11.95 minutes
                                     G D M A

                                 by Anthony Stone

                           version 2.2.06, 22 June 2011

               Distributed Multipoles from Gaussian wavefunctions

Starting at 10:9:40 on 27 Apr 2020

Using SCF density matrix from file ./SSI/SSI-162ALA-175TRP-1-dimer.test.2129.fchk

                         Distributed Multipole Analysis

Standard DMA

Positions and radii in angstrom
Multipole moments in atomic units, ea_0^k for rank k

C          x =  2.431554  y =  0.465852  z = -2.245860 angstrom
           Maximum rank =  0   Radius =  0.650 angstrom
                   Q00  =  -0.231573

C          x =  2.848554  y = -0.973148  z = -2.526860 angstrom
           Maximum rank =  0   Radius =  0.650 angstrom
                   Q00  =  -0.229721

H          x =  2.442554  y =  1.049852  z = -3.167860 angstrom
           Maximum rank =  0   Radius =  0.325 angstrom
                   Q00  =   0.067478

H          x =  1.424554  y =  0.483852  z = -1.824860 angstrom
           Maximum rank =  0   Radius =  0.325 angstrom
                   Q00  =   0.091668

H          x =  3.117554  y =  0.915852  z = -1.526860 angstrom
           Maximum rank =  0   Radius =  0.325 angstrom
                   Q00  =   0.075714

H          x =  2.846554  y = -1.516148  z = -1.580860 angstrom
           Maximum rank =  0   Radius =  0.325 angstrom
                   Q00  =   0.079348

H          x =  3.864694  y = -1.003318  z = -2.947044 angstrom
           Maximum rank =  0   Radius =  0.325 angstrom
                   Q00  =   0.071119

H          x =  2.123444  y = -1.456798  z = -3.197909 angstrom
           Maximum rank =  0   Radius =  0.325 angstrom
                   Q00  =   0.073869

C          x = -2.722446  y = -1.581148  z = -0.686860 angstrom
           Maximum rank =  0   Radius =  0.650 angstrom
                   Q00  =  -0.205976

C          x = -0.696446  y = -0.363148  z =  0.392140 angstrom
           Maximum rank =  0   Radius =  0.650 angstrom
                   Q00  =  -0.058384

C          x = -2.055446  y = -0.419148  z = -0.055860 angstrom
           Maximum rank =  0   Radius =  0.650 angstrom
                   Q00  =  -0.116559

C          x = -0.458446  y =  0.950852  z =  0.862140 angstrom
           Maximum rank =  0   Radius =  0.650 angstrom
                   Q00  =   0.295116

C          x = -2.566446  y =  0.827852  z =  0.112140 angstrom
           Maximum rank =  0   Radius =  0.650 angstrom
                   Q00  =   0.069461

C          x =  0.338554  y = -1.300148  z =  0.465140 angstrom
           Maximum rank =  0   Radius =  0.650 angstrom
                   Q00  =  -0.098315

C          x =  1.563554  y = -0.912148  z =  0.996140 angstrom
           Maximum rank =  0   Radius =  0.650 angstrom
                   Q00  =  -0.089093

C          x =  1.771554  y =  0.397852  z =  1.447140 angstrom
           Maximum rank =  0   Radius =  0.650 angstrom
                   Q00  =  -0.067583

C          x =  0.762554  y =  1.341852  z =  1.390140 angstrom
           Maximum rank =  0   Radius =  0.650 angstrom
                   Q00  =  -0.119031

N          x = -1.620446  y =  1.650852  z =  0.676140 angstrom
           Maximum rank =  0   Radius =  0.650 angstrom
                   Q00  =  -0.498662

H          x =  0.149554  y = -2.310148  z =  0.148140 angstrom
           Maximum rank =  0   Radius =  0.325 angstrom
                   Q00  =   0.070883

H          x =  2.369554  y = -1.631148  z =  1.076140 angstrom
           Maximum rank =  0   Radius =  0.325 angstrom
                   Q00  =   0.060796

H          x =  2.735554  y =  0.671852  z =  1.857140 angstrom
           Maximum rank =  0   Radius =  0.325 angstrom
                   Q00  =   0.064727

H          x = -3.798446  y = -1.544148  z = -0.521860 angstrom
           Maximum rank =  0   Radius =  0.325 angstrom
                   Q00  =   0.106217

H          x = -2.329446  y = -2.496148  z = -0.244860 angstrom
           Maximum rank =  0   Radius =  0.325 angstrom
                   Q00  =   0.101942

H          x = -3.578446  y =  1.121852  z = -0.146860 angstrom
           Maximum rank =  0   Radius =  0.325 angstrom
                   Q00  =   0.100150

H          x = -1.779446  y =  2.622852  z =  0.921140 angstrom
           Maximum rank =  0   Radius =  0.325 angstrom
                   Q00  =   0.216814

H          x =  0.919554  y =  2.352852  z =  1.742140 angstrom
           Maximum rank =  0   Radius =  0.325 angstrom
                   Q00  =   0.073540

H          x = -2.484446  y = -1.568888  z = -1.760735 angstrom
           Maximum rank =  0   Radius =  0.325 angstrom
                   Q00  =   0.096055

Total multipoles referred to origin at
           x =   0.000000,  y =    0.000000,  z =    0.000000 angstrom
                   Q00  =  -0.000000

Finished at 10:9:40 on 27 Apr 2020

  DMA results are available in the Python driver through the
	  variable('DMA DISTRIBUTED MULTIPOLES')
  and
	  variable('DMA TOTAL MULTIPOLES')
  commands.

    Psi4 stopped on: Monday, 27 April 2020 10:09AM
    Psi4 wall time for execution: 0:11:57.05

*** Psi4 exiting successfully. Buy a developer a beer!
