                               Psi4 1.3.2 release

  ==> Input File <==

--------------------------------------------------------------------------
import numpy as np
set {scf_type pk
basis cc-pvdz
d_convergence 10
gdma_switch   0
gdma_limit    0
gdma_origin   [ 0.0,  0.0,  0.0 ]
}
molecule test {
    units Angstrom
    0 1
    --
    0 1
    C               -0.513056839364792    -0.357037805654584     2.089431517012360
    C               -1.353056839364792     0.954962194345417     1.818431517012360
    O               -0.688056839364792    -1.380037805654584     1.102431517012360
    H                0.542943160635208    -0.096037805654584     2.163431517012360
    H               -0.809056839364792    -0.760037805654584     3.059431517012360
    H               -1.085056839364792     1.341962194345416     0.838431517012360
    H               -0.162056839364792    -2.145037805654583     1.384431517012360
    H               -1.156286839364792     1.707132194345416     2.596591517012360
    H               -2.428166839364792     0.723072194345416     1.837331517012360
    C                1.126943160635208     1.052962194345416    -2.354568482987640
    C                0.649943160635208     0.241962194345416    -1.217568482987640
    O                1.287943160635208     0.253962194345416    -0.153568482987640
    N               -0.398056839364792    -0.542037805654583    -1.438568482987640
    H                0.326943160635208     1.205962194345416    -3.079568482987640
    H                1.905943160635208     0.483962194346416    -2.862568482987640
    H               -0.737056839364792    -1.064037805654584    -0.640568482987640
    H               -0.876056839364792    -0.551037805654583    -2.322568482987641
    H                1.550433160635208     2.019172194345416    -2.042978482987640

}
e, wfn = energy('scf', return_wfn=True)
gdma(wfn)
dmavals = variable('DMA DISTRIBUTED MULTIPOLES')
charges = np.array(dmavals)
print(charges)
np.save('SSI-014SER-084GLN-1-dimer.npy', np.array(charges))--------------------------------------------------------------------------

*** tstart() called on ds3
*** at Tue Apr 28 15:23:18 2020

   => Loading Basis Set <=

    Name: CC-PVDZ
    Role: ORBITAL
    Keyword: BASIS
    atoms 1-2, 10-11 entry C          line   138 file /theoryfs2/ds/metcalf/miniconda2/envs/tf2gpu/share/psi4/basis/cc-pvdz.gbs
    atoms 3, 12      entry O          line   198 file /theoryfs2/ds/metcalf/miniconda2/envs/tf2gpu/share/psi4/basis/cc-pvdz.gbs
    atoms 4-9, 14-18 entry H          line    22 file /theoryfs2/ds/metcalf/miniconda2/envs/tf2gpu/share/psi4/basis/cc-pvdz.gbs
    atoms 13         entry N          line   168 file /theoryfs2/ds/metcalf/miniconda2/envs/tf2gpu/share/psi4/basis/cc-pvdz.gbs

         ---------------------------------------------------------
                                   SCF
               by Justin Turney, Rob Parrish, Andy Simmonett
                          and Daniel G. A. Smith
                              RHF Reference
                        1 Threads,    500 MiB Core
         ---------------------------------------------------------

  ==> Geometry <==

    Molecular point group: c1
    Full point group: C1

    Geometry (in Angstrom), charge = 0, multiplicity = 1:

       Center              X                  Y                   Z               Mass
    ------------   -----------------  -----------------  -----------------  -----------------
         C           -0.513056839365    -0.357037805655     2.089431517012    12.000000000000
         C           -1.353056839365     0.954962194345     1.818431517012    12.000000000000
         O           -0.688056839365    -1.380037805655     1.102431517012    15.994914619570
         H            0.542943160635    -0.096037805655     2.163431517012     1.007825032230
         H           -0.809056839365    -0.760037805655     3.059431517012     1.007825032230
         H           -1.085056839365     1.341962194345     0.838431517012     1.007825032230
         H           -0.162056839365    -2.145037805655     1.384431517012     1.007825032230
         H           -1.156286839365     1.707132194345     2.596591517012     1.007825032230
         H           -2.428166839365     0.723072194345     1.837331517012     1.007825032230
         C            1.126943160635     1.052962194345    -2.354568482988    12.000000000000
         C            0.649943160635     0.241962194345    -1.217568482988    12.000000000000
         O            1.287943160635     0.253962194345    -0.153568482988    15.994914619570
         N           -0.398056839365    -0.542037805655    -1.438568482988    14.003074004430
         H            0.326943160635     1.205962194345    -3.079568482988     1.007825032230
         H            1.905943160635     0.483962194346    -2.862568482988     1.007825032230
         H           -0.737056839365    -1.064037805655    -0.640568482988     1.007825032230
         H           -0.876056839365    -0.551037805655    -2.322568482988     1.007825032230
         H            1.550433160635     2.019172194345    -2.042978482988     1.007825032230

  Running in c1 symmetry.

  Rotational constants: A =      0.14190  B =      0.04369  C =      0.04085 [cm^-1]
  Rotational constants: A =   4254.19678  B =   1309.92920  C =   1224.69509 [MHz]
  Nuclear repulsion =  325.155170054729240

  Charge       = 0
  Multiplicity = 1
  Electrons    = 58
  Nalpha       = 29
  Nbeta        = 29

  ==> Algorithm <==

  SCF Algorithm Type is PK.
  DIIS enabled.
  MOM disabled.
  Fractional occupation disabled.
  Guess Type is SAD.
  Energy threshold   = 1.00e-06
  Density threshold  = 1.00e-10
  Integral threshold = 0.00e+00

  ==> Primary Basis <==

  Basis Set: CC-PVDZ
    Blend: CC-PVDZ
    Number of shells: 75
    Number of basis function: 153
    Number of Cartesian functions: 160
    Spherical Harmonics?: true
    Max angular momentum: 2

  ==> Pre-Iterations <==

   -------------------------------------------------------
    Irrep   Nso     Nmo     Nalpha   Nbeta   Ndocc  Nsocc
   -------------------------------------------------------
     A        153     153       0       0       0       0
   -------------------------------------------------------
    Total     153     153      29      29      29       0
   -------------------------------------------------------

  ==> Integral Setup <==

  Using integral reordering PK algorithm.
  Sizing the integral batches needed.
  Building batch lookup table.
   Calculation information:
      Number of atoms:                  18
      Number of AO shells:              75
      Number of primitives:            209
      Number of atomic orbitals:       160
      Number of basis functions:       153

      Integral cutoff                 1.00e-12
      Number of threads:                 1

	Batch   1 pq = [       0,    9405] index = [             0,44231715] size =     44231715
	Batch   2 pq = [    9405,   11781] index = [      44231715,69401871] size =     25170156
  Task number: 7
  Buffer size: 11059200
  Buffer per thread: 2
  We computed 3904693 shell quartets total.
  Whereas there are 4062675 unique shell quartets.

  ==> DiskJK: Disk-Based J/K Matrices <==

    J tasked:                  Yes
    K tasked:                  Yes
    wK tasked:                  No
    Memory [MiB]:              375
    Schwarz Cutoff:          1E-12

    OpenMP threads:              1

  Minimum eigenvalue in the overlap matrix is 4.0223031688E-03.
  Using Symmetric Orthogonalization.

  SCF Guess: Superposition of Atomic Densities via on-the-fly atomic UHF.

  ==> Iterations <==

                        Total Energy        Delta E     RMS |[F,P]|

   @RHF iter SAD:  -360.69612380233229   -3.60696e+02   0.00000e+00
   @RHF iter   1:  -361.84163590987907   -1.14551e+00   4.38333e-03 DIIS
   @RHF iter   2:  -362.02584227172753   -1.84206e-01   2.41732e-03 DIIS
   @RHF iter   3:  -362.07669632538847   -5.08541e-02   5.01495e-04 DIIS
   @RHF iter   4:  -362.08011754799452   -3.42122e-03   2.00798e-04 DIIS
   @RHF iter   5:  -362.08068851494579   -5.70967e-04   3.55088e-05 DIIS
   @RHF iter   6:  -362.08071827021166   -2.97553e-05   1.64096e-05 DIIS
   @RHF iter   7:  -362.08072385502243   -5.58481e-06   5.65832e-06 DIIS
   @RHF iter   8:  -362.08072494772370   -1.09270e-06   2.09127e-06 DIIS
   @RHF iter   9:  -362.08072509637736   -1.48654e-07   7.20531e-07 DIIS
   @RHF iter  10:  -362.08072511119997   -1.48226e-08   2.19913e-07 DIIS
   @RHF iter  11:  -362.08072511251743   -1.31746e-09   5.26431e-08 DIIS
   @RHF iter  12:  -362.08072511258945   -7.20206e-11   1.86792e-08 DIIS
   @RHF iter  13:  -362.08072511259599   -6.53699e-12   4.59512e-09 DIIS
   @RHF iter  14:  -362.08072511259672   -7.38964e-13   1.53737e-09 DIIS
   @RHF iter  15:  -362.08072511259775   -1.02318e-12   5.98153e-10 DIIS
   @RHF iter  16:  -362.08072511259792   -1.70530e-13   2.90030e-10 DIIS
   @RHF iter  17:  -362.08072511259820   -2.84217e-13   1.22044e-10 DIIS
   @RHF iter  18:  -362.08072511259832   -1.13687e-13   4.31206e-11 DIIS
  Energy and wave function converged.

  ==> Post-Iterations <==

    Orbital Energies [Eh]
    ---------------------

    Doubly Occupied:

       1A    -20.556768     2A    -20.486242     3A    -15.560373
       4A    -11.331548     5A    -11.269957     6A    -11.228680
       7A    -11.219706     8A     -1.356046     9A     -1.343306
      10A     -1.196938    11A     -0.995698    12A     -0.989207
      13A     -0.830331    14A     -0.779985    15A     -0.719054
      16A     -0.682891    17A     -0.648505    18A     -0.623878
      19A     -0.600879    20A     -0.575245    21A     -0.549618
      22A     -0.543179    23A     -0.532864    24A     -0.521542
      25A     -0.498255    26A     -0.465334    27A     -0.433898
      28A     -0.393336    29A     -0.384739

    Virtual:

      30A      0.176801    31A      0.194671    32A      0.205162
      33A      0.219095    34A      0.233609    35A      0.252403
      36A      0.265463    37A      0.273694    38A      0.287872
      39A      0.295476    40A      0.309268    41A      0.342130
      42A      0.389280    43A      0.397646    44A      0.424261
      45A      0.494286    46A      0.582973    47A      0.616078
      48A      0.625984    49A      0.638396    50A      0.654733
      51A      0.678448    52A      0.716694    53A      0.731025
      54A      0.745129    55A      0.761370    56A      0.774684
      57A      0.809800    58A      0.829867    59A      0.846502
      60A      0.863876    61A      0.874185    62A      0.885585
      63A      0.895354    64A      0.904133    65A      0.920374
      66A      0.939451    67A      0.957283    68A      0.968330
      69A      0.977350    70A      1.013576    71A      1.051714
      72A      1.106958    73A      1.121391    74A      1.147253
      75A      1.173020    76A      1.180475    77A      1.213557
      78A      1.297131    79A      1.324257    80A      1.364102
      81A      1.421441    82A      1.422077    83A      1.441583
      84A      1.441833    85A      1.453120    86A      1.466063
      87A      1.495358    88A      1.521326    89A      1.578334
      90A      1.657877    91A      1.661969    92A      1.673529
      93A      1.684566    94A      1.718627    95A      1.770554
      96A      1.782248    97A      1.845662    98A      1.860380
      99A      1.881468   100A      1.884905   101A      1.899883
     102A      1.918825   103A      1.923974   104A      1.942889
     105A      1.946482   106A      1.970959   107A      1.972733
     108A      1.990606   109A      2.011027   110A      2.041841
     111A      2.062463   112A      2.078362   113A      2.123150
     114A      2.147812   115A      2.188772   116A      2.227957
     117A      2.239034   118A      2.257015   119A      2.287852
     120A      2.317073   121A      2.340242   122A      2.456791
     123A      2.473712   124A      2.485814   125A      2.504547
     126A      2.524539   127A      2.559268   128A      2.582440
     129A      2.605347   130A      2.661745   131A      2.676901
     132A      2.746268   133A      2.771321   134A      2.782833
     135A      2.795635   136A      2.817632   137A      2.835517
     138A      2.877689   139A      2.907612   140A      2.942226
     141A      3.024745   142A      3.123244   143A      3.171601
     144A      3.310895   145A      3.352041   146A      3.395321
     147A      3.464480   148A      3.514233   149A      3.594313
     150A      3.622606   151A      3.887463   152A      3.947315
     153A      4.104617

    Final Occupation by Irrep:
              A
    DOCC [    29 ]

  @RHF Final Energy:  -362.08072511259832

   => Energetics <=

    Nuclear Repulsion Energy =            325.1551700547292398
    One-Electron Energy =               -1139.8357818644051349
    Two-Electron Energy =                 452.5998866970775225
    Total Energy =                       -362.0807251125983157

Computation Completed

Properties will be evaluated at   0.000000,   0.000000,   0.000000 [a0]

Properties computed using the SCF density matrix

  Nuclear Dipole Moment: [e a0]
     X:    -2.7404      Y:     2.6821      Z:     0.8819

  Electronic Dipole Moment: [e a0]
     X:     2.1159      Y:    -3.0000      Z:    -1.4500

  Dipole Moment: [e a0]
     X:    -0.6245      Y:    -0.3179      Z:    -0.5681     Total:     0.9021

  Dipole Moment: [D]
     X:    -1.5874      Y:    -0.8081      Z:    -1.4439     Total:     2.2930

*** tstop() called on ds3 at Tue Apr 28 15:23:55 2020
Module time:
	user time   =      26.50 seconds =       0.44 minutes
	system time =      10.33 seconds =       0.17 minutes
	total time  =         37 seconds =       0.62 minutes
Total time:
	user time   =      26.50 seconds =       0.44 minutes
	system time =      10.33 seconds =       0.17 minutes
	total time  =         37 seconds =       0.62 minutes
                                     G D M A

                                 by Anthony Stone

                           version 2.2.06, 22 June 2011

               Distributed Multipoles from Gaussian wavefunctions

Starting at 15:23:55 on 28 Apr 2020

Using SCF density matrix from file ./SSI/SSI-014SER-084GLN-1-dimer.test.15985.fchk

                         Distributed Multipole Analysis

Standard DMA

Positions and radii in angstrom
Multipole moments in atomic units, ea_0^k for rank k

C          x = -0.513057  y = -0.357038  z =  2.089432 angstrom
           Maximum rank =  0   Radius =  0.650 angstrom
                   Q00  =   0.092832

C          x = -1.353057  y =  0.954962  z =  1.818432 angstrom
           Maximum rank =  0   Radius =  0.650 angstrom
                   Q00  =  -0.254260

O          x = -0.688057  y = -1.380038  z =  1.102432 angstrom
           Maximum rank =  0   Radius =  0.650 angstrom
                   Q00  =  -0.608552

H          x =  0.542943  y = -0.096038  z =  2.163432 angstrom
           Maximum rank =  0   Radius =  0.325 angstrom
                   Q00  =   0.084987

H          x = -0.809057  y = -0.760038  z =  3.059432 angstrom
           Maximum rank =  0   Radius =  0.325 angstrom
                   Q00  =   0.040900

H          x = -1.085057  y =  1.341962  z =  0.838432 angstrom
           Maximum rank =  0   Radius =  0.325 angstrom
                   Q00  =   0.105692

H          x = -0.162057  y = -2.145038  z =  1.384432 angstrom
           Maximum rank =  0   Radius =  0.325 angstrom
                   Q00  =   0.401956

H          x = -1.156287  y =  1.707132  z =  2.596592 angstrom
           Maximum rank =  0   Radius =  0.325 angstrom
                   Q00  =   0.095377

H          x = -2.428167  y =  0.723072  z =  1.837332 angstrom
           Maximum rank =  0   Radius =  0.325 angstrom
                   Q00  =   0.078243

C          x =  1.126943  y =  1.052962  z = -2.354568 angstrom
           Maximum rank =  0   Radius =  0.650 angstrom
                   Q00  =  -0.243430

C          x =  0.649943  y =  0.241962  z = -1.217568 angstrom
           Maximum rank =  0   Radius =  0.650 angstrom
                   Q00  =   0.792131

O          x =  1.287943  y =  0.253962  z = -0.153568 angstrom
           Maximum rank =  0   Radius =  0.650 angstrom
                   Q00  =  -0.798059

N          x = -0.398057  y = -0.542038  z = -1.438568 angstrom
           Maximum rank =  0   Radius =  0.650 angstrom
                   Q00  =  -0.561682

H          x =  0.326943  y =  1.205962  z = -3.079568 angstrom
           Maximum rank =  0   Radius =  0.325 angstrom
                   Q00  =   0.065443

H          x =  1.905943  y =  0.483962  z = -2.862568 angstrom
           Maximum rank =  0   Radius =  0.325 angstrom
                   Q00  =   0.129990

H          x = -0.737057  y = -1.064038  z = -0.640568 angstrom
           Maximum rank =  0   Radius =  0.325 angstrom
                   Q00  =   0.259193

H          x = -0.876057  y = -0.551038  z = -2.322568 angstrom
           Maximum rank =  0   Radius =  0.325 angstrom
                   Q00  =   0.195046

H          x =  1.550433  y =  2.019172  z = -2.042978 angstrom
           Maximum rank =  0   Radius =  0.325 angstrom
                   Q00  =   0.124193

Total multipoles referred to origin at
           x =   0.000000,  y =    0.000000,  z =    0.000000 angstrom
                   Q00  =  -0.000000

Finished at 15:23:55 on 28 Apr 2020

  DMA results are available in the Python driver through the
	  variable('DMA DISTRIBUTED MULTIPOLES')
  and
	  variable('DMA TOTAL MULTIPOLES')
  commands.

    Psi4 stopped on: Tuesday, 28 April 2020 03:23PM
    Psi4 wall time for execution: 0:00:36.50

*** Psi4 exiting successfully. Buy a developer a beer!
