                               Psi4 1.3.2 release

  ==> Input File <==

--------------------------------------------------------------------------
import numpy as np
set {scf_type pk
basis cc-pvdz
d_convergence 10
gdma_switch   0
gdma_limit    0
gdma_origin   [ 0.0,  0.0,  0.0 ]
}
molecule test {
    units Angstrom
    0 1
    --
    0 1
    C                1.380586252040954    -1.391201799932265    -0.320737225811944
    C                2.090586252040954    -2.001201799932264    -1.529737225811944
    C                0.425586252040955    -0.272201799932265    -0.644737225811944
    C               -0.789413747959046    -0.531201799932265    -1.294737225811944
    C                0.720586252040955     1.033798200067735    -0.247737225811944
    C               -1.699413747959046     0.511798200067735    -1.545737225811944
    C               -0.174413747959045     2.075798200067736    -0.507737225811944
    C               -1.386413747959045     1.812798200067735    -1.141737225811943
    H                0.816586252040955    -2.182201799932265     0.178262774188056
    H                2.134586252040955    -1.036201799932265     0.382262774188056
    H                1.329586252040954    -2.392201799932265    -2.203737225811944
    H               -1.035413747959046    -1.538201799932265    -1.597737225811944
    H                1.644586252040954     1.248798200067736     0.265262774188056
    H               -2.639413747959045     0.302798200067735    -2.038737225811944
    H                0.064586252040955     3.085798200067735    -0.200737225811944
    H               -2.074413747959046     2.623798200067736    -1.319737225811944
    H                2.739353252040955    -2.818591799932265    -1.181917225811944
    H                2.706922252040955    -1.263471799932265    -2.064427225811944
    C                0.126586252040955    -0.876201799932265     3.083262774188057
    C               -0.962413747959045     0.150798200067735     3.355262774188057
    H               -0.280413747959045    -1.873201799932265     3.235262774188056
    H                0.445586252040955    -0.778201799932265     2.054262774188056
    H                0.998586252040955    -0.723201799932265     3.715262774188056
    H               -0.538413747959045     1.142798200067735     3.189262774188057
    H               -1.322273747959045     0.083418200067735     4.392552774188057
    H               -1.797369747959046     0.010078200067735     2.653092774188056

}
e, wfn = energy('scf', return_wfn=True)
gdma(wfn)
dmavals = variable('DMA DISTRIBUTED MULTIPOLES')
charges = np.array(dmavals)
print(charges)
np.save('SSI-045PHE-061VAL-1-dimer.npy', np.array(charges))--------------------------------------------------------------------------

*** tstart() called on ds3
*** at Mon Apr 27 04:48:16 2020

   => Loading Basis Set <=

    Name: CC-PVDZ
    Role: ORBITAL
    Keyword: BASIS
    atoms 1-8, 19-20  entry C          line   138 file /theoryfs2/ds/metcalf/miniconda2/envs/tf2gpu/share/psi4/basis/cc-pvdz.gbs
    atoms 9-18, 21-26 entry H          line    22 file /theoryfs2/ds/metcalf/miniconda2/envs/tf2gpu/share/psi4/basis/cc-pvdz.gbs

         ---------------------------------------------------------
                                   SCF
               by Justin Turney, Rob Parrish, Andy Simmonett
                          and Daniel G. A. Smith
                              RHF Reference
                        1 Threads,    500 MiB Core
         ---------------------------------------------------------

  ==> Geometry <==

    Molecular point group: c1
    Full point group: C1

    Geometry (in Angstrom), charge = 0, multiplicity = 1:

       Center              X                  Y                   Z               Mass
    ------------   -----------------  -----------------  -----------------  -----------------
         C            1.380586252041    -1.391201799932    -0.320737225812    12.000000000000
         C            2.090586252041    -2.001201799932    -1.529737225812    12.000000000000
         C            0.425586252041    -0.272201799932    -0.644737225812    12.000000000000
         C           -0.789413747959    -0.531201799932    -1.294737225812    12.000000000000
         C            0.720586252041     1.033798200068    -0.247737225812    12.000000000000
         C           -1.699413747959     0.511798200068    -1.545737225812    12.000000000000
         C           -0.174413747959     2.075798200068    -0.507737225812    12.000000000000
         C           -1.386413747959     1.812798200068    -1.141737225812    12.000000000000
         H            0.816586252041    -2.182201799932     0.178262774188     1.007825032230
         H            2.134586252041    -1.036201799932     0.382262774188     1.007825032230
         H            1.329586252041    -2.392201799932    -2.203737225812     1.007825032230
         H           -1.035413747959    -1.538201799932    -1.597737225812     1.007825032230
         H            1.644586252041     1.248798200068     0.265262774188     1.007825032230
         H           -2.639413747959     0.302798200068    -2.038737225812     1.007825032230
         H            0.064586252041     3.085798200068    -0.200737225812     1.007825032230
         H           -2.074413747959     2.623798200068    -1.319737225812     1.007825032230
         H            2.739353252041    -2.818591799932    -1.181917225812     1.007825032230
         H            2.706922252041    -1.263471799932    -2.064427225812     1.007825032230
         C            0.126586252041    -0.876201799932     3.083262774188    12.000000000000
         C           -0.962413747959     0.150798200068     3.355262774188    12.000000000000
         H           -0.280413747959    -1.873201799932     3.235262774188     1.007825032230
         H            0.445586252041    -0.778201799932     2.054262774188     1.007825032230
         H            0.998586252041    -0.723201799932     3.715262774188     1.007825032230
         H           -0.538413747959     1.142798200068     3.189262774188     1.007825032230
         H           -1.322273747959     0.083418200068     4.392552774188     1.007825032230
         H           -1.797369747959     0.010078200068     2.653092774188     1.007825032230

  Running in c1 symmetry.

  Rotational constants: A =      0.03826  B =      0.03200  C =      0.02122 [cm^-1]
  Rotational constants: A =   1146.97993  B =    959.29442  C =    636.05693 [MHz]
  Nuclear repulsion =  501.765095350954766

  Charge       = 0
  Multiplicity = 1
  Electrons    = 76
  Nalpha       = 38
  Nbeta        = 38

  ==> Algorithm <==

  SCF Algorithm Type is PK.
  DIIS enabled.
  MOM disabled.
  Fractional occupation disabled.
  Guess Type is SAD.
  Energy threshold   = 1.00e-06
  Density threshold  = 1.00e-10
  Integral threshold = 0.00e+00

  ==> Primary Basis <==

  Basis Set: CC-PVDZ
    Blend: CC-PVDZ
    Number of shells: 108
    Number of basis function: 220
    Number of Cartesian functions: 230
    Spherical Harmonics?: true
    Max angular momentum: 2

  ==> Pre-Iterations <==

   -------------------------------------------------------
    Irrep   Nso     Nmo     Nalpha   Nbeta   Ndocc  Nsocc
   -------------------------------------------------------
     A        220     220       0       0       0       0
   -------------------------------------------------------
    Total     220     220      38      38      38       0
   -------------------------------------------------------

  ==> Integral Setup <==

  Using integral reordering PK algorithm.
  Sizing the integral batches needed.
  Building batch lookup table.
   Calculation information:
      Number of atoms:                  26
      Number of AO shells:             108
      Number of primitives:            300
      Number of atomic orbitals:       230
      Number of basis functions:       220

      Integral cutoff                 1.00e-12
      Number of threads:                 1

	Batch   1 pq = [       0,    9405] index = [             0,44231715] size =     44231715
	Batch   2 pq = [    9405,   13301] index = [      44231715,88464951] size =     44233236
	Batch   3 pq = [   13301,   16290] index = [      88464951,132690195] size =     44225244
	Batch   4 pq = [   16290,   18810] index = [     132690195,176917455] size =     44227260
	Batch   5 pq = [   18810,   21030] index = [     176917455,221140965] size =     44223510
	Batch   6 pq = [   21030,   23037] index = [     221140965,265363203] size =     44222238
	Batch   7 pq = [   23037,   24310] index = [     265363203,295500205] size =     30137002
  Task number: 27
  Buffer size: 11059200
  Buffer per thread: 2
  We computed 17480168 shell quartets total.
  Whereas there are 17325441 unique shell quartets.
     0.89 percent of shell quartets recomputed by reordering.

  ==> DiskJK: Disk-Based J/K Matrices <==

    J tasked:                  Yes
    K tasked:                  Yes
    wK tasked:                  No
    Memory [MiB]:              375
    Schwarz Cutoff:          1E-12

    OpenMP threads:              1

  Minimum eigenvalue in the overlap matrix is 3.2196152754E-04.
  Using Symmetric Orthogonalization.

  SCF Guess: Superposition of Atomic Densities via on-the-fly atomic UHF.

  ==> Iterations <==

                        Total Energy        Delta E     RMS |[F,P]|

   @RHF iter SAD:  -386.85070543494243   -3.86851e+02   0.00000e+00
   @RHF iter   1:  -387.77678513415810   -9.26080e-01   2.71733e-03 DIIS
   @RHF iter   2:  -387.99073266965200   -2.13948e-01   1.12904e-03 DIIS
   @RHF iter   3:  -388.02452265559549   -3.37900e-02   2.47647e-04 DIIS
   @RHF iter   4:  -388.02737655116175   -2.85390e-03   5.57289e-05 DIIS
   @RHF iter   5:  -388.02747149627595   -9.49451e-05   2.12916e-05 DIIS
   @RHF iter   6:  -388.02748571743535   -1.42212e-05   3.93136e-06 DIIS
   @RHF iter   7:  -388.02748635667695   -6.39242e-07   1.17332e-06 DIIS
   @RHF iter   8:  -388.02748641023231   -5.35554e-08   2.98454e-07 DIIS
   @RHF iter   9:  -388.02748641718449   -6.95218e-09   1.25734e-07 DIIS
   @RHF iter  10:  -388.02748641890804   -1.72355e-09   6.94312e-08 DIIS
   @RHF iter  11:  -388.02748641951518   -6.07145e-10   2.61525e-08 DIIS
   @RHF iter  12:  -388.02748641960540   -9.02105e-11   1.17307e-08 DIIS
   @RHF iter  13:  -388.02748641961136   -5.96856e-12   4.70701e-09 DIIS
   @RHF iter  14:  -388.02748641961580   -4.43379e-12   1.17654e-09 DIIS
   @RHF iter  15:  -388.02748641961693   -1.13687e-12   3.42005e-10 DIIS
   @RHF iter  16:  -388.02748641961529    1.64846e-12   8.59258e-11 DIIS
  Energy and wave function converged.

  ==> Post-Iterations <==

    Orbital Energies [Eh]
    ---------------------

    Doubly Occupied:

       1A    -11.240384     2A    -11.239976     3A    -11.237057
       4A    -11.234998     5A    -11.233264     6A    -11.232504
       7A    -11.229739     8A    -11.224227     9A    -11.210928
      10A    -11.207174    11A     -1.151426    12A     -1.063212
      13A     -1.013411    14A     -1.009838    15A     -0.982442
      16A     -0.862761    17A     -0.829344    18A     -0.825625
      19A     -0.784567    20A     -0.691033    21A     -0.640022
      22A     -0.635589    23A     -0.596373    24A     -0.593328
      25A     -0.589193    26A     -0.588237    27A     -0.577239
      28A     -0.541201    29A     -0.519915    30A     -0.501830
      31A     -0.494239    32A     -0.482454    33A     -0.478850
      34A     -0.476906    35A     -0.473486    36A     -0.467383
      37A     -0.331097    38A     -0.322167

    Virtual:

      39A      0.131471    40A      0.137608    41A      0.176237
      42A      0.197560    43A      0.198862    44A      0.210013
      45A      0.229388    46A      0.239111    47A      0.242869
      48A      0.257934    49A      0.261492    50A      0.266823
      51A      0.275749    52A      0.290799    53A      0.293043
      54A      0.300765    55A      0.310731    56A      0.329515
      57A      0.353073    58A      0.387648    59A      0.402306
      60A      0.428282    61A      0.448866    62A      0.465794
      63A      0.488527    64A      0.493951    65A      0.574553
      66A      0.579382    67A      0.595350    68A      0.603884
      69A      0.605581    70A      0.620195    71A      0.636221
      72A      0.651619    73A      0.675847    74A      0.688688
      75A      0.705852    76A      0.727953    77A      0.729336
      78A      0.736591    79A      0.744152    80A      0.751124
      81A      0.759247    82A      0.767756    83A      0.776739
      84A      0.808902    85A      0.839739    86A      0.843321
      87A      0.854375    88A      0.864039    89A      0.873523
      90A      0.885772    91A      0.890886    92A      0.894627
      93A      0.897173    94A      0.902190    95A      0.909532
      96A      0.916991    97A      0.920537    98A      0.937198
      99A      0.939320   100A      0.944603   101A      0.963373
     102A      0.971559   103A      0.975814   104A      0.994053
     105A      0.999429   106A      1.025211   107A      1.052938
     108A      1.092736   109A      1.115668   110A      1.129640
     111A      1.137515   112A      1.144664   113A      1.150716
     114A      1.163105   115A      1.191166   116A      1.217129
     117A      1.242155   118A      1.247295   119A      1.253847
     120A      1.293630   121A      1.297224   122A      1.310304
     123A      1.316906   124A      1.374097   125A      1.413306
     126A      1.429276   127A      1.446048   128A      1.476794
     129A      1.491218   130A      1.514424   131A      1.522303
     132A      1.590520   133A      1.611068   134A      1.634011
     135A      1.673671   136A      1.683298   137A      1.695115
     138A      1.704539   139A      1.732069   140A      1.747651
     141A      1.755649   142A      1.772319   143A      1.823153
     144A      1.842448   145A      1.869368   146A      1.873117
     147A      1.879522   148A      1.881985   149A      1.885783
     150A      1.898664   151A      1.908781   152A      1.916672
     153A      1.925044   154A      1.937865   155A      1.939747
     156A      1.944584   157A      1.951934   158A      1.954027
     159A      1.958811   160A      1.960830   161A      1.969118
     162A      1.974482   163A      1.993338   164A      1.994633
     165A      2.023194   166A      2.024949   167A      2.045665
     168A      2.054247   169A      2.074060   170A      2.093169
     171A      2.107774   172A      2.124360   173A      2.143439
     174A      2.155181   175A      2.160013   176A      2.164029
     177A      2.180615   178A      2.191365   179A      2.236728
     180A      2.257929   181A      2.269541   182A      2.298960
     183A      2.312234   184A      2.316626   185A      2.327982
     186A      2.359689   187A      2.376092   188A      2.448967
     189A      2.458675   190A      2.475038   191A      2.482861
     192A      2.491623   193A      2.528510   194A      2.539019
     195A      2.578227   196A      2.582406   197A      2.614204
     198A      2.644624   199A      2.738098   200A      2.755142
     201A      2.768241   202A      2.772337   203A      2.777051
     204A      2.795116   205A      2.837906   206A      2.845323
     207A      2.863518   208A      2.868273   209A      2.886249
     210A      2.919449   211A      2.936722   212A      2.965532
     213A      2.984183   214A      3.018279   215A      3.022563
     216A      3.050771   217A      3.181888   218A      3.193958
     219A      3.294861   220A      3.949665

    Final Occupation by Irrep:
              A
    DOCC [    38 ]

  @RHF Final Energy:  -388.02748641961529

   => Energetics <=

    Nuclear Repulsion Energy =            501.7650953509547662
    One-Electron Energy =               -1517.9583237686435950
    Two-Electron Energy =                 628.1657419980735995
    Total Energy =                       -388.0274864196152294

Computation Completed

Properties will be evaluated at   0.000000,   0.000000,   0.000000 [a0]

Properties computed using the SCF density matrix

  Nuclear Dipole Moment: [e a0]
     X:     2.9930      Y:    -5.7261      Z:     8.8670

  Electronic Dipole Moment: [e a0]
     X:    -2.9251      Y:     5.6537      Z:    -8.9263

  Dipole Moment: [e a0]
     X:     0.0679      Y:    -0.0724      Z:    -0.0593     Total:     0.1156

  Dipole Moment: [D]
     X:     0.1727      Y:    -0.1840      Z:    -0.1507     Total:     0.2939

*** tstop() called on ds3 at Mon Apr 27 04:58:05 2020
Module time:
	user time   =     118.34 seconds =       1.97 minutes
	system time =      38.12 seconds =       0.64 minutes
	total time  =        589 seconds =       9.82 minutes
Total time:
	user time   =     118.34 seconds =       1.97 minutes
	system time =      38.12 seconds =       0.64 minutes
	total time  =        589 seconds =       9.82 minutes
                                     G D M A

                                 by Anthony Stone

                           version 2.2.06, 22 June 2011

               Distributed Multipoles from Gaussian wavefunctions

Starting at 4:58:5 on 27 Apr 2020

Using SCF density matrix from file ./SSI/SSI-045PHE-061VAL-1-dimer.test.25510.fchk

                         Distributed Multipole Analysis

Standard DMA

Positions and radii in angstrom
Multipole moments in atomic units, ea_0^k for rank k

C          x =  1.380586  y = -1.391202  z = -0.320737 angstrom
           Maximum rank =  0   Radius =  0.650 angstrom
                   Q00  =  -0.054966

C          x =  2.090586  y = -2.001202  z = -1.529737 angstrom
           Maximum rank =  0   Radius =  0.650 angstrom
                   Q00  =  -0.215940

C          x =  0.425586  y = -0.272202  z = -0.644737 angstrom
           Maximum rank =  0   Radius =  0.650 angstrom
                   Q00  =  -0.104737

C          x = -0.789414  y = -0.531202  z = -1.294737 angstrom
           Maximum rank =  0   Radius =  0.650 angstrom
                   Q00  =  -0.106645

C          x =  0.720586  y =  1.033798  z = -0.247737 angstrom
           Maximum rank =  0   Radius =  0.650 angstrom
                   Q00  =  -0.009243

C          x = -1.699414  y =  0.511798  z = -1.545737 angstrom
           Maximum rank =  0   Radius =  0.650 angstrom
                   Q00  =  -0.078035

C          x = -0.174414  y =  2.075798  z = -0.507737 angstrom
           Maximum rank =  0   Radius =  0.650 angstrom
                   Q00  =  -0.071233

C          x = -1.386414  y =  1.812798  z = -1.141737 angstrom
           Maximum rank =  0   Radius =  0.650 angstrom
                   Q00  =  -0.051638

H          x =  0.816586  y = -2.182202  z =  0.178263 angstrom
           Maximum rank =  0   Radius =  0.325 angstrom
                   Q00  =   0.068002

H          x =  2.134586  y = -1.036202  z =  0.382263 angstrom
           Maximum rank =  0   Radius =  0.325 angstrom
                   Q00  =   0.063360

H          x =  1.329586  y = -2.392202  z = -2.203737 angstrom
           Maximum rank =  0   Radius =  0.325 angstrom
                   Q00  =   0.082388

H          x = -1.035414  y = -1.538202  z = -1.597737 angstrom
           Maximum rank =  0   Radius =  0.325 angstrom
                   Q00  =   0.060109

H          x =  1.644586  y =  1.248798  z =  0.265263 angstrom
           Maximum rank =  0   Radius =  0.325 angstrom
                   Q00  =   0.058904

H          x = -2.639414  y =  0.302798  z = -2.038737 angstrom
           Maximum rank =  0   Radius =  0.325 angstrom
                   Q00  =   0.068103

H          x =  0.064586  y =  3.085798  z = -0.200737 angstrom
           Maximum rank =  0   Radius =  0.325 angstrom
                   Q00  =   0.065991

H          x = -2.074414  y =  2.623798  z = -1.319737 angstrom
           Maximum rank =  0   Radius =  0.325 angstrom
                   Q00  =   0.062756

H          x =  2.739353  y = -2.818592  z = -1.181917 angstrom
           Maximum rank =  0   Radius =  0.325 angstrom
                   Q00  =   0.084180

H          x =  2.706922  y = -1.263472  z = -2.064427 angstrom
           Maximum rank =  0   Radius =  0.325 angstrom
                   Q00  =   0.085719

C          x =  0.126586  y = -0.876202  z =  3.083263 angstrom
           Maximum rank =  0   Radius =  0.650 angstrom
                   Q00  =  -0.240003

C          x = -0.962414  y =  0.150798  z =  3.355263 angstrom
           Maximum rank =  0   Radius =  0.650 angstrom
                   Q00  =  -0.229544

H          x = -0.280414  y = -1.873202  z =  3.235263 angstrom
           Maximum rank =  0   Radius =  0.325 angstrom
                   Q00  =   0.072994

H          x =  0.445586  y = -0.778202  z =  2.054263 angstrom
           Maximum rank =  0   Radius =  0.325 angstrom
                   Q00  =   0.082579

H          x =  0.998586  y = -0.723202  z =  3.715263 angstrom
           Maximum rank =  0   Radius =  0.325 angstrom
                   Q00  =   0.074279

H          x = -0.538414  y =  1.142798  z =  3.189263 angstrom
           Maximum rank =  0   Radius =  0.325 angstrom
                   Q00  =   0.075567

H          x = -1.322274  y =  0.083418  z =  4.392553 angstrom
           Maximum rank =  0   Radius =  0.325 angstrom
                   Q00  =   0.073336

H          x = -1.797370  y =  0.010078  z =  2.653093 angstrom
           Maximum rank =  0   Radius =  0.325 angstrom
                   Q00  =   0.083720

Total multipoles referred to origin at
           x =   0.000000,  y =    0.000000,  z =    0.000000 angstrom
                   Q00  =  -0.000000

Finished at 4:58:5 on 27 Apr 2020

  DMA results are available in the Python driver through the
	  variable('DMA DISTRIBUTED MULTIPOLES')
  and
	  variable('DMA TOTAL MULTIPOLES')
  commands.

    Psi4 stopped on: Monday, 27 April 2020 04:58AM
    Psi4 wall time for execution: 0:09:49.15

*** Psi4 exiting successfully. Buy a developer a beer!
