                               Psi4 1.3.2 release

  ==> Input File <==

--------------------------------------------------------------------------
import numpy as np
set {scf_type pk
basis cc-pvdz
d_convergence 10
gdma_switch   0
gdma_limit    0
gdma_origin   [ 0.0,  0.0,  0.0 ]
}
molecule test {
    units Angstrom
    0 1
    --
    0 1
    C               -1.623781367893190    -3.752747813519660    -1.801434030960918
    C               -2.010781367893189    -4.639747813519660    -0.634434030960919
    H               -0.773781367893190    -3.139747813519660    -1.509434030960919
    H               -1.337781367893190    -4.369747813519660    -2.652434030960918
    H               -2.459781367893190    -3.116747813519660    -2.091434030960918
    H               -2.793781367893189    -5.313747813519659    -0.979434030960919
    H               -2.377411367893190    -4.027747813519660     0.202845969039082
    H               -1.144921367893190    -5.234847813519660    -0.308654030960919
    C                2.185218632106810     2.407252186480340     2.173565969039082
    C               -0.518781367893190     0.817252186480340     0.112565969039082
    C                0.860218632106810     1.051252186480340     0.368565969039082
    C                0.941218632106810     1.924252186480340     1.509565969039081
    C               -0.338781367893190     2.182252186480340     1.886565969039081
    C                0.002218632106810    -0.584747813519660    -1.735434030960918
    C               -0.957781367893190     0.006252186480340    -0.930434030960919
    C                1.371218632106810    -0.374747813519660    -1.507434030960919
    C                1.810218632106811     0.437252186480340    -0.460434030960919
    N               -1.216781367893190     1.523252186480340     1.057565969039082
    H               -0.314781367893190    -1.210747813519660    -2.558434030960918
    H               -2.012781367893190    -0.157747813519660    -1.100434030960919
    H                2.099218632106810    -0.860747813519660    -2.141434030960918
    H                2.865218632106810     0.568252186480340    -0.271434030960919
    H               -2.225781367893190     1.548252186480340     1.159565969039082
    H               -0.625781367893190     2.805252186480340     2.728565969039082
    H                2.096218632106810     3.474252186480340     2.381565969039082
    H                3.013218632106811     2.276252186480340     1.476565969039082
    H                2.414528632106811     1.860652186480340     3.100195969039082

}
e, wfn = energy('scf', return_wfn=True)
gdma(wfn)
dmavals = variable('DMA DISTRIBUTED MULTIPOLES')
charges = np.array(dmavals)
print(charges)
np.save('SSI-160LEU-164TRP-1-dimer.npy', np.array(charges))--------------------------------------------------------------------------

*** tstart() called on ds3
*** at Mon Apr 27 13:16:51 2020

   => Loading Basis Set <=

    Name: CC-PVDZ
    Role: ORBITAL
    Keyword: BASIS
    atoms 1-2, 9-17  entry C          line   138 file /theoryfs2/ds/metcalf/miniconda2/envs/tf2gpu/share/psi4/basis/cc-pvdz.gbs
    atoms 3-8, 19-27 entry H          line    22 file /theoryfs2/ds/metcalf/miniconda2/envs/tf2gpu/share/psi4/basis/cc-pvdz.gbs
    atoms 18         entry N          line   168 file /theoryfs2/ds/metcalf/miniconda2/envs/tf2gpu/share/psi4/basis/cc-pvdz.gbs

         ---------------------------------------------------------
                                   SCF
               by Justin Turney, Rob Parrish, Andy Simmonett
                          and Daniel G. A. Smith
                              RHF Reference
                        1 Threads,    500 MiB Core
         ---------------------------------------------------------

  ==> Geometry <==

    Molecular point group: c1
    Full point group: C1

    Geometry (in Angstrom), charge = 0, multiplicity = 1:

       Center              X                  Y                   Z               Mass
    ------------   -----------------  -----------------  -----------------  -----------------
         C           -1.623781367893    -3.752747813520    -1.801434030961    12.000000000000
         C           -2.010781367893    -4.639747813520    -0.634434030961    12.000000000000
         H           -0.773781367893    -3.139747813520    -1.509434030961     1.007825032230
         H           -1.337781367893    -4.369747813520    -2.652434030961     1.007825032230
         H           -2.459781367893    -3.116747813520    -2.091434030961     1.007825032230
         H           -2.793781367893    -5.313747813520    -0.979434030961     1.007825032230
         H           -2.377411367893    -4.027747813520     0.202845969039     1.007825032230
         H           -1.144921367893    -5.234847813520    -0.308654030961     1.007825032230
         C            2.185218632107     2.407252186480     2.173565969039    12.000000000000
         C           -0.518781367893     0.817252186480     0.112565969039    12.000000000000
         C            0.860218632107     1.051252186480     0.368565969039    12.000000000000
         C            0.941218632107     1.924252186480     1.509565969039    12.000000000000
         C           -0.338781367893     2.182252186480     1.886565969039    12.000000000000
         C            0.002218632107    -0.584747813520    -1.735434030961    12.000000000000
         C           -0.957781367893     0.006252186480    -0.930434030961    12.000000000000
         C            1.371218632107    -0.374747813520    -1.507434030961    12.000000000000
         C            1.810218632107     0.437252186480    -0.460434030961    12.000000000000
         N           -1.216781367893     1.523252186480     1.057565969039    14.003074004430
         H           -0.314781367893    -1.210747813520    -2.558434030961     1.007825032230
         H           -2.012781367893    -0.157747813520    -1.100434030961     1.007825032230
         H            2.099218632107    -0.860747813520    -2.141434030961     1.007825032230
         H            2.865218632107     0.568252186480    -0.271434030961     1.007825032230
         H           -2.225781367893     1.548252186480     1.159565969039     1.007825032230
         H           -0.625781367893     2.805252186480     2.728565969039     1.007825032230
         H            2.096218632107     3.474252186480     2.381565969039     1.007825032230
         H            3.013218632107     2.276252186480     1.476565969039     1.007825032230
         H            2.414528632107     1.860652186480     3.100195969039     1.007825032230

  Running in c1 symmetry.

  Rotational constants: A =      0.05344  B =      0.01380  C =      0.01248 [cm^-1]
  Rotational constants: A =   1602.18734  B =    413.76963  C =    374.03486 [MHz]
  Nuclear repulsion =  643.148716656615761

  Charge       = 0
  Multiplicity = 1
  Electrons    = 88
  Nalpha       = 44
  Nbeta        = 44

  ==> Algorithm <==

  SCF Algorithm Type is PK.
  DIIS enabled.
  MOM disabled.
  Fractional occupation disabled.
  Guess Type is SAD.
  Energy threshold   = 1.00e-06
  Density threshold  = 1.00e-10
  Integral threshold = 0.00e+00

  ==> Primary Basis <==

  Basis Set: CC-PVDZ
    Blend: CC-PVDZ
    Number of shells: 117
    Number of basis function: 243
    Number of Cartesian functions: 255
    Spherical Harmonics?: true
    Max angular momentum: 2

  ==> Pre-Iterations <==

   -------------------------------------------------------
    Irrep   Nso     Nmo     Nalpha   Nbeta   Ndocc  Nsocc
   -------------------------------------------------------
     A        243     243       0       0       0       0
   -------------------------------------------------------
    Total     243     243      44      44      44       0
   -------------------------------------------------------

  ==> Integral Setup <==

  Using integral reordering PK algorithm.
  Sizing the integral batches needed.
  Building batch lookup table.
   Calculation information:
      Number of atoms:                  27
      Number of AO shells:             117
      Number of primitives:            339
      Number of atomic orbitals:       255
      Number of basis functions:       243

      Integral cutoff                 1.00e-12
      Number of threads:                 1

	Batch   1 pq = [       0,    9405] index = [             0,44231715] size =     44231715
	Batch   2 pq = [    9405,   13301] index = [      44231715,88464951] size =     44233236
	Batch   3 pq = [   13301,   16290] index = [      88464951,132690195] size =     44225244
	Batch   4 pq = [   16290,   18810] index = [     132690195,176917455] size =     44227260
	Batch   5 pq = [   18810,   21030] index = [     176917455,221140965] size =     44223510
	Batch   6 pq = [   21030,   23037] index = [     221140965,265363203] size =     44222238
	Batch   7 pq = [   23037,   24883] index = [     265363203,309594286] size =     44231083
	Batch   8 pq = [   24883,   26601] index = [     309594286,353819901] size =     44225615
	Batch   9 pq = [   26601,   28214] index = [     353819901,398029005] size =     44209104
	Batch  10 pq = [   28214,   29646] index = [     398029005,439457481] size =     41428476
  Task number: 40
  Buffer size: 11059200
  Buffer per thread: 2
  We computed 20651296 shell quartets total.
  Whereas there are 23829156 unique shell quartets.

  ==> DiskJK: Disk-Based J/K Matrices <==

    J tasked:                  Yes
    K tasked:                  Yes
    wK tasked:                  No
    Memory [MiB]:              375
    Schwarz Cutoff:          1E-12

    OpenMP threads:              1

  Minimum eigenvalue in the overlap matrix is 2.4050896640E-04.
  Using Symmetric Orthogonalization.

  SCF Guess: Superposition of Atomic Densities via on-the-fly atomic UHF.

  ==> Iterations <==

                        Total Energy        Delta E     RMS |[F,P]|

   @RHF iter SAD:  -479.05825932053796   -4.79058e+02   0.00000e+00
   @RHF iter   1:  -479.48553964496296   -4.27280e-01   2.61351e-03 DIIS
   @RHF iter   2:  -479.71907245892618   -2.33533e-01   1.16126e-03 DIIS
   @RHF iter   3:  -479.76115499446348   -4.20825e-02   3.02993e-04 DIIS
   @RHF iter   4:  -479.76495826584784   -3.80327e-03   1.39836e-04 DIIS
   @RHF iter   5:  -479.76560998591560   -6.51720e-04   1.99855e-05 DIIS
   @RHF iter   6:  -479.76563969094298   -2.97050e-05   9.18358e-06 DIIS
   @RHF iter   7:  -479.76564584643006   -6.15549e-06   3.97763e-06 DIIS
   @RHF iter   8:  -479.76564773652512   -1.89010e-06   1.61573e-06 DIIS
   @RHF iter   9:  -479.76564814377411   -4.07249e-07   7.13117e-07 DIIS
   @RHF iter  10:  -479.76564822281125   -7.90371e-08   3.22814e-07 DIIS
   @RHF iter  11:  -479.76564824072420   -1.79130e-08   1.17935e-07 DIIS
   @RHF iter  12:  -479.76564824302238   -2.29818e-09   3.90872e-08 DIIS
   @RHF iter  13:  -479.76564824318973   -1.67347e-10   1.05786e-08 DIIS
   @RHF iter  14:  -479.76564824320383   -1.40972e-11   4.67562e-09 DIIS
   @RHF iter  15:  -479.76564824320036    3.46745e-12   2.40942e-09 DIIS
   @RHF iter  16:  -479.76564824320099   -6.25278e-13   9.99739e-10 DIIS
   @RHF iter  17:  -479.76564824320093    5.68434e-14   4.05250e-10 DIIS
   @RHF iter  18:  -479.76564824320167   -7.38964e-13   1.59736e-10 DIIS
   @RHF iter  19:  -479.76564824320229   -6.25278e-13   5.50052e-11 DIIS
  Energy and wave function converged.

  ==> Post-Iterations <==

    Orbital Energies [Eh]
    ---------------------

    Doubly Occupied:

       1A    -15.601268     2A    -11.264078     3A    -11.262625
       4A    -11.231194     5A    -11.230173     6A    -11.228250
       7A    -11.225638     8A    -11.221364     9A    -11.221062
      10A    -11.216324    11A    -11.214089    12A    -11.209536
      13A     -1.294174    14A     -1.126705    15A     -1.073604
      16A     -1.017818    17A     -0.996207    18A     -0.986856
      19A     -0.931601    20A     -0.838945    21A     -0.830744
      22A     -0.802885    23A     -0.751287    24A     -0.719207
      25A     -0.662279    26A     -0.641681    27A     -0.603653
      28A     -0.597465    29A     -0.595089    30A     -0.591687
      31A     -0.589676    32A     -0.567809    33A     -0.552985
      34A     -0.538411    35A     -0.525346    36A     -0.496861
      37A     -0.493922    38A     -0.481265    39A     -0.481177
      40A     -0.470662    41A     -0.458213    42A     -0.372311
      43A     -0.294346    44A     -0.273863

    Virtual:

      45A      0.124384    46A      0.169088    47A      0.176998
      48A      0.186512    49A      0.191282    50A      0.208221
      51A      0.218393    52A      0.224650    53A      0.228888
      54A      0.246371    55A      0.255028    56A      0.267917
      57A      0.279809    58A      0.287456    59A      0.292400
      60A      0.296477    61A      0.307267    62A      0.320796
      63A      0.372009    64A      0.383157    65A      0.403653
      66A      0.408731    67A      0.426033    68A      0.445208
      69A      0.468933    70A      0.479935    71A      0.502590
      72A      0.518459    73A      0.591775    74A      0.604780
      75A      0.608774    76A      0.623580    77A      0.629485
      78A      0.641469    79A      0.644500    80A      0.659837
      81A      0.671265    82A      0.679082    83A      0.698503
      84A      0.708581    85A      0.719953    86A      0.725742
      87A      0.737485    88A      0.739900    89A      0.748131
      90A      0.756863    91A      0.761940    92A      0.777449
      93A      0.789283    94A      0.793691    95A      0.810496
      96A      0.848269    97A      0.860172    98A      0.871323
      99A      0.877192   100A      0.882632   101A      0.884971
     102A      0.894628   103A      0.899105   104A      0.903227
     105A      0.909776   106A      0.917809   107A      0.924846
     108A      0.931037   109A      0.941258   110A      0.948997
     111A      0.954536   112A      0.968190   113A      0.981911
     114A      0.991558   115A      1.011659   116A      1.020351
     117A      1.062460   118A      1.079112   119A      1.094342
     120A      1.128213   121A      1.131677   122A      1.133821
     123A      1.144642   124A      1.155222   125A      1.160414
     126A      1.175540   127A      1.214237   128A      1.222829
     129A      1.234789   130A      1.239253   131A      1.244359
     132A      1.277267   133A      1.283607   134A      1.287738
     135A      1.302261   136A      1.329672   137A      1.334380
     138A      1.360877   139A      1.369505   140A      1.427301
     141A      1.447805   142A      1.485476   143A      1.499293
     144A      1.526191   145A      1.547178   146A      1.562422
     147A      1.578774   148A      1.601521   149A      1.629682
     150A      1.634499   151A      1.653207   152A      1.682575
     153A      1.692276   154A      1.698824   155A      1.702714
     156A      1.740705   157A      1.753981   158A      1.760315
     159A      1.790129   160A      1.812155   161A      1.828091
     162A      1.837841   163A      1.859806   164A      1.866840
     165A      1.890456   166A      1.894274   167A      1.895516
     168A      1.903103   169A      1.905121   170A      1.916467
     171A      1.934976   172A      1.936489   173A      1.950094
     174A      1.958691   175A      1.961821   176A      1.964883
     177A      1.977236   178A      1.993850   179A      1.996746
     180A      2.004265   181A      2.013250   182A      2.026659
     183A      2.037052   184A      2.072300   185A      2.077089
     186A      2.090756   187A      2.096336   188A      2.105242
     189A      2.110589   190A      2.127669   191A      2.141579
     192A      2.146574   193A      2.172868   194A      2.177286
     195A      2.190148   196A      2.235577   197A      2.268582
     198A      2.278772   199A      2.303468   200A      2.310301
     201A      2.316571   202A      2.320673   203A      2.344567
     204A      2.351105   205A      2.397595   206A      2.407126
     207A      2.452117   208A      2.462789   209A      2.468033
     210A      2.480440   211A      2.540162   212A      2.568125
     213A      2.589723   214A      2.593454   215A      2.596832
     216A      2.626521   217A      2.665671   218A      2.682100
     219A      2.729411   220A      2.769214   221A      2.771826
     222A      2.772997   223A      2.783580   224A      2.795090
     225A      2.818419   226A      2.824241   227A      2.851021
     228A      2.852228   229A      2.855771   230A      2.869289
     231A      2.916056   232A      2.955173   233A      2.972714
     234A      2.983056   235A      3.028094   236A      3.050651
     237A      3.069307   238A      3.118391   239A      3.203726
     240A      3.296374   241A      3.377935   242A      3.739798
     243A      3.944654

    Final Occupation by Irrep:
              A
    DOCC [    44 ]

  @RHF Final Energy:  -479.76564824320229

   => Energetics <=

    Nuclear Repulsion Energy =            643.1487166566157612
    One-Electron Energy =               -1924.2600625848670006
    Two-Electron Energy =                 801.3456976850488900
    Total Energy =                       -479.7656482432023495

Computation Completed

Properties will be evaluated at   0.000000,   0.000000,   0.000000 [a0]

Properties computed using the SCF density matrix

  Nuclear Dipole Moment: [e a0]
     X:    -3.3509      Y:   -13.9717      Z:    -2.4066

  Electronic Dipole Moment: [e a0]
     X:     2.7649      Y:    14.2851      Z:     2.8530

  Dipole Moment: [e a0]
     X:    -0.5860      Y:     0.3134      Z:     0.4464     Total:     0.8006

  Dipole Moment: [D]
     X:    -1.4895      Y:     0.7965      Z:     1.1347     Total:     2.0349

*** tstop() called on ds3 at Mon Apr 27 13:21:27 2020
Module time:
	user time   =     193.80 seconds =       3.23 minutes
	system time =      92.35 seconds =       1.54 minutes
	total time  =        276 seconds =       4.60 minutes
Total time:
	user time   =     193.80 seconds =       3.23 minutes
	system time =      92.35 seconds =       1.54 minutes
	total time  =        276 seconds =       4.60 minutes
                                     G D M A

                                 by Anthony Stone

                           version 2.2.06, 22 June 2011

               Distributed Multipoles from Gaussian wavefunctions

Starting at 13:21:27 on 27 Apr 2020

Using SCF density matrix from file ./SSI/SSI-160LEU-164TRP-1-dimer.test.5978.fchk

                         Distributed Multipole Analysis

Standard DMA

Positions and radii in angstrom
Multipole moments in atomic units, ea_0^k for rank k

C          x = -1.623781  y = -3.752748  z = -1.801434 angstrom
           Maximum rank =  0   Radius =  0.650 angstrom
                   Q00  =  -0.241787

C          x = -2.010781  y = -4.639748  z = -0.634434 angstrom
           Maximum rank =  0   Radius =  0.650 angstrom
                   Q00  =  -0.223402

H          x = -0.773781  y = -3.139748  z = -1.509434 angstrom
           Maximum rank =  0   Radius =  0.325 angstrom
                   Q00  =   0.090025

H          x = -1.337781  y = -4.369748  z = -2.652434 angstrom
           Maximum rank =  0   Radius =  0.325 angstrom
                   Q00  =   0.073822

H          x = -2.459781  y = -3.116748  z = -2.091434 angstrom
           Maximum rank =  0   Radius =  0.325 angstrom
                   Q00  =   0.071702

H          x = -2.793781  y = -5.313748  z = -0.979434 angstrom
           Maximum rank =  0   Radius =  0.325 angstrom
                   Q00  =   0.072220

H          x = -2.377411  y = -4.027748  z =  0.202846 angstrom
           Maximum rank =  0   Radius =  0.325 angstrom
                   Q00  =   0.077521

H          x = -1.144921  y = -5.234848  z = -0.308654 angstrom
           Maximum rank =  0   Radius =  0.325 angstrom
                   Q00  =   0.079201

C          x =  2.185219  y =  2.407252  z =  2.173566 angstrom
           Maximum rank =  0   Radius =  0.650 angstrom
                   Q00  =  -0.219174

C          x = -0.518781  y =  0.817252  z =  0.112566 angstrom
           Maximum rank =  0   Radius =  0.650 angstrom
                   Q00  =   0.294288

C          x =  0.860219  y =  1.051252  z =  0.368566 angstrom
           Maximum rank =  0   Radius =  0.650 angstrom
                   Q00  =  -0.050167

C          x =  0.941219  y =  1.924252  z =  1.509566 angstrom
           Maximum rank =  0   Radius =  0.650 angstrom
                   Q00  =  -0.117107

C          x = -0.338781  y =  2.182252  z =  1.886566 angstrom
           Maximum rank =  0   Radius =  0.650 angstrom
                   Q00  =   0.072741

C          x =  0.002219  y = -0.584748  z = -1.735434 angstrom
           Maximum rank =  0   Radius =  0.650 angstrom
                   Q00  =  -0.070546

C          x = -0.957781  y =  0.006252  z = -0.930434 angstrom
           Maximum rank =  0   Radius =  0.650 angstrom
                   Q00  =  -0.122031

C          x =  1.371219  y = -0.374748  z = -1.507434 angstrom
           Maximum rank =  0   Radius =  0.650 angstrom
                   Q00  =  -0.089287

C          x =  1.810219  y =  0.437252  z = -0.460434 angstrom
           Maximum rank =  0   Radius =  0.650 angstrom
                   Q00  =  -0.098821

N          x = -1.216781  y =  1.523252  z =  1.057566 angstrom
           Maximum rank =  0   Radius =  0.650 angstrom
                   Q00  =  -0.498564

H          x = -0.314781  y = -1.210748  z = -2.558434 angstrom
           Maximum rank =  0   Radius =  0.325 angstrom
                   Q00  =   0.069118

H          x = -2.012781  y = -0.157748  z = -1.100434 angstrom
           Maximum rank =  0   Radius =  0.325 angstrom
                   Q00  =   0.073023

H          x =  2.099219  y = -0.860748  z = -2.141434 angstrom
           Maximum rank =  0   Radius =  0.325 angstrom
                   Q00  =   0.060656

H          x =  2.865219  y =  0.568252  z = -0.271434 angstrom
           Maximum rank =  0   Radius =  0.325 angstrom
                   Q00  =   0.070594

H          x = -2.225781  y =  1.548252  z =  1.159566 angstrom
           Maximum rank =  0   Radius =  0.325 angstrom
                   Q00  =   0.215807

H          x = -0.625781  y =  2.805252  z =  2.728566 angstrom
           Maximum rank =  0   Radius =  0.325 angstrom
                   Q00  =   0.098838

H          x =  2.096219  y =  3.474252  z =  2.381566 angstrom
           Maximum rank =  0   Radius =  0.325 angstrom
                   Q00  =   0.104526

H          x =  3.013219  y =  2.276252  z =  1.476566 angstrom
           Maximum rank =  0   Radius =  0.325 angstrom
                   Q00  =   0.105850

H          x =  2.414529  y =  1.860652  z =  3.100196 angstrom
           Maximum rank =  0   Radius =  0.325 angstrom
                   Q00  =   0.100956

Total multipoles referred to origin at
           x =   0.000000,  y =    0.000000,  z =    0.000000 angstrom
                   Q00  =  -0.000000

Finished at 13:21:27 on 27 Apr 2020

  DMA results are available in the Python driver through the
	  variable('DMA DISTRIBUTED MULTIPOLES')
  and
	  variable('DMA TOTAL MULTIPOLES')
  commands.

    Psi4 stopped on: Monday, 27 April 2020 01:21PM
    Psi4 wall time for execution: 0:04:35.78

*** Psi4 exiting successfully. Buy a developer a beer!
