                               Psi4 1.3.2 release

  ==> Input File <==

--------------------------------------------------------------------------
import numpy as np
set {scf_type pk
basis cc-pvdz
d_convergence 10
gdma_switch   0
gdma_limit    0
gdma_origin   [ 0.0,  0.0,  0.0 ]
}
molecule test {
    units Angstrom
    0 1
    --
    0 1
    C                0.728167966082334    -1.825480396727934    -2.006137917220853
    C               -0.078832033917666    -2.667480396727934    -3.045137917220853
    H                1.495167966082335    -1.231480396727934    -2.501137917220853
    H                0.045167966082334    -1.155480396727934    -1.487137917220853
    H                1.176167966082335    -2.502480396727934    -1.280137917220853
    H               -0.514832033917666    -1.953480396727934    -3.742137917220854
    H               -0.891832033917666    -3.153480396727935    -2.504137917220853
    H                0.499236966082334    -3.429710396727935    -3.588127917220853
    C                0.328167966082334     2.024519603272066    -1.248137917220853
    C                0.063167966082334     1.234519603272066     0.034862082779147
    C                1.112167966082335     0.949519603272066     0.932862082779147
    C               -1.245832033917665     0.801519603272066     0.345862082779147
    C                0.867167966082334     0.179519603272066     2.093862082779147
    C               -1.482832033917665     0.020519603272066     1.496862082779147
    C               -0.429832033917666    -0.234480396727934     2.378862082779146
    H               -0.346832033917666     1.639519603272066    -2.006137917220853
    H                1.342167966082335     1.806519603272066    -1.587137917220853
    H                2.113167966082335     1.285519603272066     0.709862082779147
    H               -2.062832033917665     1.022519603272066    -0.326137917220853
    H                1.675167966082334    -0.051480396727934     2.774862082779147
    H               -2.477832033917666    -0.336480396727934     1.710862082779147
    H               -0.615832033917666    -0.802480396727934     3.278862082779147
    H                0.212703966082334     3.115329603272066    -1.165663917220853

}
e, wfn = energy('scf', return_wfn=True)
gdma(wfn)
dmavals = variable('DMA DISTRIBUTED MULTIPOLES')
charges = np.array(dmavals)
print(charges)
np.save('SSI-021ILE-041PHE-1-dimer.npy', np.array(charges))--------------------------------------------------------------------------

*** tstart() called on ds3
*** at Mon Apr 27 18:12:59 2020

   => Loading Basis Set <=

    Name: CC-PVDZ
    Role: ORBITAL
    Keyword: BASIS
    atoms 1-2, 9-15  entry C          line   138 file /theoryfs2/ds/metcalf/miniconda2/envs/tf2gpu/share/psi4/basis/cc-pvdz.gbs
    atoms 3-8, 16-23 entry H          line    22 file /theoryfs2/ds/metcalf/miniconda2/envs/tf2gpu/share/psi4/basis/cc-pvdz.gbs

         ---------------------------------------------------------
                                   SCF
               by Justin Turney, Rob Parrish, Andy Simmonett
                          and Daniel G. A. Smith
                              RHF Reference
                        1 Threads,    500 MiB Core
         ---------------------------------------------------------

  ==> Geometry <==

    Molecular point group: c1
    Full point group: C1

    Geometry (in Angstrom), charge = 0, multiplicity = 1:

       Center              X                  Y                   Z               Mass
    ------------   -----------------  -----------------  -----------------  -----------------
         C            0.728167966082    -1.825480396728    -2.006137917221    12.000000000000
         C           -0.078832033918    -2.667480396728    -3.045137917221    12.000000000000
         H            1.495167966082    -1.231480396728    -2.501137917221     1.007825032230
         H            0.045167966082    -1.155480396728    -1.487137917221     1.007825032230
         H            1.176167966082    -2.502480396728    -1.280137917221     1.007825032230
         H           -0.514832033918    -1.953480396728    -3.742137917221     1.007825032230
         H           -0.891832033918    -3.153480396728    -2.504137917221     1.007825032230
         H            0.499236966082    -3.429710396728    -3.588127917221     1.007825032230
         C            0.328167966082     2.024519603272    -1.248137917221    12.000000000000
         C            0.063167966082     1.234519603272     0.034862082779    12.000000000000
         C            1.112167966082     0.949519603272     0.932862082779    12.000000000000
         C           -1.245832033918     0.801519603272     0.345862082779    12.000000000000
         C            0.867167966082     0.179519603272     2.093862082779    12.000000000000
         C           -1.482832033918     0.020519603272     1.496862082779    12.000000000000
         C           -0.429832033918    -0.234480396728     2.378862082779    12.000000000000
         H           -0.346832033918     1.639519603272    -2.006137917221     1.007825032230
         H            1.342167966082     1.806519603272    -1.587137917221     1.007825032230
         H            2.113167966082     1.285519603272     0.709862082779     1.007825032230
         H           -2.062832033918     1.022519603272    -0.326137917221     1.007825032230
         H            1.675167966082    -0.051480396728     2.774862082779     1.007825032230
         H           -2.477832033918    -0.336480396728     1.710862082779     1.007825032230
         H           -0.615832033918    -0.802480396728     3.278862082779     1.007825032230
         H            0.212703966082     3.115329603272    -1.165663917221     1.007825032230

  Running in c1 symmetry.

  Rotational constants: A =      0.06081  B =      0.02798  C =      0.02464 [cm^-1]
  Rotational constants: A =   1822.95508  B =    838.85088  C =    738.76748 [MHz]
  Nuclear repulsion =  409.568613196716683

  Charge       = 0
  Multiplicity = 1
  Electrons    = 68
  Nalpha       = 34
  Nbeta        = 34

  ==> Algorithm <==

  SCF Algorithm Type is PK.
  DIIS enabled.
  MOM disabled.
  Fractional occupation disabled.
  Guess Type is SAD.
  Energy threshold   = 1.00e-06
  Density threshold  = 1.00e-10
  Integral threshold = 0.00e+00

  ==> Primary Basis <==

  Basis Set: CC-PVDZ
    Blend: CC-PVDZ
    Number of shells: 96
    Number of basis function: 196
    Number of Cartesian functions: 205
    Spherical Harmonics?: true
    Max angular momentum: 2

  ==> Pre-Iterations <==

   -------------------------------------------------------
    Irrep   Nso     Nmo     Nalpha   Nbeta   Ndocc  Nsocc
   -------------------------------------------------------
     A        196     196       0       0       0       0
   -------------------------------------------------------
    Total     196     196      34      34      34       0
   -------------------------------------------------------

  ==> Integral Setup <==

  Using integral reordering PK algorithm.
  Sizing the integral batches needed.
  Building batch lookup table.
   Calculation information:
      Number of atoms:                  23
      Number of AO shells:              96
      Number of primitives:            268
      Number of atomic orbitals:       205
      Number of basis functions:       196

      Integral cutoff                 1.00e-12
      Number of threads:                 1

	Batch   1 pq = [       0,    9405] index = [             0,44231715] size =     44231715
	Batch   2 pq = [    9405,   13301] index = [      44231715,88464951] size =     44233236
	Batch   3 pq = [   13301,   16290] index = [      88464951,132690195] size =     44225244
	Batch   4 pq = [   16290,   18810] index = [     132690195,176917455] size =     44227260
	Batch   5 pq = [   18810,   19306] index = [     176917455,186370471] size =      9453016
  Task number: 17
  Buffer size: 11059200
  Buffer per thread: 2
  We computed 9946219 shell quartets total.
  Whereas there are 10841496 unique shell quartets.

  ==> DiskJK: Disk-Based J/K Matrices <==

    J tasked:                  Yes
    K tasked:                  Yes
    wK tasked:                  No
    Memory [MiB]:              375
    Schwarz Cutoff:          1E-12

    OpenMP threads:              1

  Minimum eigenvalue in the overlap matrix is 3.6234144181E-04.
  Using Symmetric Orthogonalization.

  SCF Guess: Superposition of Atomic Densities via on-the-fly atomic UHF.

  ==> Iterations <==

                        Total Energy        Delta E     RMS |[F,P]|

   @RHF iter SAD:  -347.64008170200117   -3.47640e+02   0.00000e+00
   @RHF iter   1:  -348.77184658999772   -1.13176e+00   2.82277e-03 DIIS
   @RHF iter   2:  -348.95796968027253   -1.86123e-01   1.14318e-03 DIIS
   @RHF iter   3:  -348.98560331580393   -2.76336e-02   2.51114e-04 DIIS
   @RHF iter   4:  -348.98798762449218   -2.38431e-03   4.44033e-05 DIIS
   @RHF iter   5:  -348.98804482321339   -5.71987e-05   1.38623e-05 DIIS
   @RHF iter   6:  -348.98805010163392   -5.27842e-06   2.85825e-06 DIIS
   @RHF iter   7:  -348.98805038493839   -2.83304e-07   1.26372e-06 DIIS
   @RHF iter   8:  -348.98805043385585   -4.89175e-08   3.50821e-07 DIIS
   @RHF iter   9:  -348.98805044354020   -9.68436e-09   1.71807e-07 DIIS
   @RHF iter  10:  -348.98805044612169   -2.58149e-09   7.93531e-08 DIIS
   @RHF iter  11:  -348.98805044698537   -8.63679e-10   2.75292e-08 DIIS
   @RHF iter  12:  -348.98805044708001   -9.46443e-11   1.07703e-08 DIIS
   @RHF iter  13:  -348.98805044708968   -9.66338e-12   3.73652e-09 DIIS
   @RHF iter  14:  -348.98805044708865    1.02318e-12   9.93623e-10 DIIS
   @RHF iter  15:  -348.98805044708843    2.27374e-13   5.23320e-10 DIIS
   @RHF iter  16:  -348.98805044708951   -1.08002e-12   2.52034e-10 DIIS
   @RHF iter  17:  -348.98805044708922    2.84217e-13   9.46524e-11 DIIS
  Energy and wave function converged.

  ==> Post-Iterations <==

    Orbital Energies [Eh]
    ---------------------

    Doubly Occupied:

       1A    -11.247438     2A    -11.239836     3A    -11.239530
       4A    -11.236669     5A    -11.236261     6A    -11.233295
       7A    -11.231702     8A    -11.215124     9A    -11.210513
      10A     -1.144436    11A     -1.039601    12A     -1.006932
      13A     -1.004792    14A     -0.929570    15A     -0.832924
      16A     -0.824851    17A     -0.792496    18A     -0.688620
      19A     -0.633876    20A     -0.625721    21A     -0.591931
      22A     -0.588474    23A     -0.582624    24A     -0.575005
      25A     -0.557767    26A     -0.536018    27A     -0.494948
      28A     -0.487587    29A     -0.484938    30A     -0.479511
      31A     -0.476683    32A     -0.475509    33A     -0.329014
      34A     -0.321547

    Virtual:

      35A      0.129880    36A      0.138147    37A      0.173323
      38A      0.194254    39A      0.205923    40A      0.217395
      41A      0.240671    42A      0.243685    43A      0.253712
      44A      0.257486    45A      0.268028    46A      0.269563
      47A      0.275903    48A      0.296038    49A      0.304709
      50A      0.322794    51A      0.359384    52A      0.370110
      53A      0.390020    54A      0.448205    55A      0.457659
      56A      0.473016    57A      0.484827    58A      0.558343
      59A      0.584343    60A      0.591219    61A      0.599509
      62A      0.607227    63A      0.633786    64A      0.663778
      65A      0.681736    66A      0.682670    67A      0.700079
      68A      0.722289    69A      0.732303    70A      0.737530
      71A      0.741070    72A      0.743958    73A      0.754051
      74A      0.765695    75A      0.774366    76A      0.805825
      77A      0.827146    78A      0.858091    79A      0.862593
      80A      0.866621    81A      0.873811    82A      0.884318
      83A      0.892006    84A      0.895363    85A      0.896699
      86A      0.905156    87A      0.907515    88A      0.915880
      89A      0.932148    90A      0.942470    91A      0.956693
      92A      0.973103    93A      0.982416    94A      0.999826
      95A      1.025837    96A      1.088053    97A      1.113256
      98A      1.127768    99A      1.134348   100A      1.136970
     101A      1.150885   102A      1.162635   103A      1.184365
     104A      1.224884   105A      1.233419   106A      1.239679
     107A      1.247699   108A      1.281579   109A      1.291632
     110A      1.309119   111A      1.318838   112A      1.328031
     113A      1.411401   114A      1.452097   115A      1.490606
     116A      1.502083   117A      1.508428   118A      1.546249
     119A      1.593385   120A      1.603114   121A      1.674272
     122A      1.688821   123A      1.699451   124A      1.703274
     125A      1.730366   126A      1.744985   127A      1.752622
     128A      1.777063   129A      1.800973   130A      1.850274
     131A      1.853906   132A      1.859536   133A      1.869084
     134A      1.876966   135A      1.897048   136A      1.905135
     137A      1.919742   138A      1.930117   139A      1.931140
     140A      1.944252   141A      1.947475   142A      1.951877
     143A      1.954766   144A      1.967979   145A      1.973563
     146A      1.983984   147A      1.993977   148A      1.999018
     149A      2.037918   150A      2.047340   151A      2.065867
     152A      2.088531   153A      2.110575   154A      2.134036
     155A      2.138418   156A      2.147793   157A      2.154809
     158A      2.162944   159A      2.166402   160A      2.236022
     161A      2.266192   162A      2.280792   163A      2.291035
     164A      2.295834   165A      2.301189   166A      2.314020
     167A      2.321533   168A      2.443790   169A      2.458353
     170A      2.468968   171A      2.478233   172A      2.483810
     173A      2.529172   174A      2.558495   175A      2.595124
     176A      2.601428   177A      2.733748   178A      2.740436
     179A      2.766587   180A      2.777352   181A      2.778066
     182A      2.796358   183A      2.815412   184A      2.836291
     185A      2.849238   186A      2.867324   187A      2.873040
     188A      2.949986   189A      2.957119   190A      2.970228
     191A      2.980950   192A      2.992936   193A      3.119590
     194A      3.166921   195A      3.269032   196A      3.911019

    Final Occupation by Irrep:
              A
    DOCC [    34 ]

  @RHF Final Energy:  -348.98805044708922

   => Energetics <=

    Nuclear Repulsion Energy =            409.5686131967166830
    One-Electron Energy =               -1281.9218368889264639
    Two-Electron Energy =                 523.3651732451205589
    Total Energy =                       -348.9880504470892220

Computation Completed

Properties will be evaluated at   0.000000,   0.000000,   0.000000 [a0]

Properties computed using the SCF density matrix

  Nuclear Dipole Moment: [e a0]
     X:     1.5458      Y:    -5.3878      Z:   -10.9810

  Electronic Dipole Moment: [e a0]
     X:    -1.5347      Y:     5.4857      Z:    10.9541

  Dipole Moment: [e a0]
     X:     0.0112      Y:     0.0979      Z:    -0.0269     Total:     0.1022

  Dipole Moment: [D]
     X:     0.0284      Y:     0.2488      Z:    -0.0684     Total:     0.2596

*** tstop() called on ds3 at Mon Apr 27 18:15:44 2020
Module time:
	user time   =      67.88 seconds =       1.13 minutes
	system time =      24.60 seconds =       0.41 minutes
	total time  =        165 seconds =       2.75 minutes
Total time:
	user time   =      67.88 seconds =       1.13 minutes
	system time =      24.60 seconds =       0.41 minutes
	total time  =        165 seconds =       2.75 minutes
                                     G D M A

                                 by Anthony Stone

                           version 2.2.06, 22 June 2011

               Distributed Multipoles from Gaussian wavefunctions

Starting at 18:15:44 on 27 Apr 2020

Using SCF density matrix from file ./SSI/SSI-021ILE-041PHE-1-dimer.test.19019.fchk

                         Distributed Multipole Analysis

Standard DMA

Positions and radii in angstrom
Multipole moments in atomic units, ea_0^k for rank k

C          x =  0.728168  y = -1.825480  z = -2.006138 angstrom
           Maximum rank =  0   Radius =  0.650 angstrom
                   Q00  =  -0.239862

C          x = -0.078832  y = -2.667480  z = -3.045138 angstrom
           Maximum rank =  0   Radius =  0.650 angstrom
                   Q00  =  -0.250199

H          x =  1.495168  y = -1.231480  z = -2.501138 angstrom
           Maximum rank =  0   Radius =  0.325 angstrom
                   Q00  =   0.074964

H          x =  0.045168  y = -1.155480  z = -1.487138 angstrom
           Maximum rank =  0   Radius =  0.325 angstrom
                   Q00  =   0.096293

H          x =  1.176168  y = -2.502480  z = -1.280138 angstrom
           Maximum rank =  0   Radius =  0.325 angstrom
                   Q00  =   0.080738

H          x = -0.514832  y = -1.953480  z = -3.742138 angstrom
           Maximum rank =  0   Radius =  0.325 angstrom
                   Q00  =   0.074240

H          x = -0.891832  y = -3.153480  z = -2.504138 angstrom
           Maximum rank =  0   Radius =  0.325 angstrom
                   Q00  =   0.078412

H          x =  0.499237  y = -3.429710  z = -3.588128 angstrom
           Maximum rank =  0   Radius =  0.325 angstrom
                   Q00  =   0.084015

C          x =  0.328168  y =  2.024520  z = -1.248138 angstrom
           Maximum rank =  0   Radius =  0.650 angstrom
                   Q00  =  -0.200916

C          x =  0.063168  y =  1.234520  z =  0.034862 angstrom
           Maximum rank =  0   Radius =  0.650 angstrom
                   Q00  =  -0.113391

C          x =  1.112168  y =  0.949520  z =  0.932862 angstrom
           Maximum rank =  0   Radius =  0.650 angstrom
                   Q00  =  -0.051568

C          x = -1.245832  y =  0.801520  z =  0.345862 angstrom
           Maximum rank =  0   Radius =  0.650 angstrom
                   Q00  =  -0.096178

C          x =  0.867168  y =  0.179520  z =  2.093862 angstrom
           Maximum rank =  0   Radius =  0.650 angstrom
                   Q00  =  -0.069844

C          x = -1.482832  y =  0.020520  z =  1.496862 angstrom
           Maximum rank =  0   Radius =  0.650 angstrom
                   Q00  =  -0.069366

C          x = -0.429832  y = -0.234480  z =  2.378862 angstrom
           Maximum rank =  0   Radius =  0.650 angstrom
                   Q00  =  -0.027103

H          x = -0.346832  y =  1.639520  z = -2.006138 angstrom
           Maximum rank =  0   Radius =  0.325 angstrom
                   Q00  =   0.098791

H          x =  1.342168  y =  1.806520  z = -1.587138 angstrom
           Maximum rank =  0   Radius =  0.325 angstrom
                   Q00  =   0.099734

H          x =  2.113168  y =  1.285520  z =  0.709862 angstrom
           Maximum rank =  0   Radius =  0.325 angstrom
                   Q00  =   0.063109

H          x = -2.062832  y =  1.022520  z = -0.326138 angstrom
           Maximum rank =  0   Radius =  0.325 angstrom
                   Q00  =   0.061706

H          x =  1.675168  y = -0.051480  z =  2.774862 angstrom
           Maximum rank =  0   Radius =  0.325 angstrom
                   Q00  =   0.068925

H          x = -2.477832  y = -0.336480  z =  1.710862 angstrom
           Maximum rank =  0   Radius =  0.325 angstrom
                   Q00  =   0.069186

H          x = -0.615832  y = -0.802480  z =  3.278862 angstrom
           Maximum rank =  0   Radius =  0.325 angstrom
                   Q00  =   0.061094

H          x =  0.212704  y =  3.115330  z = -1.165664 angstrom
           Maximum rank =  0   Radius =  0.325 angstrom
                   Q00  =   0.107220

Total multipoles referred to origin at
           x =   0.000000,  y =    0.000000,  z =    0.000000 angstrom
                   Q00  =  -0.000000

Finished at 18:15:44 on 27 Apr 2020

  DMA results are available in the Python driver through the
	  variable('DMA DISTRIBUTED MULTIPOLES')
  and
	  variable('DMA TOTAL MULTIPOLES')
  commands.

    Psi4 stopped on: Monday, 27 April 2020 06:15PM
    Psi4 wall time for execution: 0:02:45.32

*** Psi4 exiting successfully. Buy a developer a beer!
