                               Psi4 1.3.2 release

  ==> Input File <==

--------------------------------------------------------------------------
import numpy as np
set {scf_type pk
basis cc-pvdz
d_convergence 10
gdma_switch   0
gdma_limit    0
gdma_origin   [ 0.0,  0.0,  0.0 ]
}
molecule test {
    units Angstrom
    0 1
    --
    0 1
    C               -0.606959150966963     3.955906067583668     0.487181156951592
    C                0.687040849033037     0.464906067583667    -0.008818843048408
    C               -0.172959150966963     1.367906067583667     0.683181156951592
    C                0.070040849033037     2.675906067583667     0.139181156951592
    C                1.027040849033037     2.514906067583667    -0.809818843048408
    C                0.709040849033037    -0.902093932416333     0.251181156951592
    C               -0.134959150966963    -1.374093932416333     1.243181156951592
    C               -1.001959150966963    -0.499093932416333     1.928181156951592
    C               -1.031959150966963     0.866906067583667     1.664181156951592
    N                1.416040849033037     1.199906067583667    -0.908818843048408
    H                1.362040849033037    -1.564093932416333    -0.295818843048408
    H               -0.146959150966963    -2.428093932416333     1.466181156951592
    H                1.987040849033037     0.803906067583667    -1.650818843048408
    H               -1.664959150966963    -0.907093932416333     2.662181156951592
    H                1.387040849033037     3.317906067583667    -1.439818843048408
    H               -1.739959150966963     1.516906067583667     2.144181156951592
    H               -1.634959150966963     3.713906067583668     0.758181156951592
    H               -0.677959150966963     4.544906067583668    -0.428818843048408
    H               -0.190529150966963     4.608335067583668     1.268801156951592
    C               -0.001959150966963    -4.037093932416332    -1.761818843048408
    C               -0.869959150966963    -5.237093932416332    -2.149818843048408
    H               -0.278959150966963    -3.678093932416333    -0.770818843048408
    H                1.047040849033037    -4.320093932416333    -1.758818843048408
    H               -0.130959150966963    -3.231093932416333    -2.483818843048407
    H               -0.764959150966963    -5.990093932416333    -1.367818843048408
    H               -1.930081150966963    -4.955487932416332    -2.232518843048408
    H               -0.490929150966963    -5.686152932416332    -3.079698843048408

}
e, wfn = energy('scf', return_wfn=True)
gdma(wfn)
dmavals = variable('DMA DISTRIBUTED MULTIPOLES')
charges = np.array(dmavals)
print(charges)
np.save('SSI-032TRP-074VAL-1-dimer.npy', np.array(charges))--------------------------------------------------------------------------

*** tstart() called on ds3
*** at Tue Apr 28 05:36:41 2020

   => Loading Basis Set <=

    Name: CC-PVDZ
    Role: ORBITAL
    Keyword: BASIS
    atoms 1-9, 20-21   entry C          line   138 file /theoryfs2/ds/metcalf/miniconda2/envs/tf2gpu/share/psi4/basis/cc-pvdz.gbs
    atoms 10           entry N          line   168 file /theoryfs2/ds/metcalf/miniconda2/envs/tf2gpu/share/psi4/basis/cc-pvdz.gbs
    atoms 11-19, 22-27 entry H          line    22 file /theoryfs2/ds/metcalf/miniconda2/envs/tf2gpu/share/psi4/basis/cc-pvdz.gbs

         ---------------------------------------------------------
                                   SCF
               by Justin Turney, Rob Parrish, Andy Simmonett
                          and Daniel G. A. Smith
                              RHF Reference
                        1 Threads,    500 MiB Core
         ---------------------------------------------------------

  ==> Geometry <==

    Molecular point group: c1
    Full point group: C1

    Geometry (in Angstrom), charge = 0, multiplicity = 1:

       Center              X                  Y                   Z               Mass
    ------------   -----------------  -----------------  -----------------  -----------------
         C           -0.606959150967     3.955906067584     0.487181156952    12.000000000000
         C            0.687040849033     0.464906067584    -0.008818843048    12.000000000000
         C           -0.172959150967     1.367906067584     0.683181156952    12.000000000000
         C            0.070040849033     2.675906067584     0.139181156952    12.000000000000
         C            1.027040849033     2.514906067584    -0.809818843048    12.000000000000
         C            0.709040849033    -0.902093932416     0.251181156952    12.000000000000
         C           -0.134959150967    -1.374093932416     1.243181156952    12.000000000000
         C           -1.001959150967    -0.499093932416     1.928181156952    12.000000000000
         C           -1.031959150967     0.866906067584     1.664181156952    12.000000000000
         N            1.416040849033     1.199906067584    -0.908818843048    14.003074004430
         H            1.362040849033    -1.564093932416    -0.295818843048     1.007825032230
         H           -0.146959150967    -2.428093932416     1.466181156952     1.007825032230
         H            1.987040849033     0.803906067584    -1.650818843048     1.007825032230
         H           -1.664959150967    -0.907093932416     2.662181156952     1.007825032230
         H            1.387040849033     3.317906067584    -1.439818843048     1.007825032230
         H           -1.739959150967     1.516906067584     2.144181156952     1.007825032230
         H           -1.634959150967     3.713906067584     0.758181156952     1.007825032230
         H           -0.677959150967     4.544906067584    -0.428818843048     1.007825032230
         H           -0.190529150967     4.608335067584     1.268801156952     1.007825032230
         C           -0.001959150967    -4.037093932416    -1.761818843048    12.000000000000
         C           -0.869959150967    -5.237093932416    -2.149818843048    12.000000000000
         H           -0.278959150967    -3.678093932416    -0.770818843048     1.007825032230
         H            1.047040849033    -4.320093932416    -1.758818843048     1.007825032230
         H           -0.130959150967    -3.231093932416    -2.483818843048     1.007825032230
         H           -0.764959150967    -5.990093932416    -1.367818843048     1.007825032230
         H           -1.930081150967    -4.955487932416    -2.232518843048     1.007825032230
         H           -0.490929150967    -5.686152932416    -3.079698843048     1.007825032230

  Running in c1 symmetry.

  Rotational constants: A =      0.05448  B =      0.01285  C =      0.01125 [cm^-1]
  Rotational constants: A =   1633.35978  B =    385.31576  C =    337.36681 [MHz]
  Nuclear repulsion =  637.059071212308822

  Charge       = 0
  Multiplicity = 1
  Electrons    = 88
  Nalpha       = 44
  Nbeta        = 44

  ==> Algorithm <==

  SCF Algorithm Type is PK.
  DIIS enabled.
  MOM disabled.
  Fractional occupation disabled.
  Guess Type is SAD.
  Energy threshold   = 1.00e-06
  Density threshold  = 1.00e-10
  Integral threshold = 0.00e+00

  ==> Primary Basis <==

  Basis Set: CC-PVDZ
    Blend: CC-PVDZ
    Number of shells: 117
    Number of basis function: 243
    Number of Cartesian functions: 255
    Spherical Harmonics?: true
    Max angular momentum: 2

  ==> Pre-Iterations <==

   -------------------------------------------------------
    Irrep   Nso     Nmo     Nalpha   Nbeta   Ndocc  Nsocc
   -------------------------------------------------------
     A        243     243       0       0       0       0
   -------------------------------------------------------
    Total     243     243      44      44      44       0
   -------------------------------------------------------

  ==> Integral Setup <==

  Using integral reordering PK algorithm.
  Sizing the integral batches needed.
  Building batch lookup table.
   Calculation information:
      Number of atoms:                  27
      Number of AO shells:             117
      Number of primitives:            339
      Number of atomic orbitals:       255
      Number of basis functions:       243

      Integral cutoff                 1.00e-12
      Number of threads:                 1

	Batch   1 pq = [       0,    9405] index = [             0,44231715] size =     44231715
	Batch   2 pq = [    9405,   13301] index = [      44231715,88464951] size =     44233236
	Batch   3 pq = [   13301,   16290] index = [      88464951,132690195] size =     44225244
	Batch   4 pq = [   16290,   18810] index = [     132690195,176917455] size =     44227260
	Batch   5 pq = [   18810,   21030] index = [     176917455,221140965] size =     44223510
	Batch   6 pq = [   21030,   23037] index = [     221140965,265363203] size =     44222238
	Batch   7 pq = [   23037,   24883] index = [     265363203,309594286] size =     44231083
	Batch   8 pq = [   24883,   26601] index = [     309594286,353819901] size =     44225615
	Batch   9 pq = [   26601,   28214] index = [     353819901,398029005] size =     44209104
	Batch  10 pq = [   28214,   29646] index = [     398029005,439457481] size =     41428476
  Task number: 40
  Buffer size: 11059200
  Buffer per thread: 2
  We computed 18397059 shell quartets total.
  Whereas there are 23829156 unique shell quartets.

  ==> DiskJK: Disk-Based J/K Matrices <==

    J tasked:                  Yes
    K tasked:                  Yes
    wK tasked:                  No
    Memory [MiB]:              375
    Schwarz Cutoff:          1E-12

    OpenMP threads:              1

  Minimum eigenvalue in the overlap matrix is 2.4226112550E-04.
  Using Symmetric Orthogonalization.

  SCF Guess: Superposition of Atomic Densities via on-the-fly atomic UHF.

  ==> Iterations <==

                        Total Energy        Delta E     RMS |[F,P]|

   @RHF iter SAD:  -479.03617714409182   -4.79036e+02   0.00000e+00
   @RHF iter   1:  -479.48645594381833   -4.50279e-01   2.60478e-03 DIIS
   @RHF iter   2:  -479.71877409273884   -2.32318e-01   1.15885e-03 DIIS
   @RHF iter   3:  -479.76065801480019   -4.18839e-02   3.05440e-04 DIIS
   @RHF iter   4:  -479.76448989706466   -3.83188e-03   1.41669e-04 DIIS
   @RHF iter   5:  -479.76516178531426   -6.71888e-04   1.99445e-05 DIIS
   @RHF iter   6:  -479.76519038082381   -2.85955e-05   8.92085e-06 DIIS
   @RHF iter   7:  -479.76519585334523   -5.47252e-06   3.62349e-06 DIIS
   @RHF iter   8:  -479.76519728720677   -1.43386e-06   1.36542e-06 DIIS
   @RHF iter   9:  -479.76519754995070   -2.62744e-07   6.00927e-07 DIIS
   @RHF iter  10:  -479.76519760110097   -5.11503e-08   2.78815e-07 DIIS
   @RHF iter  11:  -479.76519761484485   -1.37439e-08   1.12059e-07 DIIS
   @RHF iter  12:  -479.76519761717191   -2.32706e-09   3.87216e-08 DIIS
   @RHF iter  13:  -479.76519761734880   -1.76897e-10   1.12235e-08 DIIS
   @RHF iter  14:  -479.76519761736017   -1.13687e-11   4.88042e-09 DIIS
   @RHF iter  15:  -479.76519761736165   -1.47793e-12   2.28547e-09 DIIS
   @RHF iter  16:  -479.76519761736932   -7.67386e-12   9.79956e-10 DIIS
   @RHF iter  17:  -479.76519761737069   -1.36424e-12   4.29575e-10 DIIS
   @RHF iter  18:  -479.76519761736483    5.85487e-12   1.64697e-10 DIIS
   @RHF iter  19:  -479.76519761736603   -1.19371e-12   5.67932e-11 DIIS
  Energy and wave function converged.

  ==> Post-Iterations <==

    Orbital Energies [Eh]
    ---------------------

    Doubly Occupied:

       1A    -15.601229     2A    -11.263157     3A    -11.262552
       4A    -11.229789     5A    -11.229119     6A    -11.228345
       7A    -11.225926     8A    -11.221308     9A    -11.220275
      10A    -11.219029    11A    -11.216923    12A    -11.215857
      13A     -1.294231    14A     -1.126717    15A     -1.075133
      16A     -1.017330    17A     -0.997803    18A     -0.985524
      19A     -0.931833    20A     -0.838420    21A     -0.836161
      22A     -0.804087    23A     -0.753751    24A     -0.720630
      25A     -0.663024    26A     -0.641071    27A     -0.605743
      28A     -0.598805    29A     -0.595039    30A     -0.594285
      31A     -0.587470    32A     -0.565147    33A     -0.553448
      34A     -0.536925    35A     -0.525315    36A     -0.499682
      37A     -0.492358    38A     -0.488609    39A     -0.482359
      40A     -0.472315    41A     -0.459931    42A     -0.373700
      43A     -0.293347    44A     -0.275191

    Virtual:

      45A      0.126165    46A      0.165866    47A      0.176331
      48A      0.184735    49A      0.190665    50A      0.206068
      51A      0.217366    52A      0.224795    53A      0.231059
      54A      0.247633    55A      0.255214    56A      0.261388
      57A      0.273165    58A      0.281800    59A      0.289835
      60A      0.295030    61A      0.304002    62A      0.340682
      63A      0.375478    64A      0.378342    65A      0.404594
      66A      0.409656    67A      0.428804    68A      0.450314
      69A      0.474154    70A      0.483973    71A      0.507219
      72A      0.514781    73A      0.592722    74A      0.595816
      75A      0.599207    76A      0.614668    77A      0.626594
      78A      0.638800    79A      0.645907    80A      0.664714
      81A      0.677234    82A      0.679536    83A      0.695156
      84A      0.715503    85A      0.720927    86A      0.724395
      87A      0.739934    88A      0.740958    89A      0.744977
      90A      0.762250    91A      0.763792    92A      0.780786
      93A      0.791610    94A      0.796382    95A      0.800959
      96A      0.831979    97A      0.851167    98A      0.867560
      99A      0.879142   100A      0.884797   101A      0.889289
     102A      0.894601   103A      0.895773   104A      0.897476
     105A      0.906808   106A      0.916069   107A      0.919656
     108A      0.927805   109A      0.940558   110A      0.950183
     111A      0.956397   112A      0.964808   113A      0.980685
     114A      0.992219   115A      1.013588   116A      1.016250
     117A      1.066997   118A      1.070847   119A      1.089210
     120A      1.120497   121A      1.123245   122A      1.131923
     123A      1.141108   124A      1.145737   125A      1.155917
     126A      1.174949   127A      1.207376   128A      1.224659
     129A      1.230887   130A      1.239873   131A      1.247664
     132A      1.259860   133A      1.273783   134A      1.297743
     135A      1.316785   136A      1.325618   137A      1.335410
     138A      1.357242   139A      1.371756   140A      1.420572
     141A      1.445624   142A      1.474109   143A      1.483029
     144A      1.500189   145A      1.538828   146A      1.575536
     147A      1.589725   148A      1.606214   149A      1.623544
     150A      1.641461   151A      1.664122   152A      1.679825
     153A      1.691843   154A      1.695632   155A      1.707665
     156A      1.734916   157A      1.762395   158A      1.765457
     159A      1.788618   160A      1.810254   161A      1.816799
     162A      1.839300   163A      1.860746   164A      1.871061
     165A      1.882990   166A      1.890101   167A      1.900057
     168A      1.905463   169A      1.914057   170A      1.923282
     171A      1.928959   172A      1.937272   173A      1.945959
     174A      1.949970   175A      1.954479   176A      1.960312
     177A      1.965309   178A      1.976885   179A      1.990092
     180A      1.999674   181A      2.009018   182A      2.014799
     183A      2.042384   184A      2.069996   185A      2.083016
     186A      2.089672   187A      2.103568   188A      2.105828
     189A      2.112843   190A      2.123696   191A      2.124925
     192A      2.150580   193A      2.168578   194A      2.180667
     195A      2.189166   196A      2.231579   197A      2.261411
     198A      2.291634   199A      2.301437   200A      2.310533
     201A      2.322092   202A      2.324395   203A      2.343348
     204A      2.366564   205A      2.387938   206A      2.411644
     207A      2.444216   208A      2.453535   209A      2.471835
     210A      2.475029   211A      2.527076   212A      2.561178
     213A      2.574746   214A      2.593133   215A      2.608974
     216A      2.616980   217A      2.662723   218A      2.682520
     219A      2.727747   220A      2.762359   221A      2.765827
     222A      2.778487   223A      2.790446   224A      2.792399
     225A      2.813664   226A      2.838038   227A      2.841628
     228A      2.867073   229A      2.867996   230A      2.902105
     231A      2.925438   232A      2.949964   233A      2.964843
     234A      2.980731   235A      3.024467   236A      3.048391
     237A      3.074668   238A      3.118038   239A      3.211559
     240A      3.311078   241A      3.368562   242A      3.733702
     243A      3.949454

    Final Occupation by Irrep:
              A
    DOCC [    44 ]

  @RHF Final Energy:  -479.76519761736603

   => Energetics <=

    Nuclear Repulsion Energy =            637.0590712123088224
    One-Electron Energy =               -1912.0107451943204069
    Two-Electron Energy =                 795.1864763646453866
    Total Energy =                       -479.7651976173660842

Computation Completed

Properties will be evaluated at   0.000000,   0.000000,   0.000000 [a0]

Properties computed using the SCF density matrix

  Nuclear Dipole Moment: [e a0]
     X:    -3.6303      Y:   -13.3666      Z:    -6.7558

  Electronic Dipole Moment: [e a0]
     X:     4.0311      Y:    13.5252      Z:     6.0761

  Dipole Moment: [e a0]
     X:     0.4008      Y:     0.1587      Z:    -0.6797     Total:     0.8048

  Dipole Moment: [D]
     X:     1.0187      Y:     0.4033      Z:    -1.7275     Total:     2.0457

*** tstop() called on ds3 at Tue Apr 28 05:40:07 2020
Module time:
	user time   =     145.98 seconds =       2.43 minutes
	system time =      68.26 seconds =       1.14 minutes
	total time  =        206 seconds =       3.43 minutes
Total time:
	user time   =     145.98 seconds =       2.43 minutes
	system time =      68.26 seconds =       1.14 minutes
	total time  =        206 seconds =       3.43 minutes
                                     G D M A

                                 by Anthony Stone

                           version 2.2.06, 22 June 2011

               Distributed Multipoles from Gaussian wavefunctions

Starting at 5:40:7 on 28 Apr 2020

Using SCF density matrix from file ./SSI/SSI-032TRP-074VAL-1-dimer.test.31551.fchk

                         Distributed Multipole Analysis

Standard DMA

Positions and radii in angstrom
Multipole moments in atomic units, ea_0^k for rank k

C          x = -0.606959  y =  3.955906  z =  0.487181 angstrom
           Maximum rank =  0   Radius =  0.650 angstrom
                   Q00  =  -0.218554

C          x =  0.687041  y =  0.464906  z = -0.008819 angstrom
           Maximum rank =  0   Radius =  0.650 angstrom
                   Q00  =   0.252291

C          x = -0.172959  y =  1.367906  z =  0.683181 angstrom
           Maximum rank =  0   Radius =  0.650 angstrom
                   Q00  =  -0.046756

C          x =  0.070041  y =  2.675906  z =  0.139181 angstrom
           Maximum rank =  0   Radius =  0.650 angstrom
                   Q00  =  -0.121372

C          x =  1.027041  y =  2.514906  z = -0.809819 angstrom
           Maximum rank =  0   Radius =  0.650 angstrom
                   Q00  =   0.078410

C          x =  0.709041  y = -0.902094  z =  0.251181 angstrom
           Maximum rank =  0   Radius =  0.650 angstrom
                   Q00  =  -0.117463

C          x = -0.134959  y = -1.374094  z =  1.243181 angstrom
           Maximum rank =  0   Radius =  0.650 angstrom
                   Q00  =  -0.088311

C          x = -1.001959  y = -0.499094  z =  1.928181 angstrom
           Maximum rank =  0   Radius =  0.650 angstrom
                   Q00  =  -0.047573

C          x = -1.031959  y =  0.866906  z =  1.664181 angstrom
           Maximum rank =  0   Radius =  0.650 angstrom
                   Q00  =  -0.096686

N          x =  1.416041  y =  1.199906  z = -0.908819 angstrom
           Maximum rank =  0   Radius =  0.650 angstrom
                   Q00  =  -0.486032

H          x =  1.362041  y = -1.564094  z = -0.295819 angstrom
           Maximum rank =  0   Radius =  0.325 angstrom
                   Q00  =   0.077653

H          x = -0.146959  y = -2.428094  z =  1.466181 angstrom
           Maximum rank =  0   Radius =  0.325 angstrom
                   Q00  =   0.064639

H          x =  1.987041  y =  0.803906  z = -1.650819 angstrom
           Maximum rank =  0   Radius =  0.325 angstrom
                   Q00  =   0.219336

H          x = -1.664959  y = -0.907094  z =  2.662181 angstrom
           Maximum rank =  0   Radius =  0.325 angstrom
                   Q00  =   0.059285

H          x =  1.387041  y =  3.317906  z = -1.439819 angstrom
           Maximum rank =  0   Radius =  0.325 angstrom
                   Q00  =   0.095883

H          x = -1.739959  y =  1.516906  z =  2.144181 angstrom
           Maximum rank =  0   Radius =  0.325 angstrom
                   Q00  =   0.072165

H          x = -1.634959  y =  3.713906  z =  0.758181 angstrom
           Maximum rank =  0   Radius =  0.325 angstrom
                   Q00  =   0.101621

H          x = -0.677959  y =  4.544906  z = -0.428819 angstrom
           Maximum rank =  0   Radius =  0.325 angstrom
                   Q00  =   0.099262

H          x = -0.190529  y =  4.608335  z =  1.268801 angstrom
           Maximum rank =  0   Radius =  0.325 angstrom
                   Q00  =   0.102078

C          x = -0.001959  y = -4.037094  z = -1.761819 angstrom
           Maximum rank =  0   Radius =  0.650 angstrom
                   Q00  =  -0.240638

C          x = -0.869959  y = -5.237094  z = -2.149819 angstrom
           Maximum rank =  0   Radius =  0.650 angstrom
                   Q00  =  -0.235361

H          x = -0.278959  y = -3.678094  z = -0.770819 angstrom
           Maximum rank =  0   Radius =  0.325 angstrom
                   Q00  =   0.084427

H          x =  1.047041  y = -4.320094  z = -1.758819 angstrom
           Maximum rank =  0   Radius =  0.325 angstrom
                   Q00  =   0.074785

H          x = -0.130959  y = -3.231094  z = -2.483819 angstrom
           Maximum rank =  0   Radius =  0.325 angstrom
                   Q00  =   0.078354

H          x = -0.764959  y = -5.990094  z = -1.367819 angstrom
           Maximum rank =  0   Radius =  0.325 angstrom
                   Q00  =   0.076117

H          x = -1.930081  y = -4.955488  z = -2.232519 angstrom
           Maximum rank =  0   Radius =  0.325 angstrom
                   Q00  =   0.084444

H          x = -0.490929  y = -5.686153  z = -3.079699 angstrom
           Maximum rank =  0   Radius =  0.325 angstrom
                   Q00  =   0.077999

Total multipoles referred to origin at
           x =   0.000000,  y =    0.000000,  z =    0.000000 angstrom
                   Q00  =  -0.000000

Finished at 5:40:7 on 28 Apr 2020

  DMA results are available in the Python driver through the
	  variable('DMA DISTRIBUTED MULTIPOLES')
  and
	  variable('DMA TOTAL MULTIPOLES')
  commands.

    Psi4 stopped on: Tuesday, 28 April 2020 05:40AM
    Psi4 wall time for execution: 0:03:26.63

*** Psi4 exiting successfully. Buy a developer a beer!
