                               Psi4 1.3.2 release

  ==> Input File <==

--------------------------------------------------------------------------
import numpy as np
set {scf_type pk
basis cc-pvdz
d_convergence 10
gdma_switch   0
gdma_limit    0
gdma_origin   [ 0.0,  0.0,  0.0 ]
}
molecule test {
    units Angstrom
    -1 1
    --
    -1 1
    C                1.874276552750435     2.170152120843142    -1.017379551121975
    C                0.516276552750436     1.725152120843141    -0.469379551121975
    O                0.229276552750436     1.928152120843141     0.734620448878025
    O               -0.270723447249564     1.155152120843141    -1.256379551121975
    H                1.708276552750436     2.890152120843142    -1.821379551121975
    H                2.399276552750436     1.313152120843141    -1.440379551121975
    H                2.505899552750436     2.643512120843142    -0.251230551121975
    C               -0.275723447249564    -1.559847879156859     0.367620448878025
    C               -0.004723447249564    -1.920847879156859     1.837620448878026
    C               -0.555723447249564    -2.801847879156858    -0.460379551121975
    O               -1.403723447249565    -0.692847879156859     0.279620448878025
    H                0.596276552750436    -1.049847879156858    -0.043379551121975
    H               -0.856723447249564    -2.490847879156858     2.211620448878026
    H               -1.394723447249564    -3.355847879156858    -0.037379551121975
    H               -0.799723447249564    -2.507847879156859    -1.481379551121975
    H                0.320276552750436    -3.445847879156859    -0.490379551121975
    H               -1.065723447249564     0.066152120843141    -0.249379551121975
    H                0.125707352750436    -1.019897879156858     2.455093448878026
    H                0.889313452750436    -2.556657879156858     1.917910448878025

}
e, wfn = energy('scf', return_wfn=True)
gdma(wfn)
dmavals = variable('DMA DISTRIBUTED MULTIPOLES')
charges = np.array(dmavals)
print(charges)
np.save('SSI-050ASP-053THR-1-dimer.npy', np.array(charges))--------------------------------------------------------------------------

*** tstart() called on ds3
*** at Tue Apr 28 13:46:27 2020

   => Loading Basis Set <=

    Name: CC-PVDZ
    Role: ORBITAL
    Keyword: BASIS
    atoms 1-2, 8-10  entry C          line   138 file /theoryfs2/ds/metcalf/miniconda2/envs/tf2gpu/share/psi4/basis/cc-pvdz.gbs
    atoms 3-4, 11    entry O          line   198 file /theoryfs2/ds/metcalf/miniconda2/envs/tf2gpu/share/psi4/basis/cc-pvdz.gbs
    atoms 5-7, 12-19 entry H          line    22 file /theoryfs2/ds/metcalf/miniconda2/envs/tf2gpu/share/psi4/basis/cc-pvdz.gbs

         ---------------------------------------------------------
                                   SCF
               by Justin Turney, Rob Parrish, Andy Simmonett
                          and Daniel G. A. Smith
                              RHF Reference
                        1 Threads,    500 MiB Core
         ---------------------------------------------------------

  ==> Geometry <==

    Molecular point group: c1
    Full point group: C1

    Geometry (in Angstrom), charge = -1, multiplicity = 1:

       Center              X                  Y                   Z               Mass
    ------------   -----------------  -----------------  -----------------  -----------------
         C            1.874276552750     2.170152120843    -1.017379551122    12.000000000000
         C            0.516276552750     1.725152120843    -0.469379551122    12.000000000000
         O            0.229276552750     1.928152120843     0.734620448878    15.994914619570
         O           -0.270723447250     1.155152120843    -1.256379551122    15.994914619570
         H            1.708276552750     2.890152120843    -1.821379551122     1.007825032230
         H            2.399276552750     1.313152120843    -1.440379551122     1.007825032230
         H            2.505899552750     2.643512120843    -0.251230551122     1.007825032230
         C           -0.275723447250    -1.559847879157     0.367620448878    12.000000000000
         C           -0.004723447250    -1.920847879157     1.837620448878    12.000000000000
         C           -0.555723447250    -2.801847879157    -0.460379551122    12.000000000000
         O           -1.403723447250    -0.692847879157     0.279620448878    15.994914619570
         H            0.596276552750    -1.049847879157    -0.043379551122     1.007825032230
         H           -0.856723447250    -2.490847879157     2.211620448878     1.007825032230
         H           -1.394723447250    -3.355847879157    -0.037379551122     1.007825032230
         H           -0.799723447250    -2.507847879157    -1.481379551122     1.007825032230
         H            0.320276552750    -3.445847879157    -0.490379551122     1.007825032230
         H           -1.065723447250     0.066152120843    -0.249379551122     1.007825032230
         H            0.125707352750    -1.019897879157     2.455093448878     1.007825032230
         H            0.889313452750    -2.556657879157     1.917910448878     1.007825032230

  Running in c1 symmetry.

  Rotational constants: A =      0.10811  B =      0.03130  C =      0.02958 [cm^-1]
  Rotational constants: A =   3240.91752  B =    938.35111  C =    886.81465 [MHz]
  Nuclear repulsion =  387.910143331863367

  Charge       = -1
  Multiplicity = 1
  Electrons    = 66
  Nalpha       = 33
  Nbeta        = 33

  ==> Algorithm <==

  SCF Algorithm Type is PK.
  DIIS enabled.
  MOM disabled.
  Fractional occupation disabled.
  Guess Type is SAD.
  Energy threshold   = 1.00e-06
  Density threshold  = 1.00e-10
  Integral threshold = 0.00e+00

  ==> Primary Basis <==

  Basis Set: CC-PVDZ
    Blend: CC-PVDZ
    Number of shells: 81
    Number of basis function: 167
    Number of Cartesian functions: 175
    Spherical Harmonics?: true
    Max angular momentum: 2

  ==> Pre-Iterations <==

   -------------------------------------------------------
    Irrep   Nso     Nmo     Nalpha   Nbeta   Ndocc  Nsocc
   -------------------------------------------------------
     A        167     167       0       0       0       0
   -------------------------------------------------------
    Total     167     167      33      33      33       0
   -------------------------------------------------------

  ==> Integral Setup <==

  Using integral reordering PK algorithm.
  Sizing the integral batches needed.
  Building batch lookup table.
   Calculation information:
      Number of atoms:                  19
      Number of AO shells:              81
      Number of primitives:            231
      Number of atomic orbitals:       175
      Number of basis functions:       167

      Integral cutoff                 1.00e-12
      Number of threads:                 1

	Batch   1 pq = [       0,    9405] index = [             0,44231715] size =     44231715
	Batch   2 pq = [    9405,   13301] index = [      44231715,88464951] size =     44233236
	Batch   3 pq = [   13301,   14028] index = [      88464951,98399406] size =      9934455
  Task number: 9
  Buffer size: 11059200
  Buffer per thread: 2
  We computed 4731916 shell quartets total.
  Whereas there are 5516181 unique shell quartets.

  ==> DiskJK: Disk-Based J/K Matrices <==

    J tasked:                  Yes
    K tasked:                  Yes
    wK tasked:                  No
    Memory [MiB]:              375
    Schwarz Cutoff:          1E-12

    OpenMP threads:              1

  Minimum eigenvalue in the overlap matrix is 4.4843941874E-03.
  Using Symmetric Orthogonalization.

  SCF Guess: Superposition of Atomic Densities via on-the-fly atomic UHF.

  ==> Iterations <==

                        Total Energy        Delta E     RMS |[F,P]|

   @RHF iter SAD:  -418.68724273457588   -4.18687e+02   0.00000e+00
   @RHF iter   1:  -420.08392252142801   -1.39668e+00   4.72050e-03 DIIS
   @RHF iter   2:  -420.32530202363751   -2.41380e-01   2.60614e-03 DIIS
   @RHF iter   3:  -420.39434971210648   -6.90477e-02   4.20087e-04 DIIS
   @RHF iter   4:  -420.39755336047193   -3.20365e-03   1.63222e-04 DIIS
   @RHF iter   5:  -420.39802347472238   -4.70114e-04   3.32913e-05 DIIS
   @RHF iter   6:  -420.39804205334576   -1.85786e-05   1.42052e-05 DIIS
   @RHF iter   7:  -420.39804513924889   -3.08590e-06   2.89435e-06 DIIS
   @RHF iter   8:  -420.39804540036988   -2.61121e-07   1.24953e-06 DIIS
   @RHF iter   9:  -420.39804544587525   -4.55054e-08   4.97648e-07 DIIS
   @RHF iter  10:  -420.39804545576163   -9.88638e-09   1.82094e-07 DIIS
   @RHF iter  11:  -420.39804545714753   -1.38590e-09   6.66397e-08 DIIS
   @RHF iter  12:  -420.39804545729527   -1.47736e-10   2.08794e-08 DIIS
   @RHF iter  13:  -420.39804545730931   -1.40403e-11   5.29899e-09 DIIS
   @RHF iter  14:  -420.39804545730851    7.95808e-13   1.50185e-09 DIIS
   @RHF iter  15:  -420.39804545730749    1.02318e-12   4.36022e-10 DIIS
   @RHF iter  16:  -420.39804545731164   -4.14957e-12   1.52324e-10 DIIS
   @RHF iter  17:  -420.39804545730749    4.14957e-12   6.68875e-11 DIIS
  Energy and wave function converged.

  ==> Post-Iterations <==

    Orbital Energies [Eh]
    ---------------------

    Doubly Occupied:

       1A    -20.348930     2A    -20.294831     3A    -20.286123
       4A    -11.145223     5A    -11.121147     6A    -11.083557
       7A    -11.083239     8A    -11.071536     9A     -1.185788
      10A     -1.158118    11A     -1.065695    12A     -0.892164
      13A     -0.816477    14A     -0.796827    15A     -0.638980
      16A     -0.545631    17A     -0.518358    18A     -0.459780
      19A     -0.444234    20A     -0.434729    21A     -0.432058
      22A     -0.430178    23A     -0.408705    24A     -0.402610
      25A     -0.367159    26A     -0.360443    27A     -0.358288
      28A     -0.329280    29A     -0.306634    30A     -0.254860
      31A     -0.212821    32A     -0.200093    33A     -0.192171

    Virtual:

      34A      0.309954    35A      0.331405    36A      0.360197
      37A      0.363869    38A      0.375283    39A      0.388248
      40A      0.396153    41A      0.417164    42A      0.423470
      43A      0.427890    44A      0.468573    45A      0.501888
      46A      0.524113    47A      0.553637    48A      0.564393
      49A      0.620921    50A      0.673572    51A      0.695863
      52A      0.734268    53A      0.743634    54A      0.799787
      55A      0.814882    56A      0.820301    57A      0.858014
      58A      0.864657    59A      0.921069    60A      0.929048
      61A      0.942872    62A      0.970048    63A      0.995745
      64A      1.004378    65A      1.010053    66A      1.016062
      67A      1.018713    68A      1.020985    69A      1.034397
      70A      1.037511    71A      1.046901    72A      1.053216
      73A      1.077249    74A      1.091481    75A      1.104413
      76A      1.115907    77A      1.131031    78A      1.212030
      79A      1.276057    80A      1.283481    81A      1.309865
      82A      1.314530    83A      1.346009    84A      1.392575
      85A      1.463555    86A      1.488725    87A      1.537441
      88A      1.548500    89A      1.568013    90A      1.596212
      91A      1.601658    92A      1.640593    93A      1.644633
      94A      1.688872    95A      1.696528    96A      1.708114
      97A      1.728740    98A      1.790365    99A      1.804322
     100A      1.819305   101A      1.819819   102A      1.824286
     103A      1.828746   104A      1.856468   105A      1.924933
     106A      2.004955   107A      2.010631   108A      2.021436
     109A      2.027830   110A      2.044264   111A      2.060078
     112A      2.066531   113A      2.088214   114A      2.097853
     115A      2.127737   116A      2.132541   117A      2.136156
     118A      2.147868   119A      2.173802   120A      2.187036
     121A      2.207770   122A      2.227043   123A      2.269648
     124A      2.293618   125A      2.306896   126A      2.338266
     127A      2.388444   128A      2.409749   129A      2.423993
     130A      2.464388   131A      2.504584   132A      2.510255
     133A      2.529976   134A      2.625310   135A      2.658403
     136A      2.660654   137A      2.696262   138A      2.703170
     139A      2.721418   140A      2.758487   141A      2.810067
     142A      2.874276   143A      2.883997   144A      2.904175
     145A      2.909596   146A      2.928135   147A      2.948572
     148A      2.961202   149A      2.972349   150A      3.021189
     151A      3.028667   152A      3.169779   153A      3.236272
     154A      3.257997   155A      3.328062   156A      3.461977
     157A      3.520458   158A      3.597663   159A      3.621196
     160A      3.711895   161A      3.745812   162A      3.791320
     163A      3.837063   164A      4.044520   165A      4.053036
     166A      4.186593   167A      4.369045

    Final Occupation by Irrep:
              A
    DOCC [    33 ]

  @RHF Final Energy:  -420.39804545730749

   => Energetics <=

    Nuclear Repulsion Energy =            387.9101433318633667
    One-Electron Energy =               -1357.3230444313221597
    Two-Electron Energy =                 549.0148556421513604
    Total Energy =                       -420.3980454573074894

Computation Completed

Properties will be evaluated at   0.000000,   0.000000,   0.000000 [a0]

Properties computed using the SCF density matrix

  Nuclear Dipole Moment: [e a0]
     X:     4.1443      Y:    -8.9074      Z:     0.7204

  Electronic Dipole Moment: [e a0]
     X:    -3.0416      Y:     7.2825      Z:    -0.8828

  Dipole Moment: [e a0]
     X:     1.1027      Y:    -1.6250      Z:    -0.1624     Total:     1.9705

  Dipole Moment: [D]
     X:     2.8028      Y:    -4.1302      Z:    -0.4127     Total:     5.0085

*** tstop() called on ds3 at Tue Apr 28 13:47:22 2020
Module time:
	user time   =      39.40 seconds =       0.66 minutes
	system time =      18.60 seconds =       0.31 minutes
	total time  =         55 seconds =       0.92 minutes
Total time:
	user time   =      39.40 seconds =       0.66 minutes
	system time =      18.60 seconds =       0.31 minutes
	total time  =         55 seconds =       0.92 minutes
                                     G D M A

                                 by Anthony Stone

                           version 2.2.06, 22 June 2011

               Distributed Multipoles from Gaussian wavefunctions

Starting at 13:47:22 on 28 Apr 2020

Using SCF density matrix from file ./SSI/SSI-050ASP-053THR-1-dimer.test.31849.fchk

                         Distributed Multipole Analysis

Standard DMA

Positions and radii in angstrom
Multipole moments in atomic units, ea_0^k for rank k

C          x =  1.874277  y =  2.170152  z = -1.017380 angstrom
           Maximum rank =  0   Radius =  0.650 angstrom
                   Q00  =  -0.262839

C          x =  0.516277  y =  1.725152  z = -0.469380 angstrom
           Maximum rank =  0   Radius =  0.650 angstrom
                   Q00  =   0.899046

O          x =  0.229277  y =  1.928152  z =  0.734620 angstrom
           Maximum rank =  0   Radius =  0.650 angstrom
                   Q00  =  -0.890318

O          x = -0.270723  y =  1.155152  z = -1.256380 angstrom
           Maximum rank =  0   Radius =  0.650 angstrom
                   Q00  =  -0.922609

H          x =  1.708277  y =  2.890152  z = -1.821380 angstrom
           Maximum rank =  0   Radius =  0.325 angstrom
                   Q00  =   0.078152

H          x =  2.399277  y =  1.313152  z = -1.440380 angstrom
           Maximum rank =  0   Radius =  0.325 angstrom
                   Q00  =   0.074515

H          x =  2.505900  y =  2.643512  z = -0.251231 angstrom
           Maximum rank =  0   Radius =  0.325 angstrom
                   Q00  =   0.058139

C          x = -0.275723  y = -1.559848  z =  0.367620 angstrom
           Maximum rank =  0   Radius =  0.650 angstrom
                   Q00  =   0.189599

C          x = -0.004723  y = -1.920848  z =  1.837620 angstrom
           Maximum rank =  0   Radius =  0.650 angstrom
                   Q00  =  -0.225686

C          x = -0.555723  y = -2.801848  z = -0.460380 angstrom
           Maximum rank =  0   Radius =  0.650 angstrom
                   Q00  =  -0.250776

O          x = -1.403723  y = -0.692848  z =  0.279620 angstrom
           Maximum rank =  0   Radius =  0.650 angstrom
                   Q00  =  -0.677841

H          x =  0.596277  y = -1.049848  z = -0.043380 angstrom
           Maximum rank =  0   Radius =  0.325 angstrom
                   Q00  =   0.004197

H          x = -0.856723  y = -2.490848  z =  2.211620 angstrom
           Maximum rank =  0   Radius =  0.325 angstrom
                   Q00  =   0.060043

H          x = -1.394723  y = -3.355848  z = -0.037380 angstrom
           Maximum rank =  0   Radius =  0.325 angstrom
                   Q00  =   0.063237

H          x = -0.799723  y = -2.507848  z = -1.481380 angstrom
           Maximum rank =  0   Radius =  0.325 angstrom
                   Q00  =   0.086755

H          x =  0.320277  y = -3.445848  z = -0.490380 angstrom
           Maximum rank =  0   Radius =  0.325 angstrom
                   Q00  =   0.036071

H          x = -1.065723  y =  0.066152  z = -0.249380 angstrom
           Maximum rank =  0   Radius =  0.325 angstrom
                   Q00  =   0.541430

H          x =  0.125707  y = -1.019898  z =  2.455093 angstrom
           Maximum rank =  0   Radius =  0.325 angstrom
                   Q00  =   0.104078

H          x =  0.889313  y = -2.556658  z =  1.917910 angstrom
           Maximum rank =  0   Radius =  0.325 angstrom
                   Q00  =   0.034805

Total multipoles referred to origin at
           x =   0.000000,  y =    0.000000,  z =    0.000000 angstrom
                   Q00  =  -1.000000

Finished at 13:47:22 on 28 Apr 2020

  DMA results are available in the Python driver through the
	  variable('DMA DISTRIBUTED MULTIPOLES')
  and
	  variable('DMA TOTAL MULTIPOLES')
  commands.

    Psi4 stopped on: Tuesday, 28 April 2020 01:47PM
    Psi4 wall time for execution: 0:00:55.65

*** Psi4 exiting successfully. Buy a developer a beer!
