                               Psi4 1.3.2 release

  ==> Input File <==

--------------------------------------------------------------------------
import numpy as np
set {scf_type pk
basis cc-pvdz
d_convergence 10
gdma_switch   0
gdma_limit    0
gdma_origin   [ 0.0,  0.0,  0.0 ]
}
molecule test {
    units Angstrom
    0 1
    --
    0 1
    C               -1.136619277536812    -0.961095612481058    -1.439229883146506
    C               -1.992619277536811    -1.947095612481058    -0.696229883146506
    H               -0.134619277536812    -1.367095612481058    -1.585229883146507
    H               -1.571619277536811    -0.751095612481058    -2.416229883146506
    H               -1.070619277536812    -0.030095612481058    -0.876229883146507
    H               -2.064619277536812    -2.839095612481058    -1.317229883146506
    H               -1.522229277536812    -2.208423612481058     0.263170116853494
    H               -3.005249277536812    -1.542331612481058    -0.552189883146507
    C                1.319380722463189     0.841904387518942     0.727770116853493
    C                1.802380722463188     2.076904387518942     1.410770116853494
    H                0.898380722463188     1.072904387518942    -0.247229883146507
    H                2.140380722463189     0.135904387518942     0.600770116853493
    H                0.554380722463188     0.365904387518942     1.339770116853493
    H                2.330380722463189     1.765904387518942     2.314770116853494
    H                0.992650722463189     2.756394387518942     1.715130116853494
    H                2.541810722463188     2.514704387518942     0.724050116853494

}
e, wfn = energy('scf', return_wfn=True)
gdma(wfn)
dmavals = variable('DMA DISTRIBUTED MULTIPOLES')
charges = np.array(dmavals)
print(charges)
np.save('SSI-127LEU-210VAL-1-dimer.npy', np.array(charges))--------------------------------------------------------------------------

*** tstart() called on ds3
*** at Mon Apr 27 16:20:32 2020

   => Loading Basis Set <=

    Name: CC-PVDZ
    Role: ORBITAL
    Keyword: BASIS
    atoms 1-2, 9-10  entry C          line   138 file /theoryfs2/ds/metcalf/miniconda2/envs/tf2gpu/share/psi4/basis/cc-pvdz.gbs
    atoms 3-8, 11-16 entry H          line    22 file /theoryfs2/ds/metcalf/miniconda2/envs/tf2gpu/share/psi4/basis/cc-pvdz.gbs

         ---------------------------------------------------------
                                   SCF
               by Justin Turney, Rob Parrish, Andy Simmonett
                          and Daniel G. A. Smith
                              RHF Reference
                        1 Threads,    500 MiB Core
         ---------------------------------------------------------

  ==> Geometry <==

    Molecular point group: c1
    Full point group: C1

    Geometry (in Angstrom), charge = 0, multiplicity = 1:

       Center              X                  Y                   Z               Mass
    ------------   -----------------  -----------------  -----------------  -----------------
         C           -1.136619277537    -0.961095612481    -1.439229883147    12.000000000000
         C           -1.992619277537    -1.947095612481    -0.696229883147    12.000000000000
         H           -0.134619277537    -1.367095612481    -1.585229883147     1.007825032230
         H           -1.571619277537    -0.751095612481    -2.416229883147     1.007825032230
         H           -1.070619277537    -0.030095612481    -0.876229883147     1.007825032230
         H           -2.064619277537    -2.839095612481    -1.317229883147     1.007825032230
         H           -1.522229277537    -2.208423612481     0.263170116853     1.007825032230
         H           -3.005249277537    -1.542331612481    -0.552189883147     1.007825032230
         C            1.319380722463     0.841904387519     0.727770116853    12.000000000000
         C            1.802380722463     2.076904387519     1.410770116853    12.000000000000
         H            0.898380722463     1.072904387519    -0.247229883147     1.007825032230
         H            2.140380722463     0.135904387519     0.600770116853     1.007825032230
         H            0.554380722463     0.365904387519     1.339770116853     1.007825032230
         H            2.330380722463     1.765904387519     2.314770116853     1.007825032230
         H            0.992650722463     2.756394387519     1.715130116853     1.007825032230
         H            2.541810722463     2.514704387519     0.724050116853     1.007825032230

  Running in c1 symmetry.

  Rotational constants: A =      0.60978  B =      0.04447  C =      0.04336 [cm^-1]
  Rotational constants: A =  18280.71223  B =   1333.31772  C =   1300.02916 [MHz]
  Nuclear repulsion =  121.947999684679331

  Charge       = 0
  Multiplicity = 1
  Electrons    = 36
  Nalpha       = 18
  Nbeta        = 18

  ==> Algorithm <==

  SCF Algorithm Type is PK.
  DIIS enabled.
  MOM disabled.
  Fractional occupation disabled.
  Guess Type is SAD.
  Energy threshold   = 1.00e-06
  Density threshold  = 1.00e-10
  Integral threshold = 0.00e+00

  ==> Primary Basis <==

  Basis Set: CC-PVDZ
    Blend: CC-PVDZ
    Number of shells: 60
    Number of basis function: 116
    Number of Cartesian functions: 120
    Spherical Harmonics?: true
    Max angular momentum: 2

  ==> Pre-Iterations <==

   -------------------------------------------------------
    Irrep   Nso     Nmo     Nalpha   Nbeta   Ndocc  Nsocc
   -------------------------------------------------------
     A        116     116       0       0       0       0
   -------------------------------------------------------
    Total     116     116      18      18      18       0
   -------------------------------------------------------

  ==> Integral Setup <==

  Using integral reordering PK algorithm.
  Sizing the integral batches needed.
  Building batch lookup table.
   Calculation information:
      Number of atoms:                  16
      Number of AO shells:              60
      Number of primitives:            148
      Number of atomic orbitals:       120
      Number of basis functions:       116

      Integral cutoff                 1.00e-12
      Number of threads:                 1

	Batch   1 pq = [       0,    6786] index = [             0,23028291] size =     23028291
  Task number: 3
  Buffer size: 11059200
  Buffer per thread: 2
  We computed 1385109 shell quartets total.
  Whereas there are 1675365 unique shell quartets.

  ==> DiskJK: Disk-Based J/K Matrices <==

    J tasked:                  Yes
    K tasked:                  Yes
    wK tasked:                  No
    Memory [MiB]:              375
    Schwarz Cutoff:          1E-12

    OpenMP threads:              1

  Minimum eigenvalue in the overlap matrix is 6.4671313902E-03.
  Using Symmetric Orthogonalization.

  SCF Guess: Superposition of Atomic Densities via on-the-fly atomic UHF.

  ==> Iterations <==

                        Total Energy        Delta E     RMS |[F,P]|

   @RHF iter SAD:  -157.46122831165923   -1.57461e+02   0.00000e+00
   @RHF iter   1:  -158.29645944003323   -8.35231e-01   4.32688e-03 DIIS
   @RHF iter   2:  -158.43502695189662   -1.38568e-01   1.86810e-03 DIIS
   @RHF iter   3:  -158.46016414667400   -2.51372e-02   3.55348e-04 DIIS
   @RHF iter   4:  -158.46205255118019   -1.88840e-03   3.92506e-05 DIIS
   @RHF iter   5:  -158.46207699465478   -2.44435e-05   6.58867e-06 DIIS
   @RHF iter   6:  -158.46207764433242   -6.49678e-07   1.07811e-06 DIIS
   @RHF iter   7:  -158.46207765600076   -1.16683e-08   3.16465e-07 DIIS
   @RHF iter   8:  -158.46207765691238   -9.11626e-10   4.58122e-08 DIIS
   @RHF iter   9:  -158.46207765694791   -3.55271e-11   1.02774e-08 DIIS
   @RHF iter  10:  -158.46207765694913   -1.22213e-12   2.94289e-09 DIIS
   @RHF iter  11:  -158.46207765694939   -2.55795e-13   8.15916e-10 DIIS
   @RHF iter  12:  -158.46207765694984   -4.54747e-13   1.68287e-10 DIIS
   @RHF iter  13:  -158.46207765694936    4.83169e-13   2.40484e-11 DIIS
  Energy and wave function converged.

  ==> Post-Iterations <==

    Orbital Energies [Eh]
    ---------------------

    Doubly Occupied:

       1A    -11.216561     2A    -11.216330     3A    -11.212715
       4A    -11.212567     5A     -1.028937     6A     -1.024049
       7A     -0.834782     8A     -0.829181     9A     -0.607868
      10A     -0.603641    11A     -0.600912    12A     -0.597235
      13A     -0.510404    14A     -0.502285    15A     -0.486871
      16A     -0.483466    17A     -0.479186    18A     -0.472918

    Virtual:

      19A      0.174179    20A      0.194140    21A      0.227165
      22A      0.235629    23A      0.243318    24A      0.258925
      25A      0.261132    26A      0.275027    27A      0.282968
      28A      0.287643    29A      0.309609    30A      0.318997
      31A      0.399385    32A      0.408044    33A      0.561171
      34A      0.597403    35A      0.605728    36A      0.607321
      37A      0.617434    38A      0.632611    39A      0.666916
      40A      0.673598    41A      0.695344    42A      0.785926
      43A      0.856711    44A      0.870148    45A      0.883187
      46A      0.888950    47A      0.894945    48A      0.896349
      49A      0.900798    50A      0.910110    51A      0.915060
      52A      0.921714    53A      0.942357    54A      0.948678
      55A      0.976655    56A      0.983872    57A      1.119894
      58A      1.128116    59A      1.138636    60A      1.169489
      61A      1.232557    62A      1.249207    63A      1.472051
      64A      1.484515    65A      1.499240    66A      1.503632
      67A      1.563724    68A      1.588076    69A      1.668378
      70A      1.676232    71A      1.690412    72A      1.701476
      73A      1.845960    74A      1.850904    75A      1.860654
      76A      1.880624    77A      1.916962    78A      1.925281
      79A      1.931438    80A      1.947663    81A      1.949643
      82A      1.959581    83A      1.965818    84A      1.967099
      85A      1.986801    86A      1.990475    87A      2.007600
      88A      2.025463    89A      2.090890    90A      2.108936
      91A      2.128117    92A      2.148641    93A      2.296408
      94A      2.304199    95A      2.323637    96A      2.331202
      97A      2.441849    98A      2.453531    99A      2.476330
     100A      2.495196   101A      2.558565   102A      2.567422
     103A      2.583050   104A      2.599494   105A      2.762087
     106A      2.766663   107A      2.791326   108A      2.793514
     109A      2.841791   110A      2.850579   111A      2.860223
     112A      2.867843   113A      2.935786   114A      2.959737
     115A      2.976503   116A      2.983628

    Final Occupation by Irrep:
              A
    DOCC [    18 ]

  @RHF Final Energy:  -158.46207765694936

   => Energetics <=

    Nuclear Repulsion Energy =            121.9479996846793313
    One-Electron Energy =                -452.9803373374156763
    Two-Electron Energy =                 172.5702599957870120
    Total Energy =                       -158.4620776569493614

Computation Completed

Properties will be evaluated at   0.000000,   0.000000,   0.000000 [a0]

Properties computed using the SCF density matrix

  Nuclear Dipole Moment: [e a0]
     X:     0.0835      Y:    -0.1185      Z:    -0.0344

  Electronic Dipole Moment: [e a0]
     X:    -0.0691      Y:     0.1091      Z:     0.0291

  Dipole Moment: [e a0]
     X:     0.0143      Y:    -0.0094      Z:    -0.0052     Total:     0.0179

  Dipole Moment: [D]
     X:     0.0365      Y:    -0.0239      Z:    -0.0133     Total:     0.0456

*** tstop() called on ds3 at Mon Apr 27 16:20:44 2020
Module time:
	user time   =       8.78 seconds =       0.15 minutes
	system time =       3.35 seconds =       0.06 minutes
	total time  =         12 seconds =       0.20 minutes
Total time:
	user time   =       8.78 seconds =       0.15 minutes
	system time =       3.35 seconds =       0.06 minutes
	total time  =         12 seconds =       0.20 minutes
                                     G D M A

                                 by Anthony Stone

                           version 2.2.06, 22 June 2011

               Distributed Multipoles from Gaussian wavefunctions

Starting at 16:20:44 on 27 Apr 2020

Using SCF density matrix from file ./SSI/SSI-127LEU-210VAL-1-dimer.test.26485.fchk

                         Distributed Multipole Analysis

Standard DMA

Positions and radii in angstrom
Multipole moments in atomic units, ea_0^k for rank k

C          x = -1.136619  y = -0.961096  z = -1.439230 angstrom
           Maximum rank =  0   Radius =  0.650 angstrom
                   Q00  =  -0.231994

C          x = -1.992619  y = -1.947096  z = -0.696230 angstrom
           Maximum rank =  0   Radius =  0.650 angstrom
                   Q00  =  -0.224244

H          x = -0.134619  y = -1.367096  z = -1.585230 angstrom
           Maximum rank =  0   Radius =  0.325 angstrom
                   Q00  =   0.076317

H          x = -1.571619  y = -0.751096  z = -2.416230 angstrom
           Maximum rank =  0   Radius =  0.325 angstrom
                   Q00  =   0.074516

H          x = -1.070619  y = -0.030096  z = -0.876230 angstrom
           Maximum rank =  0   Radius =  0.325 angstrom
                   Q00  =   0.077913

H          x = -2.064619  y = -2.839096  z = -1.317230 angstrom
           Maximum rank =  0   Radius =  0.325 angstrom
                   Q00  =   0.073364

H          x = -1.522229  y = -2.208424  z =  0.263170 angstrom
           Maximum rank =  0   Radius =  0.325 angstrom
                   Q00  =   0.077213

H          x = -3.005249  y = -1.542332  z = -0.552190 angstrom
           Maximum rank =  0   Radius =  0.325 angstrom
                   Q00  =   0.076639

C          x =  1.319381  y =  0.841904  z =  0.727770 angstrom
           Maximum rank =  0   Radius =  0.650 angstrom
                   Q00  =  -0.226901

C          x =  1.802381  y =  2.076904  z =  1.410770 angstrom
           Maximum rank =  0   Radius =  0.650 angstrom
                   Q00  =  -0.195317

H          x =  0.898381  y =  1.072904  z = -0.247230 angstrom
           Maximum rank =  0   Radius =  0.325 angstrom
                   Q00  =   0.076593

H          x =  2.140381  y =  0.135904  z =  0.600770 angstrom
           Maximum rank =  0   Radius =  0.325 angstrom
                   Q00  =   0.076551

H          x =  0.554381  y =  0.365904  z =  1.339770 angstrom
           Maximum rank =  0   Radius =  0.325 angstrom
                   Q00  =   0.070100

H          x =  2.330381  y =  1.765904  z =  2.314770 angstrom
           Maximum rank =  0   Radius =  0.325 angstrom
                   Q00  =   0.071903

H          x =  0.992651  y =  2.756394  z =  1.715130 angstrom
           Maximum rank =  0   Radius =  0.325 angstrom
                   Q00  =   0.068958

H          x =  2.541811  y =  2.514704  z =  0.724050 angstrom
           Maximum rank =  0   Radius =  0.325 angstrom
                   Q00  =   0.058389

Total multipoles referred to origin at
           x =   0.000000,  y =    0.000000,  z =    0.000000 angstrom
                   Q00  =  -0.000000

Finished at 16:20:44 on 27 Apr 2020

  DMA results are available in the Python driver through the
	  variable('DMA DISTRIBUTED MULTIPOLES')
  and
	  variable('DMA TOTAL MULTIPOLES')
  commands.

    Psi4 stopped on: Monday, 27 April 2020 04:20PM
    Psi4 wall time for execution: 0:00:11.84

*** Psi4 exiting successfully. Buy a developer a beer!
