                               Psi4 1.3.2 release

  ==> Input File <==

--------------------------------------------------------------------------
import numpy as np
set {scf_type pk
basis cc-pvdz
d_convergence 10
gdma_switch   0
gdma_limit    0
gdma_origin   [ 0.0,  0.0,  0.0 ]
}
molecule test {
    units Angstrom
    0 1
    --
    0 1
    C               -2.444273551253937    -1.756295064608138    -1.646516241171358
    C               -3.462273551253937    -1.018295064608138    -2.516516241171358
    C               -2.324273551253937    -1.217295064608138    -0.235516241171358
    H               -2.619273551253937    -2.822295064608138    -1.648516241171358
    H               -1.463273551253937    -1.615295064608138    -2.101516241171358
    H               -3.514273551253937     0.025704935391862    -2.193516241171358
    H               -1.342273551253937    -1.510295064608138     0.120483758828642
    H               -2.350273551253937    -0.127295064608138    -0.247516241171358
    H               -4.448223551253938    -1.504868064608138    -2.482622241171358
    H               -3.141163551253937    -1.017575064608138    -3.568603241171358
    H               -3.034203551253937    -1.607061064608138     0.508853758828642
    C                1.177726448746063    -0.439295064608138    -1.995516241171358
    C                2.553726448746063     0.018704935391862    -2.524516241171358
    C                1.056726448746063    -0.470295064608138    -0.522516241171358
    C                1.315726448746063    -1.536295064608138     0.275483758828642
    C                0.640726448746063     0.587704935391863     0.326483758828642
    C                0.653726448746063     0.085704935391862     1.663483758828642
    C                0.253726448746063     1.911704935391862     0.102483758828642
    C                0.302726448746063     0.864704935391862     2.758483758828642
    C               -0.115273551253937     2.705704935391862     1.197483758828642
    C               -0.082273551253937     2.186704935391862     2.515483758828642
    N                1.068726448746063    -1.214295064608138     1.583483758828642
    H                0.391726448746063     0.201704935391862    -2.392516241171358
    H                0.992726448746063    -1.446295064608138    -2.370516241171358
    H                2.585726448746063    -0.163295064608138    -3.600516241171358
    H                1.651726448746063    -2.506295064608137    -0.079516241171358
    H                1.227726448746063    -1.841295064608138     2.365483758828642
    H                0.221726448746063     2.291704935391863    -0.899516241171358
    H                0.333726448746063     0.464704935391862     3.762483758828642
    H               -0.424273551253937     3.731704935391862     1.039483758828642
    H               -0.364273551253937     2.822704935391862     3.345483758828642
    H                3.388166448746063    -0.500665064608138    -2.030588241171358
    H                2.697546448746063     1.097354935391862    -2.363819241171358

}
e, wfn = energy('scf', return_wfn=True)
gdma(wfn)
dmavals = variable('DMA DISTRIBUTED MULTIPOLES')
charges = np.array(dmavals)
print(charges)
np.save('SSI-137ARG-154TRP-1-dimer.npy', np.array(charges))--------------------------------------------------------------------------

*** tstart() called on ds3
*** at Mon Apr 27 11:58:35 2020

   => Loading Basis Set <=

    Name: CC-PVDZ
    Role: ORBITAL
    Keyword: BASIS
    atoms 1-3, 12-21  entry C          line   138 file /theoryfs2/ds/metcalf/miniconda2/envs/tf2gpu/share/psi4/basis/cc-pvdz.gbs
    atoms 4-11, 23-33 entry H          line    22 file /theoryfs2/ds/metcalf/miniconda2/envs/tf2gpu/share/psi4/basis/cc-pvdz.gbs
    atoms 22          entry N          line   168 file /theoryfs2/ds/metcalf/miniconda2/envs/tf2gpu/share/psi4/basis/cc-pvdz.gbs

         ---------------------------------------------------------
                                   SCF
               by Justin Turney, Rob Parrish, Andy Simmonett
                          and Daniel G. A. Smith
                              RHF Reference
                        1 Threads,    500 MiB Core
         ---------------------------------------------------------

  ==> Geometry <==

    Molecular point group: c1
    Full point group: C1

    Geometry (in Angstrom), charge = 0, multiplicity = 1:

       Center              X                  Y                   Z               Mass
    ------------   -----------------  -----------------  -----------------  -----------------
         C           -2.444273551254    -1.756295064608    -1.646516241171    12.000000000000
         C           -3.462273551254    -1.018295064608    -2.516516241171    12.000000000000
         C           -2.324273551254    -1.217295064608    -0.235516241171    12.000000000000
         H           -2.619273551254    -2.822295064608    -1.648516241171     1.007825032230
         H           -1.463273551254    -1.615295064608    -2.101516241171     1.007825032230
         H           -3.514273551254     0.025704935392    -2.193516241171     1.007825032230
         H           -1.342273551254    -1.510295064608     0.120483758829     1.007825032230
         H           -2.350273551254    -0.127295064608    -0.247516241171     1.007825032230
         H           -4.448223551254    -1.504868064608    -2.482622241171     1.007825032230
         H           -3.141163551254    -1.017575064608    -3.568603241171     1.007825032230
         H           -3.034203551254    -1.607061064608     0.508853758829     1.007825032230
         C            1.177726448746    -0.439295064608    -1.995516241171    12.000000000000
         C            2.553726448746     0.018704935392    -2.524516241171    12.000000000000
         C            1.056726448746    -0.470295064608    -0.522516241171    12.000000000000
         C            1.315726448746    -1.536295064608     0.275483758829    12.000000000000
         C            0.640726448746     0.587704935392     0.326483758829    12.000000000000
         C            0.653726448746     0.085704935392     1.663483758829    12.000000000000
         C            0.253726448746     1.911704935392     0.102483758829    12.000000000000
         C            0.302726448746     0.864704935392     2.758483758829    12.000000000000
         C           -0.115273551254     2.705704935392     1.197483758829    12.000000000000
         C           -0.082273551254     2.186704935392     2.515483758829    12.000000000000
         N            1.068726448746    -1.214295064608     1.583483758829    14.003074004430
         H            0.391726448746     0.201704935392    -2.392516241171     1.007825032230
         H            0.992726448746    -1.446295064608    -2.370516241171     1.007825032230
         H            2.585726448746    -0.163295064608    -3.600516241171     1.007825032230
         H            1.651726448746    -2.506295064608    -0.079516241171     1.007825032230
         H            1.227726448746    -1.841295064608     2.365483758829     1.007825032230
         H            0.221726448746     2.291704935392    -0.899516241171     1.007825032230
         H            0.333726448746     0.464704935392     3.762483758829     1.007825032230
         H           -0.424273551254     3.731704935392     1.039483758829     1.007825032230
         H           -0.364273551254     2.822704935392     3.345483758829     1.007825032230
         H            3.388166448746    -0.500665064608    -2.030588241171     1.007825032230
         H            2.697546448746     1.097354935392    -2.363819241171     1.007825032230

  Running in c1 symmetry.

  Rotational constants: A =      0.02389  B =      0.01604  C =      0.01332 [cm^-1]
  Rotational constants: A =    716.26093  B =    480.84330  C =    399.27825 [MHz]
  Nuclear repulsion =  875.768207184656490

  Charge       = 0
  Multiplicity = 1
  Electrons    = 104
  Nalpha       = 52
  Nbeta        = 52

  ==> Algorithm <==

  SCF Algorithm Type is PK.
  DIIS enabled.
  MOM disabled.
  Fractional occupation disabled.
  Guess Type is SAD.
  Energy threshold   = 1.00e-06
  Density threshold  = 1.00e-10
  Integral threshold = 0.00e+00

  ==> Primary Basis <==

  Basis Set: CC-PVDZ
    Blend: CC-PVDZ
    Number of shells: 141
    Number of basis function: 291
    Number of Cartesian functions: 305
    Spherical Harmonics?: true
    Max angular momentum: 2

  ==> Pre-Iterations <==

   -------------------------------------------------------
    Irrep   Nso     Nmo     Nalpha   Nbeta   Ndocc  Nsocc
   -------------------------------------------------------
     A        291     291       0       0       0       0
   -------------------------------------------------------
    Total     291     291      52      52      52       0
   -------------------------------------------------------

  ==> Integral Setup <==

  Using integral reordering PK algorithm.
  Sizing the integral batches needed.
  Building batch lookup table.
   Calculation information:
      Number of atoms:                  33
      Number of AO shells:             141
      Number of primitives:            403
      Number of atomic orbitals:       305
      Number of basis functions:       291

      Integral cutoff                 1.00e-12
      Number of threads:                 1

	Batch   1 pq = [       0,    9405] index = [             0,44231715] size =     44231715
	Batch   2 pq = [    9405,   13301] index = [      44231715,88464951] size =     44233236
	Batch   3 pq = [   13301,   16290] index = [      88464951,132690195] size =     44225244
	Batch   4 pq = [   16290,   18810] index = [     132690195,176917455] size =     44227260
	Batch   5 pq = [   18810,   21030] index = [     176917455,221140965] size =     44223510
	Batch   6 pq = [   21030,   23037] index = [     221140965,265363203] size =     44222238
	Batch   7 pq = [   23037,   24883] index = [     265363203,309594286] size =     44231083
	Batch   8 pq = [   24883,   26601] index = [     309594286,353819901] size =     44225615
	Batch   9 pq = [   26601,   28214] index = [     353819901,398029005] size =     44209104
	Batch  10 pq = [   28214,   29740] index = [     398029005,442248670] size =     44219665
	Batch  11 pq = [   29740,   31191] index = [     442248670,486454836] size =     44206166
	Batch  12 pq = [   31191,   32578] index = [     486454836,530679331] size =     44224495
	Batch  13 pq = [   32578,   33908] index = [     530679331,574893186] size =     44213855
	Batch  14 pq = [   33908,   35188] index = [     574893186,619115266] size =     44222080
	Batch  15 pq = [   35188,   36423] index = [     619115266,663335676] size =     44220410
	Batch  16 pq = [   36423,   37617] index = [     663335676,707538153] size =     44202477
	Batch  17 pq = [   37617,   38775] index = [     707538153,751769700] size =     44231547
	Batch  18 pq = [   38775,   39899] index = [     751769700,795985050] size =     44215350
	Batch  19 pq = [   39899,   40992] index = [     795985050,840192528] size =     44207478
	Batch  20 pq = [   40992,   42057] index = [     840192528,884416653] size =     44224125
	Batch  21 pq = [   42057,   42486] index = [     884416653,902551341] size =     18134688
  Task number: 82
  Buffer size: 11059200
  Buffer per thread: 2
  We computed 57394477 shell quartets total.
  Whereas there are 50115066 unique shell quartets.
    14.53 percent of shell quartets recomputed by reordering.

  ==> DiskJK: Disk-Based J/K Matrices <==

    J tasked:                  Yes
    K tasked:                  Yes
    wK tasked:                  No
    Memory [MiB]:              375
    Schwarz Cutoff:          1E-12

    OpenMP threads:              1

  Minimum eigenvalue in the overlap matrix is 2.3344264985E-04.
  Using Symmetric Orthogonalization.

  SCF Guess: Superposition of Atomic Densities via on-the-fly atomic UHF.

  ==> Iterations <==

                        Total Energy        Delta E     RMS |[F,P]|

   @RHF iter SAD:  -557.11388944909993   -5.57114e+02   0.00000e+00
   @RHF iter   1:  -557.48851290146058   -3.74623e-01   2.40950e-03 DIIS
   @RHF iter   2:  -557.76992157591394   -2.81409e-01   1.11015e-03 DIIS
   @RHF iter   3:  -557.82448036377559   -5.45588e-02   2.95141e-04 DIIS
   @RHF iter   4:  -557.82944947254487   -4.96911e-03   1.37167e-04 DIIS
   @RHF iter   5:  -557.83034753539960   -8.98063e-04   1.84137e-05 DIIS
   @RHF iter   6:  -557.83038073814942   -3.32027e-05   8.00323e-06 DIIS
   @RHF iter   7:  -557.83038714233271   -6.40418e-06   3.35009e-06 DIIS
   @RHF iter   8:  -557.83038888947237   -1.74714e-06   1.43983e-06 DIIS
   @RHF iter   9:  -557.83038934283354   -4.53361e-07   6.49052e-07 DIIS
   @RHF iter  10:  -557.83038943915165   -9.63181e-08   2.78032e-07 DIIS
   @RHF iter  11:  -557.83038945872011   -1.95685e-08   1.03558e-07 DIIS
   @RHF iter  12:  -557.83038946137299   -2.65288e-09   4.04815e-08 DIIS
   @RHF iter  13:  -557.83038946160332   -2.30330e-10   1.19697e-08 DIIS
   @RHF iter  14:  -557.83038946162822   -2.48974e-11   4.37185e-09 DIIS
   @RHF iter  15:  -557.83038946162822    0.00000e+00   2.23329e-09 DIIS
   @RHF iter  16:  -557.83038946163663   -8.41283e-12   9.80309e-10 DIIS
   @RHF iter  17:  -557.83038946163242    4.20641e-12   4.59575e-10 DIIS
   @RHF iter  18:  -557.83038946163185    5.68434e-13   1.84926e-10 DIIS
   @RHF iter  19:  -557.83038946163083    1.02318e-12   6.82776e-11 DIIS
  Energy and wave function converged.

  ==> Post-Iterations <==

    Orbital Energies [Eh]
    ---------------------

    Doubly Occupied:

       1A    -15.604372     2A    -11.265465     3A    -11.263484
       4A    -11.233914     5A    -11.232596     6A    -11.231739
       7A    -11.227018     8A    -11.225696     9A    -11.220091
      10A    -11.219924    11A    -11.211256    12A    -11.209501
      13A    -11.207685    14A    -11.197064    15A     -1.300325
      16A     -1.125739    17A     -1.087694    18A     -1.044397
      19A     -1.013890    20A     -0.992074    21A     -0.967379
      22A     -0.914763    23A     -0.862005    24A     -0.839900
      25A     -0.805975    26A     -0.787941    27A     -0.748027
      28A     -0.720514    29A     -0.668312    30A     -0.642140
      31A     -0.617064    32A     -0.615028    33A     -0.601313
      34A     -0.593391    35A     -0.584293    36A     -0.580396
      37A     -0.574133    38A     -0.544854    39A     -0.534109
      40A     -0.523153    41A     -0.517348    42A     -0.508611
      43A     -0.504582    44A     -0.480983    45A     -0.469327
      46A     -0.464907    47A     -0.460555    48A     -0.456360
      49A     -0.445238    50A     -0.373633    51A     -0.295017
      52A     -0.274048

    Virtual:

      53A      0.121557    54A      0.165432    55A      0.173356
      56A      0.179488    57A      0.196865    58A      0.199507
      59A      0.214845    60A      0.221006    61A      0.231579
      62A      0.238505    63A      0.244171    64A      0.249271
      65A      0.252987    66A      0.264269    67A      0.270770
      68A      0.280373    69A      0.290392    70A      0.293452
      71A      0.308244    72A      0.311685    73A      0.328607
      74A      0.352851    75A      0.377473    76A      0.387443
      77A      0.399694    78A      0.404583    79A      0.423031
      80A      0.428318    81A      0.447384    82A      0.449456
      83A      0.470707    84A      0.487856    85A      0.510420
      86A      0.519285    87A      0.579404    88A      0.588473
      89A      0.601871    90A      0.611719    91A      0.615920
      92A      0.629244    93A      0.641583    94A      0.649480
      95A      0.652700    96A      0.664255    97A      0.684530
      98A      0.706892    99A      0.711282   100A      0.718595
     101A      0.731123   102A      0.732372   103A      0.744352
     104A      0.755059   105A      0.756738   106A      0.765766
     107A      0.767616   108A      0.782267   109A      0.785506
     110A      0.794037   111A      0.819399   112A      0.834495
     113A      0.847201   114A      0.858040   115A      0.866865
     116A      0.876268   117A      0.881643   118A      0.886373
     119A      0.891702   120A      0.895147   121A      0.900165
     122A      0.904173   123A      0.906069   124A      0.919557
     125A      0.924815   126A      0.928116   127A      0.936903
     128A      0.939828   129A      0.942334   130A      0.947346
     131A      0.959720   132A      0.970835   133A      0.975526
     134A      0.984465   135A      0.994380   136A      1.007366
     137A      1.020669   138A      1.030221   139A      1.042913
     140A      1.059759   141A      1.084701   142A      1.098491
     143A      1.105943   144A      1.118084   145A      1.123427
     146A      1.134308   147A      1.156775   148A      1.160972
     149A      1.167814   150A      1.184533   151A      1.207514
     152A      1.218913   153A      1.234588   154A      1.239709
     155A      1.252015   156A      1.271722   157A      1.280029
     158A      1.292936   159A      1.308848   160A      1.325640
     161A      1.333301   162A      1.367528   163A      1.373045
     164A      1.393811   165A      1.417887   166A      1.429578
     167A      1.438531   168A      1.457134   169A      1.481381
     170A      1.488262   171A      1.515202   172A      1.548178
     173A      1.556733   174A      1.586012   175A      1.608998
     176A      1.625518   177A      1.645332   178A      1.657123
     179A      1.680060   180A      1.681917   181A      1.697899
     182A      1.718507   183A      1.735771   184A      1.742121
     185A      1.756633   186A      1.761619   187A      1.763598
     188A      1.789234   189A      1.807112   190A      1.820056
     191A      1.845510   192A      1.860523   193A      1.874145
     194A      1.878226   195A      1.879978   196A      1.894714
     197A      1.897875   198A      1.905458   199A      1.912345
     200A      1.915489   201A      1.919444   202A      1.925450
     203A      1.938613   204A      1.945971   205A      1.947234
     206A      1.954387   207A      1.966063   208A      1.974281
     209A      1.975616   210A      1.981309   211A      1.988320
     212A      1.996230   213A      2.011207   214A      2.013288
     215A      2.019084   216A      2.040159   217A      2.049809
     218A      2.056681   219A      2.063682   220A      2.069101
     221A      2.088132   222A      2.096461   223A      2.101518
     224A      2.109818   225A      2.126928   226A      2.131217
     227A      2.147138   228A      2.156019   229A      2.163547
     230A      2.172628   231A      2.176439   232A      2.185203
     233A      2.214784   234A      2.243879   235A      2.264593
     236A      2.279401   237A      2.283928   238A      2.296982
     239A      2.309438   240A      2.322964   241A      2.342533
     242A      2.351892   243A      2.360042   244A      2.375934
     245A      2.400162   246A      2.423340   247A      2.429408
     248A      2.446160   249A      2.456763   250A      2.464994
     251A      2.517700   252A      2.536594   253A      2.565843
     254A      2.571146   255A      2.580408   256A      2.595144
     257A      2.613835   258A      2.645601   259A      2.651258
     260A      2.669137   261A      2.680756   262A      2.714375
     263A      2.722935   264A      2.760161   265A      2.767768
     266A      2.773105   267A      2.783479   268A      2.795471
     269A      2.803642   270A      2.811572   271A      2.818670
     272A      2.851581   273A      2.868230   274A      2.907847
     275A      2.915565   276A      2.924554   277A      2.945264
     278A      2.961293   279A      2.969319   280A      2.988589
     281A      3.003403   282A      3.050428   283A      3.064987
     284A      3.091986   285A      3.109859   286A      3.145391
     287A      3.211666   288A      3.319494   289A      3.396107
     290A      3.758754   291A      3.934434

    Final Occupation by Irrep:
              A
    DOCC [    52 ]

  @RHF Final Energy:  -557.83038946163083

   => Energetics <=

    Nuclear Repulsion Energy =            875.7682071846564895
    One-Electron Energy =               -2493.0187488193942045
    Two-Electron Energy =                1059.4201521731067714
    Total Energy =                       -557.8303894616308298

Computation Completed

Properties will be evaluated at   0.000000,   0.000000,   0.000000 [a0]

Properties computed using the SCF density matrix

  Nuclear Dipole Moment: [e a0]
     X:    -8.6379      Y:    -5.6466      Z:   -13.9138

  Electronic Dipole Moment: [e a0]
     X:     8.9992      Y:     4.9304      Z:    14.2467

  Dipole Moment: [e a0]
     X:     0.3614      Y:    -0.7162      Z:     0.3328     Total:     0.8685

  Dipole Moment: [D]
     X:     0.9185      Y:    -1.8204      Z:     0.8460     Total:     2.2075

*** tstop() called on ds3 at Mon Apr 27 12:34:24 2020
Module time:
	user time   =     453.23 seconds =       7.55 minutes
	system time =     178.32 seconds =       2.97 minutes
	total time  =       2149 seconds =      35.82 minutes
Total time:
	user time   =     453.23 seconds =       7.55 minutes
	system time =     178.32 seconds =       2.97 minutes
	total time  =       2149 seconds =      35.82 minutes
                                     G D M A

                                 by Anthony Stone

                           version 2.2.06, 22 June 2011

               Distributed Multipoles from Gaussian wavefunctions

Starting at 12:34:24 on 27 Apr 2020

Using SCF density matrix from file ./SSI/SSI-137ARG-154TRP-1-dimer.test.3193.fchk

                         Distributed Multipole Analysis

Standard DMA

Positions and radii in angstrom
Multipole moments in atomic units, ea_0^k for rank k

C          x = -2.444274  y = -1.756295  z = -1.646516 angstrom
           Maximum rank =  0   Radius =  0.650 angstrom
                   Q00  =  -0.119659

C          x = -3.462274  y = -1.018295  z = -2.516516 angstrom
           Maximum rank =  0   Radius =  0.650 angstrom
                   Q00  =  -0.226815

C          x = -2.324274  y = -1.217295  z = -0.235516 angstrom
           Maximum rank =  0   Radius =  0.650 angstrom
                   Q00  =  -0.241888

H          x = -2.619274  y = -2.822295  z = -1.648516 angstrom
           Maximum rank =  0   Radius =  0.325 angstrom
                   Q00  =   0.048970

H          x = -1.463274  y = -1.615295  z = -2.101516 angstrom
           Maximum rank =  0   Radius =  0.325 angstrom
                   Q00  =   0.044897

H          x = -3.514274  y =  0.025705  z = -2.193516 angstrom
           Maximum rank =  0   Radius =  0.325 angstrom
                   Q00  =   0.076311

H          x = -1.342274  y = -1.510295  z =  0.120484 angstrom
           Maximum rank =  0   Radius =  0.325 angstrom
                   Q00  =   0.092211

H          x = -2.350274  y = -0.127295  z = -0.247516 angstrom
           Maximum rank =  0   Radius =  0.325 angstrom
                   Q00  =   0.082634

H          x = -4.448224  y = -1.504868  z = -2.482622 angstrom
           Maximum rank =  0   Radius =  0.325 angstrom
                   Q00  =   0.076869

H          x = -3.141164  y = -1.017575  z = -3.568603 angstrom
           Maximum rank =  0   Radius =  0.325 angstrom
                   Q00  =   0.079226

H          x = -3.034204  y = -1.607061  z =  0.508854 angstrom
           Maximum rank =  0   Radius =  0.325 angstrom
                   Q00  =   0.069145

C          x =  1.177726  y = -0.439295  z = -1.995516 angstrom
           Maximum rank =  0   Radius =  0.650 angstrom
                   Q00  =  -0.055956

C          x =  2.553726  y =  0.018705  z = -2.524516 angstrom
           Maximum rank =  0   Radius =  0.650 angstrom
                   Q00  =  -0.243803

C          x =  1.056726  y = -0.470295  z = -0.522516 angstrom
           Maximum rank =  0   Radius =  0.650 angstrom
                   Q00  =  -0.109255

C          x =  1.315726  y = -1.536295  z =  0.275484 angstrom
           Maximum rank =  0   Radius =  0.650 angstrom
                   Q00  =   0.064123

C          x =  0.640726  y =  0.587705  z =  0.326484 angstrom
           Maximum rank =  0   Radius =  0.650 angstrom
                   Q00  =  -0.029488

C          x =  0.653726  y =  0.085705  z =  1.663484 angstrom
           Maximum rank =  0   Radius =  0.650 angstrom
                   Q00  =   0.286569

C          x =  0.253726  y =  1.911705  z =  0.102484 angstrom
           Maximum rank =  0   Radius =  0.650 angstrom
                   Q00  =  -0.110012

C          x =  0.302726  y =  0.864705  z =  2.758484 angstrom
           Maximum rank =  0   Radius =  0.650 angstrom
                   Q00  =  -0.118415

C          x = -0.115274  y =  2.705705  z =  1.197484 angstrom
           Maximum rank =  0   Radius =  0.650 angstrom
                   Q00  =  -0.089579

C          x = -0.082274  y =  2.186705  z =  2.515484 angstrom
           Maximum rank =  0   Radius =  0.650 angstrom
                   Q00  =  -0.071810

N          x =  1.068726  y = -1.214295  z =  1.583484 angstrom
           Maximum rank =  0   Radius =  0.650 angstrom
                   Q00  =  -0.490866

H          x =  0.391726  y =  0.201705  z = -2.392516 angstrom
           Maximum rank =  0   Radius =  0.325 angstrom
                   Q00  =   0.074035

H          x =  0.992726  y = -1.446295  z = -2.370516 angstrom
           Maximum rank =  0   Radius =  0.325 angstrom
                   Q00  =   0.069119

H          x =  2.585726  y = -0.163295  z = -3.600516 angstrom
           Maximum rank =  0   Radius =  0.325 angstrom
                   Q00  =   0.079385

H          x =  1.651726  y = -2.506295  z = -0.079516 angstrom
           Maximum rank =  0   Radius =  0.325 angstrom
                   Q00  =   0.098573

H          x =  1.227726  y = -1.841295  z =  2.365484 angstrom
           Maximum rank =  0   Radius =  0.325 angstrom
                   Q00  =   0.219029

H          x =  0.221726  y =  2.291705  z = -0.899516 angstrom
           Maximum rank =  0   Radius =  0.325 angstrom
                   Q00  =   0.070885

H          x =  0.333726  y =  0.464705  z =  3.762484 angstrom
           Maximum rank =  0   Radius =  0.325 angstrom
                   Q00  =   0.074870

H          x = -0.424274  y =  3.731705  z =  1.039484 angstrom
           Maximum rank =  0   Radius =  0.325 angstrom
                   Q00  =   0.063643

H          x = -0.364274  y =  2.822705  z =  3.345484 angstrom
           Maximum rank =  0   Radius =  0.325 angstrom
                   Q00  =   0.068126

H          x =  3.388166  y = -0.500665  z = -2.030588 angstrom
           Maximum rank =  0   Radius =  0.325 angstrom
                   Q00  =   0.085224

H          x =  2.697546  y =  1.097355  z = -2.363819 angstrom
           Maximum rank =  0   Radius =  0.325 angstrom
                   Q00  =   0.083703

Total multipoles referred to origin at
           x =   0.000000,  y =    0.000000,  z =    0.000000 angstrom
                   Q00  =  -0.000000

Finished at 12:34:24 on 27 Apr 2020

  DMA results are available in the Python driver through the
	  variable('DMA DISTRIBUTED MULTIPOLES')
  and
	  variable('DMA TOTAL MULTIPOLES')
  commands.

    Psi4 stopped on: Monday, 27 April 2020 12:34PM
    Psi4 wall time for execution: 0:35:48.80

*** Psi4 exiting successfully. Buy a developer a beer!
