                               Psi4 1.3.2 release

  ==> Input File <==

--------------------------------------------------------------------------
import numpy as np
set {scf_type pk
basis cc-pvdz
d_convergence 10
gdma_switch   0
gdma_limit    0
gdma_origin   [ 0.0,  0.0,  0.0 ]
}
molecule test {
    units Angstrom
    1 1
    --
    1 1
    C                1.257772569427022     0.132275407099428     1.947439124141353
    C                1.729772569427022    -0.439724592900572     0.617439124141353
    O                1.126772569427022    -0.207724592900572    -0.429560875858647
    N                2.814772569427022    -1.191724592900572     0.656439124141353
    H                2.110772569427022     0.573275407099428     2.467439124141353
    H                0.891772569427022    -0.702724592900572     2.550439124141353
    H                3.134772569427022    -1.604724592900572    -0.207560875858647
    H                3.265772569427023    -1.411724592900572     1.531439124141353
    H                0.462452569427022     0.884524407099428     1.839769124141353
    C               -2.155227430572978     0.008275407099428    -0.657560875858647
    C               -3.517227430572978     0.471275407099428    -1.109560875858647
    N               -1.181227430572978     1.109275407099428    -0.896560875858647
    H               -2.189227430572978    -0.306724592900572     0.389439124141353
    H               -1.877227430572977    -0.869724592900572    -1.253560875858647
    H               -4.223227430572978    -0.360724592900572    -1.052560875858647
    H               -3.476227430572977     0.799275407099428    -2.150560875858647
    H               -1.409227430572978     1.934275407099428    -0.349560875858647
    H               -0.224227430572978     0.785275407099428    -0.751560875858647
    H               -1.214227430572978     1.370275407099428    -1.880560875858647
    H               -3.862937430572978     1.302579407099428    -0.477570875858647

}
e, wfn = energy('scf', return_wfn=True)
gdma(wfn)
dmavals = variable('DMA DISTRIBUTED MULTIPOLES')
charges = np.array(dmavals)
print(charges)
np.save('SSI-059ASN-062LYS-2-dimer.npy', np.array(charges))--------------------------------------------------------------------------

*** tstart() called on ds3
*** at Tue Apr 28 14:38:40 2020

   => Loading Basis Set <=

    Name: CC-PVDZ
    Role: ORBITAL
    Keyword: BASIS
    atoms 1-2, 10-11 entry C          line   138 file /theoryfs2/ds/metcalf/miniconda2/envs/tf2gpu/share/psi4/basis/cc-pvdz.gbs
    atoms 3          entry O          line   198 file /theoryfs2/ds/metcalf/miniconda2/envs/tf2gpu/share/psi4/basis/cc-pvdz.gbs
    atoms 4, 12      entry N          line   168 file /theoryfs2/ds/metcalf/miniconda2/envs/tf2gpu/share/psi4/basis/cc-pvdz.gbs
    atoms 5-9, 13-20 entry H          line    22 file /theoryfs2/ds/metcalf/miniconda2/envs/tf2gpu/share/psi4/basis/cc-pvdz.gbs

         ---------------------------------------------------------
                                   SCF
               by Justin Turney, Rob Parrish, Andy Simmonett
                          and Daniel G. A. Smith
                              RHF Reference
                        1 Threads,    500 MiB Core
         ---------------------------------------------------------

  ==> Geometry <==

    Molecular point group: c1
    Full point group: C1

    Geometry (in Angstrom), charge = 1, multiplicity = 1:

       Center              X                  Y                   Z               Mass
    ------------   -----------------  -----------------  -----------------  -----------------
         C            1.257772569427     0.132275407099     1.947439124141    12.000000000000
         C            1.729772569427    -0.439724592901     0.617439124141    12.000000000000
         O            1.126772569427    -0.207724592901    -0.429560875859    15.994914619570
         N            2.814772569427    -1.191724592901     0.656439124141    14.003074004430
         H            2.110772569427     0.573275407099     2.467439124141     1.007825032230
         H            0.891772569427    -0.702724592901     2.550439124141     1.007825032230
         H            3.134772569427    -1.604724592901    -0.207560875859     1.007825032230
         H            3.265772569427    -1.411724592901     1.531439124141     1.007825032230
         H            0.462452569427     0.884524407099     1.839769124141     1.007825032230
         C           -2.155227430573     0.008275407099    -0.657560875859    12.000000000000
         C           -3.517227430573     0.471275407099    -1.109560875859    12.000000000000
         N           -1.181227430573     1.109275407099    -0.896560875859    14.003074004430
         H           -2.189227430573    -0.306724592901     0.389439124141     1.007825032230
         H           -1.877227430573    -0.869724592901    -1.253560875859     1.007825032230
         H           -4.223227430573    -0.360724592901    -1.052560875859     1.007825032230
         H           -3.476227430573     0.799275407099    -2.150560875859     1.007825032230
         H           -1.409227430573     1.934275407099    -0.349560875859     1.007825032230
         H           -0.224227430573     0.785275407099    -0.751560875859     1.007825032230
         H           -1.214227430573     1.370275407099    -1.880560875859     1.007825032230
         H           -3.862937430573     1.302579407099    -0.477570875859     1.007825032230

  Running in c1 symmetry.

  Rotational constants: A =      0.19409  B =      0.02739  C =      0.02621 [cm^-1]
  Rotational constants: A =   5818.62353  B =    821.01126  C =    785.75229 [MHz]
  Nuclear repulsion =  318.584225081658076

  Charge       = 1
  Multiplicity = 1
  Electrons    = 58
  Nalpha       = 29
  Nbeta        = 29

  ==> Algorithm <==

  SCF Algorithm Type is PK.
  DIIS enabled.
  MOM disabled.
  Fractional occupation disabled.
  Guess Type is SAD.
  Energy threshold   = 1.00e-06
  Density threshold  = 1.00e-10
  Integral threshold = 0.00e+00

  ==> Primary Basis <==

  Basis Set: CC-PVDZ
    Blend: CC-PVDZ
    Number of shells: 81
    Number of basis function: 163
    Number of Cartesian functions: 170
    Spherical Harmonics?: true
    Max angular momentum: 2

  ==> Pre-Iterations <==

   -------------------------------------------------------
    Irrep   Nso     Nmo     Nalpha   Nbeta   Ndocc  Nsocc
   -------------------------------------------------------
     A        163     163       0       0       0       0
   -------------------------------------------------------
    Total     163     163      29      29      29       0
   -------------------------------------------------------

  ==> Integral Setup <==

  Using integral reordering PK algorithm.
  Sizing the integral batches needed.
  Building batch lookup table.
   Calculation information:
      Number of atoms:                  20
      Number of AO shells:              81
      Number of primitives:            219
      Number of atomic orbitals:       170
      Number of basis functions:       163

      Integral cutoff                 1.00e-12
      Number of threads:                 1

	Batch   1 pq = [       0,    9405] index = [             0,44231715] size =     44231715
	Batch   2 pq = [    9405,   13366] index = [      44231715,89331661] size =     45099946
  Task number: 9
  Buffer size: 11059200
  Buffer per thread: 2
  We computed 4700623 shell quartets total.
  Whereas there are 5516181 unique shell quartets.

  ==> DiskJK: Disk-Based J/K Matrices <==

    J tasked:                  Yes
    K tasked:                  Yes
    wK tasked:                  No
    Memory [MiB]:              375
    Schwarz Cutoff:          1E-12

    OpenMP threads:              1

  Minimum eigenvalue in the overlap matrix is 4.6687207384E-03.
  Using Symmetric Orthogonalization.

  SCF Guess: Superposition of Atomic Densities via on-the-fly atomic UHF.

  ==> Iterations <==

                        Total Energy        Delta E     RMS |[F,P]|

   @RHF iter SAD:  -341.88468936449749   -3.41885e+02   0.00000e+00
   @RHF iter   1:  -342.45280411322494   -5.68115e-01   3.75049e-03 DIIS
   @RHF iter   2:  -342.62676974953143   -1.73966e-01   1.79683e-03 DIIS
   @RHF iter   3:  -342.66054235878585   -3.37726e-02   4.71455e-04 DIIS
   @RHF iter   4:  -342.66391089637301   -3.36854e-03   1.64796e-04 DIIS
   @RHF iter   5:  -342.66432643909155   -4.15543e-04   2.88311e-05 DIIS
   @RHF iter   6:  -342.66434874744903   -2.23084e-05   1.11075e-05 DIIS
   @RHF iter   7:  -342.66435133514807   -2.58770e-06   3.39127e-06 DIIS
   @RHF iter   8:  -342.66435179012660   -4.54979e-07   1.23286e-06 DIIS
   @RHF iter   9:  -342.66435184842328   -5.82967e-08   3.50807e-07 DIIS
   @RHF iter  10:  -342.66435185344824   -5.02496e-09   1.17511e-07 DIIS
   @RHF iter  11:  -342.66435185388974   -4.41503e-10   3.16547e-08 DIIS
   @RHF iter  12:  -342.66435185391924   -2.95017e-11   7.69205e-09 DIIS
   @RHF iter  13:  -342.66435185392072   -1.47793e-12   1.84566e-09 DIIS
   @RHF iter  14:  -342.66435185392152   -7.95808e-13   7.62210e-10 DIIS
   @RHF iter  15:  -342.66435185392038    1.13687e-12   2.50305e-10 DIIS
   @RHF iter  16:  -342.66435185391941    9.66338e-13   1.04589e-10 DIIS
   @RHF iter  17:  -342.66435185391992   -5.11591e-13   4.31074e-11 DIIS
  Energy and wave function converged.

  ==> Post-Iterations <==

    Orbital Energies [Eh]
    ---------------------

    Doubly Occupied:

       1A    -20.667588     2A    -15.845686     3A    -15.724012
       4A    -11.501891     5A    -11.450200     6A    -11.382877
       7A    -11.379426     8A     -1.531302     9A     -1.474148
      10A     -1.359302    11A     -1.194228    12A     -1.137110
      13A     -1.024234    14A     -0.954986    15A     -0.935209
      16A     -0.911815    17A     -0.860700    18A     -0.825945
      19A     -0.808396    20A     -0.770027    21A     -0.754385
      22A     -0.726307    23A     -0.700163    24A     -0.690103
      25A     -0.681781    26A     -0.665323    27A     -0.661847
      28A     -0.572239    29A     -0.556000

    Virtual:

      30A     -0.010998    31A      0.035468    32A      0.049777
      33A      0.057007    34A      0.059147    35A      0.085393
      36A      0.102353    37A      0.110646    38A      0.126010
      39A      0.130853    40A      0.137990    41A      0.151910
      42A      0.152689    43A      0.181760    44A      0.211085
      45A      0.227304    46A      0.256052    47A      0.358075
      48A      0.397039    49A      0.418415    50A      0.433648
      51A      0.441479    52A      0.470605    53A      0.473465
      54A      0.502985    55A      0.518987    56A      0.563711
      57A      0.591209    58A      0.611762    59A      0.616262
      60A      0.635269    61A      0.665259    62A      0.680065
      63A      0.689583    64A      0.708336    65A      0.719539
      66A      0.726577    67A      0.732713    68A      0.733865
      69A      0.742150    70A      0.760717    71A      0.781902
      72A      0.792226    73A      0.800213    74A      0.832074
      75A      0.865436    76A      0.878595    77A      0.887471
      78A      0.905211    79A      0.944098    80A      0.958136
      81A      0.979196    82A      0.990803    83A      1.040358
      84A      1.108508    85A      1.195383    86A      1.211591
      87A      1.243221    88A      1.250878    89A      1.289487
      90A      1.297230    91A      1.303527    92A      1.311266
      93A      1.348403    94A      1.402442    95A      1.465085
      96A      1.507278    97A      1.518177    98A      1.521871
      99A      1.524983   100A      1.544128   101A      1.601100
     102A      1.642393   103A      1.666613   104A      1.701549
     105A      1.713985   106A      1.722276   107A      1.747942
     108A      1.762168   109A      1.766226   110A      1.774637
     111A      1.784374   112A      1.785137   113A      1.787032
     114A      1.805456   115A      1.817273   116A      1.843729
     117A      1.862566   118A      1.891727   119A      1.920663
     120A      1.939622   121A      1.954865   122A      1.992206
     123A      2.003005   124A      2.020142   125A      2.063956
     126A      2.095769   127A      2.124599   128A      2.144488
     129A      2.178617   130A      2.202128   131A      2.224992
     132A      2.266552   133A      2.306769   134A      2.328813
     135A      2.362877   136A      2.377319   137A      2.398714
     138A      2.407186   139A      2.455705   140A      2.477666
     141A      2.524388   142A      2.569006   143A      2.573958
     144A      2.586152   145A      2.608086   146A      2.617610
     147A      2.654459   148A      2.662773   149A      2.705318
     150A      2.729178   151A      2.783432   152A      2.822321
     153A      2.881689   154A      2.885930   155A      2.968311
     156A      2.993827   157A      3.134923   158A      3.161831
     159A      3.286573   160A      3.350097   161A      3.390913
     162A      3.742119   163A      3.773959

    Final Occupation by Irrep:
              A
    DOCC [    29 ]

  @RHF Final Energy:  -342.66435185391992

   => Energetics <=

    Nuclear Repulsion Energy =            318.5842250816580759
    One-Electron Energy =               -1087.0026958070234286
    Two-Electron Energy =                 425.7541188714453710
    Total Energy =                       -342.6643518539199249

Computation Completed

Properties will be evaluated at   0.000000,   0.000000,   0.000000 [a0]

Properties computed using the SCF density matrix

  Nuclear Dipole Moment: [e a0]
     X:    -8.0719      Y:     2.2427      Z:     0.6127

  Electronic Dipole Moment: [e a0]
     X:     7.2143      Y:    -1.4875      Z:    -0.5877

  Dipole Moment: [e a0]
     X:    -0.8575      Y:     0.7552      Z:     0.0250     Total:     1.1430

  Dipole Moment: [D]
     X:    -2.1797      Y:     1.9196      Z:     0.0636     Total:     2.9052

*** tstop() called on ds3 at Tue Apr 28 14:39:24 2020
Module time:
	user time   =      31.04 seconds =       0.52 minutes
	system time =      14.89 seconds =       0.25 minutes
	total time  =         44 seconds =       0.73 minutes
Total time:
	user time   =      31.04 seconds =       0.52 minutes
	system time =      14.89 seconds =       0.25 minutes
	total time  =         44 seconds =       0.73 minutes
                                     G D M A

                                 by Anthony Stone

                           version 2.2.06, 22 June 2011

               Distributed Multipoles from Gaussian wavefunctions

Starting at 14:39:24 on 28 Apr 2020

Using SCF density matrix from file ./SSI/SSI-059ASN-062LYS-2-dimer.test.6378.fchk

                         Distributed Multipole Analysis

Standard DMA

Positions and radii in angstrom
Multipole moments in atomic units, ea_0^k for rank k

C          x =  1.257773  y =  0.132275  z =  1.947439 angstrom
           Maximum rank =  0   Radius =  0.650 angstrom
                   Q00  =  -0.268506

C          x =  1.729773  y = -0.439725  z =  0.617439 angstrom
           Maximum rank =  0   Radius =  0.650 angstrom
                   Q00  =   0.806985

O          x =  1.126773  y = -0.207725  z = -0.429561 angstrom
           Maximum rank =  0   Radius =  0.650 angstrom
                   Q00  =  -0.835881

N          x =  2.814773  y = -1.191725  z =  0.656439 angstrom
           Maximum rank =  0   Radius =  0.650 angstrom
                   Q00  =  -0.546266

H          x =  2.110773  y =  0.573275  z =  2.467439 angstrom
           Maximum rank =  0   Radius =  0.325 angstrom
                   Q00  =   0.132890

H          x =  0.891773  y = -0.702725  z =  2.550439 angstrom
           Maximum rank =  0   Radius =  0.325 angstrom
                   Q00  =   0.137646

H          x =  3.134773  y = -1.604725  z = -0.207561 angstrom
           Maximum rank =  0   Radius =  0.325 angstrom
                   Q00  =   0.247060

H          x =  3.265773  y = -1.411725  z =  1.531439 angstrom
           Maximum rank =  0   Radius =  0.325 angstrom
                   Q00  =   0.241247

H          x =  0.462453  y =  0.884524  z =  1.839769 angstrom
           Maximum rank =  0   Radius =  0.325 angstrom
                   Q00  =   0.106707

C          x = -2.155227  y =  0.008275  z = -0.657561 angstrom
           Maximum rank =  0   Radius =  0.650 angstrom
                   Q00  =  -0.000537

C          x = -3.517227  y =  0.471275  z = -1.109561 angstrom
           Maximum rank =  0   Radius =  0.650 angstrom
                   Q00  =  -0.243141

N          x = -1.181227  y =  1.109275  z = -0.896561 angstrom
           Maximum rank =  0   Radius =  0.650 angstrom
                   Q00  =  -0.178776

H          x = -2.189227  y = -0.306725  z =  0.389439 angstrom
           Maximum rank =  0   Radius =  0.325 angstrom
                   Q00  =   0.122929

H          x = -1.877227  y = -0.869725  z = -1.253561 angstrom
           Maximum rank =  0   Radius =  0.325 angstrom
                   Q00  =   0.125931

H          x = -4.223227  y = -0.360725  z = -1.052561 angstrom
           Maximum rank =  0   Radius =  0.325 angstrom
                   Q00  =   0.142687

H          x = -3.476227  y =  0.799275  z = -2.150561 angstrom
           Maximum rank =  0   Radius =  0.325 angstrom
                   Q00  =   0.096561

H          x = -1.409227  y =  1.934275  z = -0.349561 angstrom
           Maximum rank =  0   Radius =  0.325 angstrom
                   Q00  =   0.238785

H          x = -0.224227  y =  0.785275  z = -0.751561 angstrom
           Maximum rank =  0   Radius =  0.325 angstrom
                   Q00  =   0.344355

H          x = -1.214227  y =  1.370275  z = -1.880561 angstrom
           Maximum rank =  0   Radius =  0.325 angstrom
                   Q00  =   0.230867

H          x = -3.862937  y =  1.302579  z = -0.477571 angstrom
           Maximum rank =  0   Radius =  0.325 angstrom
                   Q00  =   0.098457

Total multipoles referred to origin at
           x =   0.000000,  y =    0.000000,  z =    0.000000 angstrom
                   Q00  =   1.000000

Finished at 14:39:24 on 28 Apr 2020

  DMA results are available in the Python driver through the
	  variable('DMA DISTRIBUTED MULTIPOLES')
  and
	  variable('DMA TOTAL MULTIPOLES')
  commands.

    Psi4 stopped on: Tuesday, 28 April 2020 02:39PM
    Psi4 wall time for execution: 0:00:43.92

*** Psi4 exiting successfully. Buy a developer a beer!
