                               Psi4 1.3.2 release

  ==> Input File <==

--------------------------------------------------------------------------
import numpy as np
set {scf_type pk
basis cc-pvdz
d_convergence 10
gdma_switch   0
gdma_limit    0
gdma_origin   [ 0.0,  0.0,  0.0 ]
}
molecule test {
    units Angstrom
    0 1
    --
    0 1
    C               -0.807894222433123    -0.958939045148765     0.409801177652693
    C               -0.453894222433123    -1.895939045148765    -0.716198822347307
    C               -2.093894222433123    -1.535939045148765     0.997801177652693
    H               -0.935894222433123     0.066060954851235     0.055801177652693
    H               -0.028894222433123    -0.990939045148765     1.171801177652693
    H               -1.017894222433123    -1.622939045148765    -1.610198822347307
    H                0.613105777566877    -1.883939045148765    -0.928198822347307
    H               -2.072894222433123    -1.445939045148765     2.081801177652693
    H               -0.779314222433123    -2.886081045148765    -0.364458822347307
    H               -2.058494222433123    -2.598671045148765     0.716111177652693
    H               -2.973584222433123    -1.008989045148765     0.599711177652693
    C                1.938105777566877     1.459060954851235    -0.317198822347307
    C                1.367105777566877     2.881060954851235    -0.353198822347307
    H                3.007105777566877     1.473060954851235    -0.536198822347307
    H                1.773105777566877     1.023060954851235     0.666801177652693
    H                1.430105777566877     0.810060954851235    -1.031198822347307
    H                0.302105777566877     2.822060954851235    -0.123198822347307
    H                1.487235777566877     3.331000954851235    -1.349748822347307
    H                1.855155777566877     3.515810954851235     0.401061177652693

}
e, wfn = energy('scf', return_wfn=True)
gdma(wfn)
dmavals = variable('DMA DISTRIBUTED MULTIPOLES')
charges = np.array(dmavals)
print(charges)
np.save('SSI-130PRO-135ILE-1-dimer.npy', np.array(charges))--------------------------------------------------------------------------

*** tstart() called on ds3
*** at Mon Apr 27 12:30:55 2020

   => Loading Basis Set <=

    Name: CC-PVDZ
    Role: ORBITAL
    Keyword: BASIS
    atoms 1-3, 12-13  entry C          line   138 file /theoryfs2/ds/metcalf/miniconda2/envs/tf2gpu/share/psi4/basis/cc-pvdz.gbs
    atoms 4-11, 14-19 entry H          line    22 file /theoryfs2/ds/metcalf/miniconda2/envs/tf2gpu/share/psi4/basis/cc-pvdz.gbs

         ---------------------------------------------------------
                                   SCF
               by Justin Turney, Rob Parrish, Andy Simmonett
                          and Daniel G. A. Smith
                              RHF Reference
                        1 Threads,    500 MiB Core
         ---------------------------------------------------------

  ==> Geometry <==

    Molecular point group: c1
    Full point group: C1

    Geometry (in Angstrom), charge = 0, multiplicity = 1:

       Center              X                  Y                   Z               Mass
    ------------   -----------------  -----------------  -----------------  -----------------
         C           -0.807894222433    -0.958939045149     0.409801177653    12.000000000000
         C           -0.453894222433    -1.895939045149    -0.716198822347    12.000000000000
         C           -2.093894222433    -1.535939045149     0.997801177653    12.000000000000
         H           -0.935894222433     0.066060954851     0.055801177653     1.007825032230
         H           -0.028894222433    -0.990939045149     1.171801177653     1.007825032230
         H           -1.017894222433    -1.622939045149    -1.610198822347     1.007825032230
         H            0.613105777567    -1.883939045149    -0.928198822347     1.007825032230
         H           -2.072894222433    -1.445939045149     2.081801177653     1.007825032230
         H           -0.779314222433    -2.886081045149    -0.364458822347     1.007825032230
         H           -2.058494222433    -2.598671045149     0.716111177653     1.007825032230
         H           -2.973584222433    -1.008989045149     0.599711177653     1.007825032230
         C            1.938105777567     1.459060954851    -0.317198822347    12.000000000000
         C            1.367105777567     2.881060954851    -0.353198822347    12.000000000000
         H            3.007105777567     1.473060954851    -0.536198822347     1.007825032230
         H            1.773105777567     1.023060954851     0.666801177653     1.007825032230
         H            1.430105777567     0.810060954851    -1.031198822347     1.007825032230
         H            0.302105777567     2.822060954851    -0.123198822347     1.007825032230
         H            1.487235777567     3.331000954851    -1.349748822347     1.007825032230
         H            1.855155777567     3.515810954851     0.401061177653     1.007825032230

  Running in c1 symmetry.

  Rotational constants: A =      0.24452  B =      0.03997  C =      0.03644 [cm^-1]
  Rotational constants: A =   7330.66989  B =   1198.26144  C =   1092.52887 [MHz]
  Nuclear repulsion =  179.309804954716213

  Charge       = 0
  Multiplicity = 1
  Electrons    = 44
  Nalpha       = 22
  Nbeta        = 22

  ==> Algorithm <==

  SCF Algorithm Type is PK.
  DIIS enabled.
  MOM disabled.
  Fractional occupation disabled.
  Guess Type is SAD.
  Energy threshold   = 1.00e-06
  Density threshold  = 1.00e-10
  Integral threshold = 0.00e+00

  ==> Primary Basis <==

  Basis Set: CC-PVDZ
    Blend: CC-PVDZ
    Number of shells: 72
    Number of basis function: 140
    Number of Cartesian functions: 145
    Spherical Harmonics?: true
    Max angular momentum: 2

  ==> Pre-Iterations <==

   -------------------------------------------------------
    Irrep   Nso     Nmo     Nalpha   Nbeta   Ndocc  Nsocc
   -------------------------------------------------------
     A        140     140       0       0       0       0
   -------------------------------------------------------
    Total     140     140      22      22      22       0
   -------------------------------------------------------

  ==> Integral Setup <==

  Using integral reordering PK algorithm.
  Sizing the integral batches needed.
  Building batch lookup table.
   Calculation information:
      Number of atoms:                  19
      Number of AO shells:              72
      Number of primitives:            180
      Number of atomic orbitals:       145
      Number of basis functions:       140

      Integral cutoff                 1.00e-12
      Number of threads:                 1

	Batch   1 pq = [       0,    9405] index = [             0,44231715] size =     44231715
	Batch   2 pq = [    9405,    9870] index = [      44231715,48713385] size =      4481670
  Task number: 5
  Buffer size: 11059200
  Buffer per thread: 2
  We computed 2848475 shell quartets total.
  Whereas there are 3454506 unique shell quartets.

  ==> DiskJK: Disk-Based J/K Matrices <==

    J tasked:                  Yes
    K tasked:                  Yes
    wK tasked:                  No
    Memory [MiB]:              375
    Schwarz Cutoff:          1E-12

    OpenMP threads:              1

  Minimum eigenvalue in the overlap matrix is 4.8030526822E-03.
  Using Symmetric Orthogonalization.

  SCF Guess: Superposition of Atomic Densities via on-the-fly atomic UHF.

  ==> Iterations <==

                        Total Energy        Delta E     RMS |[F,P]|

   @RHF iter SAD:  -196.48230527282817   -1.96482e+02   0.00000e+00
   @RHF iter   1:  -197.29156589418156   -8.09261e-01   3.85502e-03 DIIS
   @RHF iter   2:  -197.45341833991185   -1.61852e-01   1.68553e-03 DIIS
   @RHF iter   3:  -197.48322602089982   -2.98077e-02   3.29011e-04 DIIS
   @RHF iter   4:  -197.48545159750984   -2.22558e-03   5.05803e-05 DIIS
   @RHF iter   5:  -197.48549292018510   -4.13227e-05   1.54926e-05 DIIS
   @RHF iter   6:  -197.48549660707874   -3.68689e-06   2.53348e-06 DIIS
   @RHF iter   7:  -197.48549672554023   -1.18461e-07   4.64721e-07 DIIS
   @RHF iter   8:  -197.48549672982642   -4.28619e-09   1.08914e-07 DIIS
   @RHF iter   9:  -197.48549673005294   -2.26521e-10   3.35604e-08 DIIS
   @RHF iter  10:  -197.48549673007651   -2.35616e-11   7.52998e-09 DIIS
   @RHF iter  11:  -197.48549673007818   -1.67688e-12   1.48373e-09 DIIS
   @RHF iter  12:  -197.48549673007881   -6.25278e-13   3.05223e-10 DIIS
   @RHF iter  13:  -197.48549673007801    7.95808e-13   5.88782e-11 DIIS
  Energy and wave function converged.

  ==> Post-Iterations <==

    Orbital Energies [Eh]
    ---------------------

    Doubly Occupied:

       1A    -11.220167     2A    -11.216722     3A    -11.215047
       4A    -11.213420     5A    -11.212378     6A     -1.066266
       7A     -1.016623     8A     -0.915169     9A     -0.837619
      10A     -0.798099    11A     -0.635914    12A     -0.613887
      13A     -0.598167    14A     -0.594299    15A     -0.540212
      16A     -0.516809    17A     -0.501211    18A     -0.487330
      19A     -0.484652    20A     -0.482653    21A     -0.464567
      22A     -0.459011

    Virtual:

      23A      0.170657    24A      0.196115    25A      0.207639
      26A      0.219416    27A      0.230750    28A      0.251252
      29A      0.258115    30A      0.261622    31A      0.278820
      32A      0.283601    33A      0.300769    34A      0.312638
      35A      0.329906    36A      0.368920    37A      0.379593
      38A      0.398475    39A      0.436385    40A      0.562030
      41A      0.578508    42A      0.591894    43A      0.611180
      44A      0.620154    45A      0.631789    46A      0.645305
      47A      0.671610    48A      0.690300    49A      0.758688
      50A      0.774703    51A      0.814987    52A      0.840112
      53A      0.855868    54A      0.871524    55A      0.876843
      56A      0.890856    57A      0.893925    58A      0.897885
      59A      0.904164    60A      0.909462    61A      0.917196
      62A      0.918248    63A      0.927686    64A      0.944237
      65A      0.952478    66A      0.982614    67A      1.001620
      68A      1.007564    69A      1.084322    70A      1.109792
      71A      1.130139    72A      1.141431    73A      1.192630
      74A      1.241046    75A      1.412316    76A      1.466152
      77A      1.473891    78A      1.483431    79A      1.490067
      80A      1.572993    81A      1.608943    82A      1.633976
      83A      1.641896    84A      1.682562    85A      1.696767
      86A      1.722351    87A      1.736186    88A      1.808881
      89A      1.855627    90A      1.866577    91A      1.871750
      92A      1.883824    93A      1.908559    94A      1.911769
      95A      1.926034    96A      1.936006    97A      1.937869
      98A      1.949144    99A      1.954759   100A      1.960790
     101A      1.969748   102A      1.976956   103A      1.998043
     104A      2.007828   105A      2.032901   106A      2.068388
     107A      2.093895   108A      2.106089   109A      2.114263
     110A      2.158917   111A      2.229560   112A      2.238838
     113A      2.299263   114A      2.306946   115A      2.326190
     116A      2.349030   117A      2.423707   118A      2.450186
     119A      2.457906   120A      2.465104   121A      2.515707
     122A      2.551331   123A      2.552088   124A      2.575183
     125A      2.636907   126A      2.702242   127A      2.758261
     128A      2.761105   129A      2.779447   130A      2.790450
     131A      2.792298   132A      2.840034   133A      2.851989
     134A      2.857940   135A      2.861845   136A      2.912926
     137A      2.933728   138A      2.962717   139A      2.969327
     140A      3.064911

    Final Occupation by Irrep:
              A
    DOCC [    22 ]

  @RHF Final Energy:  -197.48549673007801

   => Energetics <=

    Nuclear Repulsion Energy =            179.3098049547162134
    One-Electron Energy =                -619.4101613231100600
    Two-Electron Energy =                 242.6148596383158065
    Total Energy =                       -197.4854967300780118

Computation Completed

Properties will be evaluated at   0.000000,   0.000000,   0.000000 [a0]

Properties computed using the SCF density matrix

  Nuclear Dipole Moment: [e a0]
     X:     0.5634      Y:     0.5659      Z:    -0.2345

  Electronic Dipole Moment: [e a0]
     X:    -0.5477      Y:    -0.5475      Z:     0.2546

  Dipole Moment: [e a0]
     X:     0.0156      Y:     0.0184      Z:     0.0201     Total:     0.0314

  Dipole Moment: [D]
     X:     0.0398      Y:     0.0468      Z:     0.0510     Total:     0.0799

*** tstop() called on ds3 at Mon Apr 27 12:31:15 2020
Module time:
	user time   =      14.42 seconds =       0.24 minutes
	system time =       5.78 seconds =       0.10 minutes
	total time  =         20 seconds =       0.33 minutes
Total time:
	user time   =      14.42 seconds =       0.24 minutes
	system time =       5.78 seconds =       0.10 minutes
	total time  =         20 seconds =       0.33 minutes
                                     G D M A

                                 by Anthony Stone

                           version 2.2.06, 22 June 2011

               Distributed Multipoles from Gaussian wavefunctions

Starting at 12:31:15 on 27 Apr 2020

Using SCF density matrix from file ./SSI/SSI-130PRO-135ILE-1-dimer.test.3422.fchk

                         Distributed Multipole Analysis

Standard DMA

Positions and radii in angstrom
Multipole moments in atomic units, ea_0^k for rank k

C          x = -0.807894  y = -0.958939  z =  0.409801 angstrom
           Maximum rank =  0   Radius =  0.650 angstrom
                   Q00  =  -0.110435

C          x = -0.453894  y = -1.895939  z = -0.716199 angstrom
           Maximum rank =  0   Radius =  0.650 angstrom
                   Q00  =  -0.203486

C          x = -2.093894  y = -1.535939  z =  0.997801 angstrom
           Maximum rank =  0   Radius =  0.650 angstrom
                   Q00  =  -0.231429

H          x = -0.935894  y =  0.066061  z =  0.055801 angstrom
           Maximum rank =  0   Radius =  0.325 angstrom
                   Q00  =   0.054835

H          x = -0.028894  y = -0.990939  z =  1.171801 angstrom
           Maximum rank =  0   Radius =  0.325 angstrom
                   Q00  =   0.052440

H          x = -1.017894  y = -1.622939  z = -1.610199 angstrom
           Maximum rank =  0   Radius =  0.325 angstrom
                   Q00  =   0.075389

H          x =  0.613106  y = -1.883939  z = -0.928199 angstrom
           Maximum rank =  0   Radius =  0.325 angstrom
                   Q00  =   0.081201

H          x = -2.072894  y = -1.445939  z =  2.081801 angstrom
           Maximum rank =  0   Radius =  0.325 angstrom
                   Q00  =   0.086315

H          x = -0.779314  y = -2.886081  z = -0.364459 angstrom
           Maximum rank =  0   Radius =  0.325 angstrom
                   Q00  =   0.050979

H          x = -2.058494  y = -2.598671  z =  0.716111 angstrom
           Maximum rank =  0   Radius =  0.325 angstrom
                   Q00  =   0.063327

H          x = -2.973584  y = -1.008989  z =  0.599711 angstrom
           Maximum rank =  0   Radius =  0.325 angstrom
                   Q00  =   0.080648

C          x =  1.938106  y =  1.459061  z = -0.317199 angstrom
           Maximum rank =  0   Radius =  0.650 angstrom
                   Q00  =  -0.244509

C          x =  1.367106  y =  2.881061  z = -0.353199 angstrom
           Maximum rank =  0   Radius =  0.650 angstrom
                   Q00  =  -0.233572

H          x =  3.007106  y =  1.473061  z = -0.536199 angstrom
           Maximum rank =  0   Radius =  0.325 angstrom
                   Q00  =   0.079136

H          x =  1.773106  y =  1.023061  z =  0.666801 angstrom
           Maximum rank =  0   Radius =  0.325 angstrom
                   Q00  =   0.080403

H          x =  1.430106  y =  0.810061  z = -1.031199 angstrom
           Maximum rank =  0   Radius =  0.325 angstrom
                   Q00  =   0.081230

H          x =  0.302106  y =  2.822061  z = -0.123199 angstrom
           Maximum rank =  0   Radius =  0.325 angstrom
                   Q00  =   0.077112

H          x =  1.487236  y =  3.331001  z = -1.349749 angstrom
           Maximum rank =  0   Radius =  0.325 angstrom
                   Q00  =   0.079852

H          x =  1.855156  y =  3.515811  z =  0.401061 angstrom
           Maximum rank =  0   Radius =  0.325 angstrom
                   Q00  =   0.080563

Total multipoles referred to origin at
           x =   0.000000,  y =    0.000000,  z =    0.000000 angstrom
                   Q00  =  -0.000000

Finished at 12:31:15 on 27 Apr 2020

  DMA results are available in the Python driver through the
	  variable('DMA DISTRIBUTED MULTIPOLES')
  and
	  variable('DMA TOTAL MULTIPOLES')
  commands.

    Psi4 stopped on: Monday, 27 April 2020 12:31PM
    Psi4 wall time for execution: 0:00:19.87

*** Psi4 exiting successfully. Buy a developer a beer!
