                               Psi4 1.3.2 release

  ==> Input File <==

--------------------------------------------------------------------------
import numpy as np
set {scf_type pk
basis cc-pvdz
d_convergence 10
gdma_switch   0
gdma_limit    0
gdma_origin   [ 0.0,  0.0,  0.0 ]
}
molecule test {
    units Angstrom
    0 1
    --
    0 1
    C                0.916758182430328     2.906285540689782    -0.283521449303734
    C                0.819758182430328     0.406285540689783     0.079478550696266
    C                0.477758182430328     1.528285540689783    -0.692521449303734
    C                0.452758182430328    -0.878714459310217    -0.313521449303734
    C               -0.286241817569672     1.329285540689783    -1.839521449303734
    C               -0.266241817569672    -1.070714459310217    -1.498521449303734
    C               -0.659241817569672     0.032285540689783    -2.229521449303734
    O               -0.694241817569672    -2.293714459310217    -1.933521449303734
    H                1.394758182430328     0.536285540689783     0.987478550696266
    H                0.729758182430328    -1.736714459310217     0.276478550696266
    H                1.688758182430328     3.227285540689782    -0.978521449303734
    H                1.383758182430328     2.824285540689782     0.689478550696266
    H               -0.582241817569672     2.177285540689783    -2.440521449303734
    H               -1.257241817569672    -0.113714459310217    -3.107521449303734
    H               -1.241241817569672    -2.232714459310218    -2.719521449303735
    H                0.145981182430328     3.690795540689783    -0.262551449303734
    C                0.202758182430328    -0.202714459310217     3.819478550696266
    C               -0.781241817569672    -1.312714459310217     4.155478550696266
    H               -0.264241817569672     0.521285540689783     3.149478550696266
    H                0.516758182430328     0.301285540689783     4.733478550696265
    H                1.082758182430328    -0.628714459310217     3.336478550696266
    H               -0.248241817569672    -2.011714459310217     4.799478550696266
    H               -1.130199817569672    -1.825004459310217     3.246748550696266
    H               -1.641188817569672    -0.922794459310217     4.719798550696265

}
e, wfn = energy('scf', return_wfn=True)
gdma(wfn)
dmavals = variable('DMA DISTRIBUTED MULTIPOLES')
charges = np.array(dmavals)
print(charges)
np.save('SSI-079TYR-112LEU-2-dimer.npy', np.array(charges))--------------------------------------------------------------------------

*** tstart() called on ds3
*** at Mon Apr 27 22:22:05 2020

   => Loading Basis Set <=

    Name: CC-PVDZ
    Role: ORBITAL
    Keyword: BASIS
    atoms 1-7, 17-18  entry C          line   138 file /theoryfs2/ds/metcalf/miniconda2/envs/tf2gpu/share/psi4/basis/cc-pvdz.gbs
    atoms 8           entry O          line   198 file /theoryfs2/ds/metcalf/miniconda2/envs/tf2gpu/share/psi4/basis/cc-pvdz.gbs
    atoms 9-16, 19-24 entry H          line    22 file /theoryfs2/ds/metcalf/miniconda2/envs/tf2gpu/share/psi4/basis/cc-pvdz.gbs

         ---------------------------------------------------------
                                   SCF
               by Justin Turney, Rob Parrish, Andy Simmonett
                          and Daniel G. A. Smith
                              RHF Reference
                        1 Threads,    500 MiB Core
         ---------------------------------------------------------

  ==> Geometry <==

    Molecular point group: c1
    Full point group: C1

    Geometry (in Angstrom), charge = 0, multiplicity = 1:

       Center              X                  Y                   Z               Mass
    ------------   -----------------  -----------------  -----------------  -----------------
         C            0.916758182430     2.906285540690    -0.283521449304    12.000000000000
         C            0.819758182430     0.406285540690     0.079478550696    12.000000000000
         C            0.477758182430     1.528285540690    -0.692521449304    12.000000000000
         C            0.452758182430    -0.878714459310    -0.313521449304    12.000000000000
         C           -0.286241817570     1.329285540690    -1.839521449304    12.000000000000
         C           -0.266241817570    -1.070714459310    -1.498521449304    12.000000000000
         C           -0.659241817570     0.032285540690    -2.229521449304    12.000000000000
         O           -0.694241817570    -2.293714459310    -1.933521449304    15.994914619570
         H            1.394758182430     0.536285540690     0.987478550696     1.007825032230
         H            0.729758182430    -1.736714459310     0.276478550696     1.007825032230
         H            1.688758182430     3.227285540690    -0.978521449304     1.007825032230
         H            1.383758182430     2.824285540690     0.689478550696     1.007825032230
         H           -0.582241817570     2.177285540690    -2.440521449304     1.007825032230
         H           -1.257241817570    -0.113714459310    -3.107521449304     1.007825032230
         H           -1.241241817570    -2.232714459310    -2.719521449304     1.007825032230
         H            0.145981182430     3.690795540690    -0.262551449304     1.007825032230
         C            0.202758182430    -0.202714459310     3.819478550696    12.000000000000
         C           -0.781241817570    -1.312714459310     4.155478550696    12.000000000000
         H           -0.264241817570     0.521285540690     3.149478550696     1.007825032230
         H            0.516758182430     0.301285540690     4.733478550696     1.007825032230
         H            1.082758182430    -0.628714459310     3.336478550696     1.007825032230
         H           -0.248241817570    -2.011714459310     4.799478550696     1.007825032230
         H           -1.130199817570    -1.825004459310     3.246748550696     1.007825032230
         H           -1.641188817570    -0.922794459310     4.719798550696     1.007825032230

  Running in c1 symmetry.

  Rotational constants: A =      0.04322  B =      0.02264  C =      0.01580 [cm^-1]
  Rotational constants: A =   1295.84848  B =    678.72271  C =    473.63272 [MHz]
  Nuclear repulsion =  487.079616312345706

  Charge       = 0
  Multiplicity = 1
  Electrons    = 76
  Nalpha       = 38
  Nbeta        = 38

  ==> Algorithm <==

  SCF Algorithm Type is PK.
  DIIS enabled.
  MOM disabled.
  Fractional occupation disabled.
  Guess Type is SAD.
  Energy threshold   = 1.00e-06
  Density threshold  = 1.00e-10
  Integral threshold = 0.00e+00

  ==> Primary Basis <==

  Basis Set: CC-PVDZ
    Blend: CC-PVDZ
    Number of shells: 102
    Number of basis function: 210
    Number of Cartesian functions: 220
    Spherical Harmonics?: true
    Max angular momentum: 2

  ==> Pre-Iterations <==

   -------------------------------------------------------
    Irrep   Nso     Nmo     Nalpha   Nbeta   Ndocc  Nsocc
   -------------------------------------------------------
     A        210     210       0       0       0       0
   -------------------------------------------------------
    Total     210     210      38      38      38       0
   -------------------------------------------------------

  ==> Integral Setup <==

  Using integral reordering PK algorithm.
  Sizing the integral batches needed.
  Building batch lookup table.
   Calculation information:
      Number of atoms:                  24
      Number of AO shells:             102
      Number of primitives:            290
      Number of atomic orbitals:       220
      Number of basis functions:       210

      Integral cutoff                 1.00e-12
      Number of threads:                 1

	Batch   1 pq = [       0,    9405] index = [             0,44231715] size =     44231715
	Batch   2 pq = [    9405,   13301] index = [      44231715,88464951] size =     44233236
	Batch   3 pq = [   13301,   16290] index = [      88464951,132690195] size =     44225244
	Batch   4 pq = [   16290,   18810] index = [     132690195,176917455] size =     44227260
	Batch   5 pq = [   18810,   21030] index = [     176917455,221140965] size =     44223510
	Batch   6 pq = [   21030,   22155] index = [     221140965,245433090] size =     24292125
  Task number: 23
  Buffer size: 11059200
  Buffer per thread: 2
  We computed 11122593 shell quartets total.
  Whereas there are 13799631 unique shell quartets.

  ==> DiskJK: Disk-Based J/K Matrices <==

    J tasked:                  Yes
    K tasked:                  Yes
    wK tasked:                  No
    Memory [MiB]:              375
    Schwarz Cutoff:          1E-12

    OpenMP threads:              1

  Minimum eigenvalue in the overlap matrix is 3.3099985027E-04.
  Using Symmetric Orthogonalization.

  SCF Guess: Superposition of Atomic Densities via on-the-fly atomic UHF.

  ==> Iterations <==

                        Total Energy        Delta E     RMS |[F,P]|

   @RHF iter SAD:  -422.67627193279759   -4.22676e+02   0.00000e+00
   @RHF iter   1:  -423.59829470818011   -9.22023e-01   2.98110e-03 DIIS
   @RHF iter   2:  -423.81485414751387   -2.16559e-01   1.25585e-03 DIIS
   @RHF iter   3:  -423.84968942369602   -3.48353e-02   2.80764e-04 DIIS
   @RHF iter   4:  -423.85254088393259   -2.85146e-03   1.13319e-04 DIIS
   @RHF iter   5:  -423.85287077599793   -3.29892e-04   2.11871e-05 DIIS
   @RHF iter   6:  -423.85288862664629   -1.78506e-05   6.35922e-06 DIIS
   @RHF iter   7:  -423.85289027885761   -1.65221e-06   2.05623e-06 DIIS
   @RHF iter   8:  -423.85289050716131   -2.28304e-07   7.76550e-07 DIIS
   @RHF iter   9:  -423.85289054509582   -3.79345e-08   3.18983e-07 DIIS
   @RHF iter  10:  -423.85289055262751   -7.53170e-09   1.33062e-07 DIIS
   @RHF iter  11:  -423.85289055495866   -2.33115e-09   5.84580e-08 DIIS
   @RHF iter  12:  -423.85289055537834   -4.19675e-10   2.75243e-08 DIIS
   @RHF iter  13:  -423.85289055544769   -6.93490e-11   8.08451e-09 DIIS
   @RHF iter  14:  -423.85289055545223   -4.54747e-12   2.16562e-09 DIIS
   @RHF iter  15:  -423.85289055545388   -1.64846e-12   7.63323e-10 DIIS
   @RHF iter  16:  -423.85289055545331    5.68434e-13   2.94786e-10 DIIS
   @RHF iter  17:  -423.85289055545456   -1.25056e-12   1.30685e-10 DIIS
   @RHF iter  18:  -423.85289055545405    5.11591e-13   6.57487e-11 DIIS
  Energy and wave function converged.

  ==> Post-Iterations <==

    Orbital Energies [Eh]
    ---------------------

    Doubly Occupied:

       1A    -20.581265     2A    -11.299077     3A    -11.239835
       4A    -11.238958     5A    -11.235022     6A    -11.233307
       7A    -11.230817     8A    -11.227013     9A    -11.216307
      10A    -11.215193    11A     -1.398027    12A     -1.149327
      13A     -1.039066    14A     -1.018906    15A     -1.015184
      16A     -0.928053    17A     -0.844813    18A     -0.833406
      19A     -0.802388    20A     -0.731884    21A     -0.668219
      22A     -0.643807    23A     -0.610421    24A     -0.599118
      25A     -0.596715    26A     -0.585249    27A     -0.583886
      28A     -0.568180    29A     -0.564237    30A     -0.530911
      31A     -0.500651    32A     -0.497425    33A     -0.486462
      34A     -0.482051    35A     -0.480781    36A     -0.465244
      37A     -0.336764    38A     -0.302310

    Virtual:

      39A      0.128767    40A      0.154028    41A      0.174494
      42A      0.180563    43A      0.191501    44A      0.215414
      45A      0.221815    46A      0.237409    47A      0.252332
      48A      0.265747    49A      0.269695    50A      0.275983
      51A      0.279477    52A      0.285755    53A      0.302716
      54A      0.328910    55A      0.374023    56A      0.378060
      57A      0.397354    58A      0.425056    59A      0.456128
      60A      0.485642    61A      0.493957    62A      0.510000
      63A      0.594836    64A      0.603487    65A      0.607730
      66A      0.619607    67A      0.633813    68A      0.648644
      69A      0.664634    70A      0.673102    71A      0.685425
      72A      0.695280    73A      0.699609    74A      0.720454
      75A      0.731640    76A      0.736949    77A      0.764441
      78A      0.770940    79A      0.774259    80A      0.791175
      81A      0.794583    82A      0.841071    83A      0.843050
      84A      0.849851    85A      0.858321    86A      0.880737
      87A      0.886680    88A      0.890235    89A      0.893130
      90A      0.904192    91A      0.905871    92A      0.907592
      93A      0.920450    94A      0.935403    95A      0.938558
      96A      0.947423    97A      0.955350    98A      0.959159
      99A      0.989934   100A      1.012851   101A      1.029471
     102A      1.065741   103A      1.118043   104A      1.123677
     105A      1.136211   106A      1.142903   107A      1.155909
     108A      1.176511   109A      1.204046   110A      1.237471
     111A      1.243841   112A      1.249192   113A      1.274983
     114A      1.283356   115A      1.292611   116A      1.307901
     117A      1.323207   118A      1.344670   119A      1.362419
     120A      1.395140   121A      1.473597   122A      1.482332
     123A      1.499196   124A      1.504631   125A      1.525349
     126A      1.556015   127A      1.578394   128A      1.619133
     129A      1.625744   130A      1.681494   131A      1.682734
     132A      1.693956   133A      1.704231   134A      1.730868
     135A      1.744677   136A      1.784674   137A      1.796865
     138A      1.811134   139A      1.859732   140A      1.864982
     141A      1.872470   142A      1.890557   143A      1.893569
     144A      1.901538   145A      1.907480   146A      1.926340
     147A      1.930989   148A      1.944359   149A      1.945656
     150A      1.953493   151A      1.954681   152A      1.961582
     153A      1.968549   154A      1.976642   155A      1.983913
     156A      1.994465   157A      2.031990   158A      2.039268
     159A      2.056744   160A      2.077724   161A      2.078673
     162A      2.094416   163A      2.118765   164A      2.131185
     165A      2.143055   166A      2.185173   167A      2.211460
     168A      2.221253   169A      2.259756   170A      2.271821
     171A      2.299815   172A      2.310799   173A      2.313313
     174A      2.364582   175A      2.372014   176A      2.391548
     177A      2.451452   178A      2.463729   179A      2.470359
     180A      2.483882   181A      2.492495   182A      2.521500
     183A      2.540356   184A      2.558769   185A      2.583382
     186A      2.613200   187A      2.655142   188A      2.741982
     189A      2.763895   190A      2.771223   191A      2.793946
     192A      2.800152   193A      2.819561   194A      2.847749
     195A      2.855922   196A      2.859278   197A      2.892354
     198A      2.948480   199A      2.952591   200A      2.969774
     201A      3.004522   202A      3.079201   203A      3.134021
     204A      3.251774   205A      3.288676   206A      3.348139
     207A      3.572966   208A      3.645165   209A      3.995036
     210A      4.181159

    Final Occupation by Irrep:
              A
    DOCC [    38 ]

  @RHF Final Energy:  -423.85289055545405

   => Energetics <=

    Nuclear Repulsion Energy =            487.0796163123457063
    One-Electron Energy =               -1539.9044596534495213
    Two-Electron Energy =                 628.9719527856498189
    Total Energy =                       -423.8528905554539961

Computation Completed

Properties will be evaluated at   0.000000,   0.000000,   0.000000 [a0]

Properties computed using the SCF density matrix

  Nuclear Dipole Moment: [e a0]
     X:     0.5385      Y:     3.5581      Z:    15.3936

  Electronic Dipole Moment: [e a0]
     X:    -0.7340      Y:    -3.1277      Z:   -15.7483

  Dipole Moment: [e a0]
     X:    -0.1956      Y:     0.4303      Z:    -0.3547     Total:     0.5910

  Dipole Moment: [D]
     X:    -0.4971      Y:     1.0938      Z:    -0.9016     Total:     1.5022

*** tstop() called on ds3 at Mon Apr 27 22:24:06 2020
Module time:
	user time   =      84.43 seconds =       1.41 minutes
	system time =      40.60 seconds =       0.68 minutes
	total time  =        121 seconds =       2.02 minutes
Total time:
	user time   =      84.43 seconds =       1.41 minutes
	system time =      40.60 seconds =       0.68 minutes
	total time  =        121 seconds =       2.02 minutes
                                     G D M A

                                 by Anthony Stone

                           version 2.2.06, 22 June 2011

               Distributed Multipoles from Gaussian wavefunctions

Starting at 22:24:6 on 27 Apr 2020

Using SCF density matrix from file ./SSI/SSI-079TYR-112LEU-2-dimer.test.9952.fchk

                         Distributed Multipole Analysis

Standard DMA

Positions and radii in angstrom
Multipole moments in atomic units, ea_0^k for rank k

C          x =  0.916758  y =  2.906286  z = -0.283521 angstrom
           Maximum rank =  0   Radius =  0.650 angstrom
                   Q00  =  -0.208822

C          x =  0.819758  y =  0.406286  z =  0.079479 angstrom
           Maximum rank =  0   Radius =  0.650 angstrom
                   Q00  =   0.006636

C          x =  0.477758  y =  1.528286  z = -0.692521 angstrom
           Maximum rank =  0   Radius =  0.650 angstrom
                   Q00  =  -0.127197

C          x =  0.452758  y = -0.878714  z = -0.313521 angstrom
           Maximum rank =  0   Radius =  0.650 angstrom
                   Q00  =  -0.120857

C          x = -0.286242  y =  1.329286  z = -1.839521 angstrom
           Maximum rank =  0   Radius =  0.650 angstrom
                   Q00  =  -0.052322

C          x = -0.266242  y = -1.070714  z = -1.498521 angstrom
           Maximum rank =  0   Radius =  0.650 angstrom
                   Q00  =   0.262263

C          x = -0.659242  y =  0.032286  z = -2.229521 angstrom
           Maximum rank =  0   Radius =  0.650 angstrom
                   Q00  =  -0.097883

O          x = -0.694242  y = -2.293714  z = -1.933521 angstrom
           Maximum rank =  0   Radius =  0.650 angstrom
                   Q00  =  -0.647622

H          x =  1.394758  y =  0.536286  z =  0.987479 angstrom
           Maximum rank =  0   Radius =  0.325 angstrom
                   Q00  =   0.068996

H          x =  0.729758  y = -1.736714  z =  0.276479 angstrom
           Maximum rank =  0   Radius =  0.325 angstrom
                   Q00  =   0.080281

H          x =  1.688758  y =  3.227286  z = -0.978521 angstrom
           Maximum rank =  0   Radius =  0.325 angstrom
                   Q00  =   0.098282

H          x =  1.383758  y =  2.824286  z =  0.689479 angstrom
           Maximum rank =  0   Radius =  0.325 angstrom
                   Q00  =   0.097527

H          x = -0.582242  y =  2.177286  z = -2.440521 angstrom
           Maximum rank =  0   Radius =  0.325 angstrom
                   Q00  =   0.067757

H          x = -1.257242  y = -0.113714  z = -3.107521 angstrom
           Maximum rank =  0   Radius =  0.325 angstrom
                   Q00  =   0.064659

H          x = -1.241242  y = -2.232714  z = -2.719521 angstrom
           Maximum rank =  0   Radius =  0.325 angstrom
                   Q00  =   0.408451

H          x =  0.145981  y =  3.690796  z = -0.262551 angstrom
           Maximum rank =  0   Radius =  0.325 angstrom
                   Q00  =   0.099895

C          x =  0.202758  y = -0.202714  z =  3.819479 angstrom
           Maximum rank =  0   Radius =  0.650 angstrom
                   Q00  =  -0.237225

C          x = -0.781242  y = -1.312714  z =  4.155479 angstrom
           Maximum rank =  0   Radius =  0.650 angstrom
                   Q00  =  -0.230679

H          x = -0.264242  y =  0.521286  z =  3.149479 angstrom
           Maximum rank =  0   Radius =  0.325 angstrom
                   Q00  =   0.081824

H          x =  0.516758  y =  0.301286  z =  4.733479 angstrom
           Maximum rank =  0   Radius =  0.325 angstrom
                   Q00  =   0.077385

H          x =  1.082758  y = -0.628714  z =  3.336479 angstrom
           Maximum rank =  0   Radius =  0.325 angstrom
                   Q00  =   0.073530

H          x = -0.248242  y = -2.011714  z =  4.799479 angstrom
           Maximum rank =  0   Radius =  0.325 angstrom
                   Q00  =   0.073043

H          x = -1.130200  y = -1.825004  z =  3.246749 angstrom
           Maximum rank =  0   Radius =  0.325 angstrom
                   Q00  =   0.083563

H          x = -1.641189  y = -0.922794  z =  4.719799 angstrom
           Maximum rank =  0   Radius =  0.325 angstrom
                   Q00  =   0.078515

Total multipoles referred to origin at
           x =   0.000000,  y =    0.000000,  z =    0.000000 angstrom
                   Q00  =  -0.000000

Finished at 22:24:6 on 27 Apr 2020

  DMA results are available in the Python driver through the
	  variable('DMA DISTRIBUTED MULTIPOLES')
  and
	  variable('DMA TOTAL MULTIPOLES')
  commands.

    Psi4 stopped on: Monday, 27 April 2020 10:24PM
    Psi4 wall time for execution: 0:02:00.74

*** Psi4 exiting successfully. Buy a developer a beer!
