                               Psi4 1.3.2 release

  ==> Input File <==

--------------------------------------------------------------------------
import numpy as np
set {scf_type pk
basis cc-pvdz
d_convergence 10
gdma_switch   0
gdma_limit    0
gdma_origin   [ 0.0,  0.0,  0.0 ]
}
molecule test {
    units Angstrom
    0 1
    --
    0 1
    C               -3.235239401404434    -1.651034576256946     0.751220095431241
    C               -4.314239401404434    -2.696034576256946     0.374220095431241
    H               -3.563239401404434    -0.649034576256945     0.475220095431241
    H               -3.033239401404434    -1.677034576256946     1.820220095431241
    H               -2.293239401404433    -1.870034576256945     0.247220095431241
    H               -3.942239401404433    -3.700034576256945     0.588220095431241
    H               -4.541800201404433    -2.615634576256945    -0.698979904568759
    H               -5.221199401404434    -2.500920576256945     0.965280095431241
    C                0.431760598595566    -0.047034576256945    -3.002779904568759
    C               -1.043239401404433     0.847965423743055    -1.079779904568759
    C                0.140760598595566     0.390965423743055    -1.597779904568759
    C                0.388760598595566     0.828965423743055     0.643220095431241
    C                1.068760598595566     0.353965423743055    -0.510779904568759
    C                1.005760598595566     0.912965423743054     1.882220095431241
    C                2.417760598595566    -0.016034576256945    -0.397779904568759
    C                2.339760598595567     0.540965423743055     1.968220095431241
    C                3.040760598595567     0.069965423743055     0.841220095431241
    N               -0.893239401404434     1.113965423743054     0.257220095431241
    H               -1.974239401404434     0.939965423743055    -1.626779904568759
    H               -1.651239401404434     1.363965423743054     0.882220095431241
    H                0.207760598595566    -1.110034576256945    -3.097779904568759
    H                1.500760598595566     0.081965423743055    -3.175779904568759
    H                0.464760598595566     1.263965423743054     2.750220095431241
    H                2.960760598595567    -0.363034576256945    -1.263779904568759
    H                2.847760598595567     0.597965423743055     2.924220095431241
    H                4.077760598595566    -0.224034576256945     0.942220095431241
    H               -0.115714401404434     0.513441423743055    -3.774879904568759

}
e, wfn = energy('scf', return_wfn=True)
gdma(wfn)
dmavals = variable('DMA DISTRIBUTED MULTIPOLES')
charges = np.array(dmavals)
print(charges)
np.save('SSI-139ILE-143TRP-1-dimer.npy', np.array(charges))--------------------------------------------------------------------------

*** tstart() called on ds3
*** at Sun Apr 26 22:33:03 2020

   => Loading Basis Set <=

    Name: CC-PVDZ
    Role: ORBITAL
    Keyword: BASIS
    atoms 1-2, 9-17  entry C          line   138 file /theoryfs2/ds/metcalf/miniconda2/envs/tf2gpu/share/psi4/basis/cc-pvdz.gbs
    atoms 3-8, 19-27 entry H          line    22 file /theoryfs2/ds/metcalf/miniconda2/envs/tf2gpu/share/psi4/basis/cc-pvdz.gbs
    atoms 18         entry N          line   168 file /theoryfs2/ds/metcalf/miniconda2/envs/tf2gpu/share/psi4/basis/cc-pvdz.gbs

         ---------------------------------------------------------
                                   SCF
               by Justin Turney, Rob Parrish, Andy Simmonett
                          and Daniel G. A. Smith
                              RHF Reference
                        1 Threads,    500 MiB Core
         ---------------------------------------------------------

  ==> Geometry <==

    Molecular point group: c1
    Full point group: C1

    Geometry (in Angstrom), charge = 0, multiplicity = 1:

       Center              X                  Y                   Z               Mass
    ------------   -----------------  -----------------  -----------------  -----------------
         C           -3.235239401404    -1.651034576257     0.751220095431    12.000000000000
         C           -4.314239401404    -2.696034576257     0.374220095431    12.000000000000
         H           -3.563239401404    -0.649034576257     0.475220095431     1.007825032230
         H           -3.033239401404    -1.677034576257     1.820220095431     1.007825032230
         H           -2.293239401404    -1.870034576257     0.247220095431     1.007825032230
         H           -3.942239401404    -3.700034576257     0.588220095431     1.007825032230
         H           -4.541800201404    -2.615634576257    -0.698979904569     1.007825032230
         H           -5.221199401404    -2.500920576257     0.965280095431     1.007825032230
         C            0.431760598596    -0.047034576257    -3.002779904569    12.000000000000
         C           -1.043239401404     0.847965423743    -1.079779904569    12.000000000000
         C            0.140760598596     0.390965423743    -1.597779904569    12.000000000000
         C            0.388760598596     0.828965423743     0.643220095431    12.000000000000
         C            1.068760598596     0.353965423743    -0.510779904569    12.000000000000
         C            1.005760598596     0.912965423743     1.882220095431    12.000000000000
         C            2.417760598596    -0.016034576257    -0.397779904569    12.000000000000
         C            2.339760598596     0.540965423743     1.968220095431    12.000000000000
         C            3.040760598596     0.069965423743     0.841220095431    12.000000000000
         N           -0.893239401404     1.113965423743     0.257220095431    14.003074004430
         H           -1.974239401404     0.939965423743    -1.626779904569     1.007825032230
         H           -1.651239401404     1.363965423743     0.882220095431     1.007825032230
         H            0.207760598596    -1.110034576257    -3.097779904569     1.007825032230
         H            1.500760598596     0.081965423743    -3.175779904569     1.007825032230
         H            0.464760598596     1.263965423743     2.750220095431     1.007825032230
         H            2.960760598596    -0.363034576257    -1.263779904569     1.007825032230
         H            2.847760598596     0.597965423743     2.924220095431     1.007825032230
         H            4.077760598596    -0.224034576257     0.942220095431     1.007825032230
         H           -0.115714401404     0.513441423743    -3.774879904569     1.007825032230

  Running in c1 symmetry.

  Rotational constants: A =      0.03846  B =      0.01692  C =      0.01382 [cm^-1]
  Rotational constants: A =   1152.88711  B =    507.16491  C =    414.37417 [MHz]
  Nuclear repulsion =  648.475773067892987

  Charge       = 0
  Multiplicity = 1
  Electrons    = 88
  Nalpha       = 44
  Nbeta        = 44

  ==> Algorithm <==

  SCF Algorithm Type is PK.
  DIIS enabled.
  MOM disabled.
  Fractional occupation disabled.
  Guess Type is SAD.
  Energy threshold   = 1.00e-06
  Density threshold  = 1.00e-10
  Integral threshold = 0.00e+00

  ==> Primary Basis <==

  Basis Set: CC-PVDZ
    Blend: CC-PVDZ
    Number of shells: 117
    Number of basis function: 243
    Number of Cartesian functions: 255
    Spherical Harmonics?: true
    Max angular momentum: 2

  ==> Pre-Iterations <==

   -------------------------------------------------------
    Irrep   Nso     Nmo     Nalpha   Nbeta   Ndocc  Nsocc
   -------------------------------------------------------
     A        243     243       0       0       0       0
   -------------------------------------------------------
    Total     243     243      44      44      44       0
   -------------------------------------------------------

  ==> Integral Setup <==

  Using integral reordering PK algorithm.
  Sizing the integral batches needed.
  Building batch lookup table.
   Calculation information:
      Number of atoms:                  27
      Number of AO shells:             117
      Number of primitives:            339
      Number of atomic orbitals:       255
      Number of basis functions:       243

      Integral cutoff                 1.00e-12
      Number of threads:                 1

	Batch   1 pq = [       0,    9405] index = [             0,44231715] size =     44231715
	Batch   2 pq = [    9405,   13301] index = [      44231715,88464951] size =     44233236
	Batch   3 pq = [   13301,   16290] index = [      88464951,132690195] size =     44225244
	Batch   4 pq = [   16290,   18810] index = [     132690195,176917455] size =     44227260
	Batch   5 pq = [   18810,   21030] index = [     176917455,221140965] size =     44223510
	Batch   6 pq = [   21030,   23037] index = [     221140965,265363203] size =     44222238
	Batch   7 pq = [   23037,   24883] index = [     265363203,309594286] size =     44231083
	Batch   8 pq = [   24883,   26601] index = [     309594286,353819901] size =     44225615
	Batch   9 pq = [   26601,   28214] index = [     353819901,398029005] size =     44209104
	Batch  10 pq = [   28214,   29646] index = [     398029005,439457481] size =     41428476
  Task number: 40
  Buffer size: 11059200
  Buffer per thread: 2
  We computed 21797456 shell quartets total.
  Whereas there are 23829156 unique shell quartets.

  ==> DiskJK: Disk-Based J/K Matrices <==

    J tasked:                  Yes
    K tasked:                  Yes
    wK tasked:                  No
    Memory [MiB]:              375
    Schwarz Cutoff:          1E-12

    OpenMP threads:              1

  Minimum eigenvalue in the overlap matrix is 2.4558078326E-04.
  Using Symmetric Orthogonalization.

  SCF Guess: Superposition of Atomic Densities via on-the-fly atomic UHF.

  ==> Iterations <==

                        Total Energy        Delta E     RMS |[F,P]|

   @RHF iter SAD:  -478.97534966839368   -4.78975e+02   0.00000e+00
   @RHF iter   1:  -479.49203928224966   -5.16690e-01   2.59224e-03 DIIS
   @RHF iter   2:  -479.72219259647181   -2.30153e-01   1.15918e-03 DIIS
   @RHF iter   3:  -479.76405005956457   -4.18575e-02   3.07897e-04 DIIS
   @RHF iter   4:  -479.76791530662354   -3.86525e-03   1.42418e-04 DIIS
   @RHF iter   5:  -479.76859394515873   -6.78639e-04   1.97329e-05 DIIS
   @RHF iter   6:  -479.76862273387036   -2.87887e-05   9.15712e-06 DIIS
   @RHF iter   7:  -479.76862858992763   -5.85606e-06   3.81605e-06 DIIS
   @RHF iter   8:  -479.76863027485871   -1.68493e-06   1.50621e-06 DIIS
   @RHF iter   9:  -479.76863060911785   -3.34259e-07   6.74447e-07 DIIS
   @RHF iter  10:  -479.76863067621139   -6.70935e-08   3.07315e-07 DIIS
   @RHF iter  11:  -479.76863069294450   -1.67331e-08   1.16265e-07 DIIS
   @RHF iter  12:  -479.76863069529202   -2.34752e-09   3.70830e-08 DIIS
   @RHF iter  13:  -479.76863069544436   -1.52340e-10   9.41232e-09 DIIS
   @RHF iter  14:  -479.76863069545800   -1.36424e-11   3.69561e-09 DIIS
   @RHF iter  15:  -479.76863069546090   -2.89901e-12   1.93370e-09 DIIS
   @RHF iter  16:  -479.76863069545743    3.46745e-12   8.99553e-10 DIIS
   @RHF iter  17:  -479.76863069546158   -4.14957e-12   3.63714e-10 DIIS
   @RHF iter  18:  -479.76863069546596   -4.37694e-12   1.58857e-10 DIIS
   @RHF iter  19:  -479.76863069546005    5.91172e-12   4.99541e-11 DIIS
  Energy and wave function converged.

  ==> Post-Iterations <==

    Orbital Energies [Eh]
    ---------------------

    Doubly Occupied:

       1A    -15.601146     2A    -11.263410     3A    -11.262150
       4A    -11.230338     5A    -11.229687     6A    -11.229011
       7A    -11.226400     8A    -11.223336     9A    -11.221485
      10A    -11.219848    11A    -11.219622    12A    -11.217388
      13A     -1.295481    14A     -1.126944    15A     -1.071974
      16A     -1.015112    17A     -0.996967    18A     -0.984268
      19A     -0.931412    20A     -0.841209    21A     -0.837801
      22A     -0.802899    23A     -0.752217    24A     -0.719310
      25A     -0.660963    26A     -0.641082    27A     -0.603060
      28A     -0.599306    29A     -0.596508    30A     -0.591851
      31A     -0.588346    32A     -0.567810    33A     -0.552146
      34A     -0.535884    35A     -0.524476    36A     -0.497910
      37A     -0.494263    38A     -0.491842    39A     -0.487423
      40A     -0.471525    41A     -0.459723    42A     -0.371929
      43A     -0.295031    44A     -0.271812

    Virtual:

      45A      0.125289    46A      0.165408    47A      0.170922
      48A      0.186757    49A      0.194151    50A      0.204996
      51A      0.218865    52A      0.224912    53A      0.231680
      54A      0.249584    55A      0.256896    56A      0.262244
      57A      0.265022    58A      0.272316    59A      0.284372
      60A      0.291599    61A      0.302409    62A      0.311970
      63A      0.375455    64A      0.382799    65A      0.389987
      66A      0.405238    67A      0.425346    68A      0.444506
      69A      0.471048    70A      0.480067    71A      0.506827
      72A      0.514927    73A      0.581636    74A      0.591224
      75A      0.594863    76A      0.612583    77A      0.621260
      78A      0.639600    79A      0.640285    80A      0.671409
      81A      0.674156    82A      0.683201    83A      0.696968
      84A      0.703042    85A      0.723646    86A      0.730759
      87A      0.738833    88A      0.741195    89A      0.753049
      90A      0.756013    91A      0.766147    92A      0.777654
      93A      0.787525    94A      0.791835    95A      0.812487
      96A      0.825309    97A      0.849581    98A      0.859926
      99A      0.873511   100A      0.878886   101A      0.886484
     102A      0.891769   103A      0.892800   104A      0.895738
     105A      0.900591   106A      0.904353   107A      0.912407
     108A      0.915714   109A      0.942156   110A      0.950429
     111A      0.956009   112A      0.961834   113A      0.970386
     114A      0.985153   115A      0.990498   116A      1.017625
     117A      1.057004   118A      1.083000   119A      1.105807
     120A      1.120639   121A      1.122507   122A      1.134822
     123A      1.140699   124A      1.149521   125A      1.155251
     126A      1.170991   127A      1.215205   128A      1.220886
     129A      1.224787   130A      1.234336   131A      1.237364
     132A      1.256526   133A      1.275264   134A      1.289274
     135A      1.299941   136A      1.329265   137A      1.333164
     138A      1.365128   139A      1.373671   140A      1.419711
     141A      1.445202   142A      1.469056   143A      1.471393
     144A      1.526858   145A      1.553536   146A      1.562767
     147A      1.579863   148A      1.598623   149A      1.634235
     150A      1.639226   151A      1.652405   152A      1.676234
     153A      1.693382   154A      1.694328   155A      1.701402
     156A      1.738297   157A      1.759028   158A      1.765679
     159A      1.788503   160A      1.810092   161A      1.829884
     162A      1.834369   163A      1.863817   164A      1.869193
     165A      1.877955   166A      1.884936   167A      1.893596
     168A      1.899700   169A      1.915171   170A      1.918884
     171A      1.927106   172A      1.939016   173A      1.941408
     174A      1.943494   175A      1.946085   176A      1.955527
     177A      1.958079   178A      1.967593   179A      1.983798
     180A      1.996668   181A      2.022302   182A      2.027691
     183A      2.044168   184A      2.066340   185A      2.088372
     186A      2.093451   187A      2.097393   188A      2.100939
     189A      2.108931   190A      2.117247   191A      2.132712
     192A      2.135827   193A      2.162982   194A      2.171853
     195A      2.179405   196A      2.230420   197A      2.262207
     198A      2.280327   199A      2.289003   200A      2.294864
     201A      2.309612   202A      2.322851   203A      2.338723
     204A      2.351626   205A      2.395111   206A      2.420142
     207A      2.448657   208A      2.452921   209A      2.453990
     210A      2.460224   211A      2.548449   212A      2.558978
     213A      2.559924   214A      2.577554   215A      2.595787
     216A      2.638920   217A      2.657926   218A      2.684426
     219A      2.731428   220A      2.758100   221A      2.765987
     222A      2.772566   223A      2.776847   224A      2.786062
     225A      2.798343   226A      2.828529   227A      2.835604
     228A      2.840686   229A      2.854616   230A      2.874330
     231A      2.917480   232A      2.947877   233A      2.953576
     234A      2.974367   235A      3.034691   236A      3.058533
     237A      3.074191   238A      3.118445   239A      3.202828
     240A      3.304075   241A      3.380895   242A      3.741589
     243A      3.946541

    Final Occupation by Irrep:
              A
    DOCC [    44 ]

  @RHF Final Energy:  -479.76863069546005

   => Energetics <=

    Nuclear Repulsion Energy =            648.4757730678929875
    One-Electron Energy =               -1934.8442028243171080
    Two-Electron Energy =                 806.5997990609640738
    Total Energy =                       -479.7686306954600468

Computation Completed

Properties will be evaluated at   0.000000,   0.000000,   0.000000 [a0]

Properties computed using the SCF density matrix

  Nuclear Dipole Moment: [e a0]
     X:   -13.3813      Y:    -9.3297      Z:    -1.9159

  Electronic Dipole Moment: [e a0]
     X:    12.6353      Y:     9.4455      Z:     1.9876

  Dipole Moment: [e a0]
     X:    -0.7460      Y:     0.1158      Z:     0.0716     Total:     0.7583

  Dipole Moment: [D]
     X:    -1.8961      Y:     0.2944      Z:     0.1820     Total:     1.9274

*** tstop() called on ds3 at Sun Apr 26 22:39:24 2020
Module time:
	user time   =     170.16 seconds =       2.84 minutes
	system time =      65.60 seconds =       1.09 minutes
	total time  =        381 seconds =       6.35 minutes
Total time:
	user time   =     170.16 seconds =       2.84 minutes
	system time =      65.60 seconds =       1.09 minutes
	total time  =        381 seconds =       6.35 minutes
                                     G D M A

                                 by Anthony Stone

                           version 2.2.06, 22 June 2011

               Distributed Multipoles from Gaussian wavefunctions

Starting at 22:39:24 on 26 Apr 2020

Using SCF density matrix from file ./SSI/SSI-139ILE-143TRP-1-dimer.test.12678.fchk

                         Distributed Multipole Analysis

Standard DMA

Positions and radii in angstrom
Multipole moments in atomic units, ea_0^k for rank k

C          x = -3.235239  y = -1.651035  z =  0.751220 angstrom
           Maximum rank =  0   Radius =  0.650 angstrom
                   Q00  =  -0.245098

C          x = -4.314239  y = -2.696035  z =  0.374220 angstrom
           Maximum rank =  0   Radius =  0.650 angstrom
                   Q00  =  -0.238942

H          x = -3.563239  y = -0.649035  z =  0.475220 angstrom
           Maximum rank =  0   Radius =  0.325 angstrom
                   Q00  =   0.065818

H          x = -3.033239  y = -1.677035  z =  1.820220 angstrom
           Maximum rank =  0   Radius =  0.325 angstrom
                   Q00  =   0.079756

H          x = -2.293239  y = -1.870035  z =  0.247220 angstrom
           Maximum rank =  0   Radius =  0.325 angstrom
                   Q00  =   0.093471

H          x = -3.942239  y = -3.700035  z =  0.588220 angstrom
           Maximum rank =  0   Radius =  0.325 angstrom
                   Q00  =   0.085706

H          x = -4.541800  y = -2.615635  z = -0.698980 angstrom
           Maximum rank =  0   Radius =  0.325 angstrom
                   Q00  =   0.079919

H          x = -5.221199  y = -2.500921  z =  0.965280 angstrom
           Maximum rank =  0   Radius =  0.325 angstrom
                   Q00  =   0.078620

C          x =  0.431761  y = -0.047035  z = -3.002780 angstrom
           Maximum rank =  0   Radius =  0.650 angstrom
                   Q00  =  -0.215985

C          x = -1.043239  y =  0.847965  z = -1.079780 angstrom
           Maximum rank =  0   Radius =  0.650 angstrom
                   Q00  =   0.068812

C          x =  0.140761  y =  0.390965  z = -1.597780 angstrom
           Maximum rank =  0   Radius =  0.650 angstrom
                   Q00  =  -0.121229

C          x =  0.388761  y =  0.828965  z =  0.643220 angstrom
           Maximum rank =  0   Radius =  0.650 angstrom
                   Q00  =   0.275031

C          x =  1.068761  y =  0.353965  z = -0.510780 angstrom
           Maximum rank =  0   Radius =  0.650 angstrom
                   Q00  =  -0.049267

C          x =  1.005761  y =  0.912965  z =  1.882220 angstrom
           Maximum rank =  0   Radius =  0.650 angstrom
                   Q00  =  -0.117743

C          x =  2.417761  y = -0.016035  z = -0.397780 angstrom
           Maximum rank =  0   Radius =  0.650 angstrom
                   Q00  =  -0.101296

C          x =  2.339761  y =  0.540965  z =  1.968220 angstrom
           Maximum rank =  0   Radius =  0.650 angstrom
                   Q00  =  -0.044251

C          x =  3.040761  y =  0.069965  z =  0.841220 angstrom
           Maximum rank =  0   Radius =  0.650 angstrom
                   Q00  =  -0.095636

N          x = -0.893239  y =  1.113965  z =  0.257220 angstrom
           Maximum rank =  0   Radius =  0.650 angstrom
                   Q00  =  -0.493601

H          x = -1.974239  y =  0.939965  z = -1.626780 angstrom
           Maximum rank =  0   Radius =  0.325 angstrom
                   Q00  =   0.100138

H          x = -1.651239  y =  1.363965  z =  0.882220 angstrom
           Maximum rank =  0   Radius =  0.325 angstrom
                   Q00  =   0.218434

H          x =  0.207761  y = -1.110035  z = -3.097780 angstrom
           Maximum rank =  0   Radius =  0.325 angstrom
                   Q00  =   0.098375

H          x =  1.500761  y =  0.081965  z = -3.175780 angstrom
           Maximum rank =  0   Radius =  0.325 angstrom
                   Q00  =   0.103639

H          x =  0.464761  y =  1.263965  z =  2.750220 angstrom
           Maximum rank =  0   Radius =  0.325 angstrom
                   Q00  =   0.073145

H          x =  2.960761  y = -0.363035  z = -1.263780 angstrom
           Maximum rank =  0   Radius =  0.325 angstrom
                   Q00  =   0.069433

H          x =  2.847761  y =  0.597965  z =  2.924220 angstrom
           Maximum rank =  0   Radius =  0.325 angstrom
                   Q00  =   0.064979

H          x =  4.077761  y = -0.224035  z =  0.942220 angstrom
           Maximum rank =  0   Radius =  0.325 angstrom
                   Q00  =   0.061141

H          x = -0.115714  y =  0.513441  z = -3.774880 angstrom
           Maximum rank =  0   Radius =  0.325 angstrom
                   Q00  =   0.106632

Total multipoles referred to origin at
           x =   0.000000,  y =    0.000000,  z =    0.000000 angstrom
                   Q00  =  -0.000000

Finished at 22:39:24 on 26 Apr 2020

  DMA results are available in the Python driver through the
	  variable('DMA DISTRIBUTED MULTIPOLES')
  and
	  variable('DMA TOTAL MULTIPOLES')
  commands.

    Psi4 stopped on: Sunday, 26 April 2020 10:39PM
    Psi4 wall time for execution: 0:06:20.95

*** Psi4 exiting successfully. Buy a developer a beer!
