                               Psi4 1.3.2 release

  ==> Input File <==

--------------------------------------------------------------------------
import numpy as np
set {scf_type pk
basis cc-pvdz
d_convergence 10
gdma_switch   0
gdma_limit    0
gdma_origin   [ 0.0,  0.0,  0.0 ]
}
molecule test {
    units Angstrom
    0 1
    --
    0 1
    C                2.091034667453772    -2.316938611250057     0.382180203483985
    C                1.729034667453772    -3.040938611250057     1.682180203483985
    H                3.105034667453772    -2.570938611250057     0.077180203483985
    H                1.406034667453772    -2.612938611250057    -0.411819796516015
    H                2.023034667453772    -1.236938611250057     0.502180203483985
    H                0.803034667453772    -2.617938611250057     2.069180203483985
    H                2.525482667453772    -2.911784611250057     2.429840203483985
    H                1.557390667453772    -4.111911611250057     1.499000203483985
    C               -1.090965332546228    -1.209938611250057    -0.264819796516015
    C               -2.616965332546228    -1.300938611250057    -0.126819796516015
    C               -0.552965332546228     0.198061388749943    -0.294819796516015
    C               -0.695965332546228     0.989061388749943    -1.432819796516015
    C                0.115034667453772     0.722061388749943     0.800180203483985
    C               -0.195965332546228     2.287061388749943    -1.460819796516015
    C                0.616034667453772     2.017061388749943     0.772180203483985
    C                0.453034667453772     2.804061388749943    -0.353819796516015
    H               -0.660965332546228    -1.728938611250057     0.589180203483985
    H               -0.765965332546228    -1.733938611250057    -1.161819796516015
    H               -2.946965332546228    -0.746938611250057     0.754180203483985
    H               -1.168965332546228     0.594061388749943    -2.319819796516015
    H                0.271034667453772     0.116061388749943     1.681180203483985
    H               -0.325965332546228     2.893061388749943    -2.343819796516014
    H                1.133034667453772     2.414061388749943     1.633180203483985
    H                0.818034667453772     3.818061388749943    -0.362819796516015
    H               -2.919190332546228    -2.356842611250057    -0.065769796516015
    H               -3.084109332546228    -0.882546611250057    -1.030547796516015

}
e, wfn = energy('scf', return_wfn=True)
gdma(wfn)
dmavals = variable('DMA DISTRIBUTED MULTIPOLES')
charges = np.array(dmavals)
print(charges)
np.save('SSI-008VAL-080PHE-1-dimer.npy', np.array(charges))--------------------------------------------------------------------------

*** tstart() called on ds3
*** at Mon Apr 27 12:49:00 2020

   => Loading Basis Set <=

    Name: CC-PVDZ
    Role: ORBITAL
    Keyword: BASIS
    atoms 1-2, 9-16  entry C          line   138 file /theoryfs2/ds/metcalf/miniconda2/envs/tf2gpu/share/psi4/basis/cc-pvdz.gbs
    atoms 3-8, 17-26 entry H          line    22 file /theoryfs2/ds/metcalf/miniconda2/envs/tf2gpu/share/psi4/basis/cc-pvdz.gbs

         ---------------------------------------------------------
                                   SCF
               by Justin Turney, Rob Parrish, Andy Simmonett
                          and Daniel G. A. Smith
                              RHF Reference
                        1 Threads,    500 MiB Core
         ---------------------------------------------------------

  ==> Geometry <==

    Molecular point group: c1
    Full point group: C1

    Geometry (in Angstrom), charge = 0, multiplicity = 1:

       Center              X                  Y                   Z               Mass
    ------------   -----------------  -----------------  -----------------  -----------------
         C            2.091034667454    -2.316938611250     0.382180203484    12.000000000000
         C            1.729034667454    -3.040938611250     1.682180203484    12.000000000000
         H            3.105034667454    -2.570938611250     0.077180203484     1.007825032230
         H            1.406034667454    -2.612938611250    -0.411819796516     1.007825032230
         H            2.023034667454    -1.236938611250     0.502180203484     1.007825032230
         H            0.803034667454    -2.617938611250     2.069180203484     1.007825032230
         H            2.525482667454    -2.911784611250     2.429840203484     1.007825032230
         H            1.557390667454    -4.111911611250     1.499000203484     1.007825032230
         C           -1.090965332546    -1.209938611250    -0.264819796516    12.000000000000
         C           -2.616965332546    -1.300938611250    -0.126819796516    12.000000000000
         C           -0.552965332546     0.198061388750    -0.294819796516    12.000000000000
         C           -0.695965332546     0.989061388750    -1.432819796516    12.000000000000
         C            0.115034667454     0.722061388750     0.800180203484    12.000000000000
         C           -0.195965332546     2.287061388750    -1.460819796516    12.000000000000
         C            0.616034667454     2.017061388750     0.772180203484    12.000000000000
         C            0.453034667454     2.804061388750    -0.353819796516    12.000000000000
         H           -0.660965332546    -1.728938611250     0.589180203484     1.007825032230
         H           -0.765965332546    -1.733938611250    -1.161819796516     1.007825032230
         H           -2.946965332546    -0.746938611250     0.754180203484     1.007825032230
         H           -1.168965332546     0.594061388750    -2.319819796516     1.007825032230
         H            0.271034667454     0.116061388750     1.681180203484     1.007825032230
         H           -0.325965332546     2.893061388750    -2.343819796516     1.007825032230
         H            1.133034667454     2.414061388750     1.633180203484     1.007825032230
         H            0.818034667454     3.818061388750    -0.362819796516     1.007825032230
         H           -2.919190332546    -2.356842611250    -0.065769796516     1.007825032230
         H           -3.084109332546    -0.882546611250    -1.030547796516     1.007825032230

  Running in c1 symmetry.

  Rotational constants: A =      0.05061  B =      0.02559  C =      0.01971 [cm^-1]
  Rotational constants: A =   1517.34407  B =    767.07396  C =    590.75434 [MHz]
  Nuclear repulsion =  501.940369537454330

  Charge       = 0
  Multiplicity = 1
  Electrons    = 76
  Nalpha       = 38
  Nbeta        = 38

  ==> Algorithm <==

  SCF Algorithm Type is PK.
  DIIS enabled.
  MOM disabled.
  Fractional occupation disabled.
  Guess Type is SAD.
  Energy threshold   = 1.00e-06
  Density threshold  = 1.00e-10
  Integral threshold = 0.00e+00

  ==> Primary Basis <==

  Basis Set: CC-PVDZ
    Blend: CC-PVDZ
    Number of shells: 108
    Number of basis function: 220
    Number of Cartesian functions: 230
    Spherical Harmonics?: true
    Max angular momentum: 2

  ==> Pre-Iterations <==

   -------------------------------------------------------
    Irrep   Nso     Nmo     Nalpha   Nbeta   Ndocc  Nsocc
   -------------------------------------------------------
     A        220     220       0       0       0       0
   -------------------------------------------------------
    Total     220     220      38      38      38       0
   -------------------------------------------------------

  ==> Integral Setup <==

  Using integral reordering PK algorithm.
  Sizing the integral batches needed.
  Building batch lookup table.
   Calculation information:
      Number of atoms:                  26
      Number of AO shells:             108
      Number of primitives:            300
      Number of atomic orbitals:       230
      Number of basis functions:       220

      Integral cutoff                 1.00e-12
      Number of threads:                 1

	Batch   1 pq = [       0,    9405] index = [             0,44231715] size =     44231715
	Batch   2 pq = [    9405,   13301] index = [      44231715,88464951] size =     44233236
	Batch   3 pq = [   13301,   16290] index = [      88464951,132690195] size =     44225244
	Batch   4 pq = [   16290,   18810] index = [     132690195,176917455] size =     44227260
	Batch   5 pq = [   18810,   21030] index = [     176917455,221140965] size =     44223510
	Batch   6 pq = [   21030,   23037] index = [     221140965,265363203] size =     44222238
	Batch   7 pq = [   23037,   24310] index = [     265363203,295500205] size =     30137002
  Task number: 27
  Buffer size: 11059200
  Buffer per thread: 2
  We computed 16689153 shell quartets total.
  Whereas there are 17325441 unique shell quartets.

  ==> DiskJK: Disk-Based J/K Matrices <==

    J tasked:                  Yes
    K tasked:                  Yes
    wK tasked:                  No
    Memory [MiB]:              375
    Schwarz Cutoff:          1E-12

    OpenMP threads:              1

  Minimum eigenvalue in the overlap matrix is 2.9338938552E-04.
  Using Symmetric Orthogonalization.

  SCF Guess: Superposition of Atomic Densities via on-the-fly atomic UHF.

  ==> Iterations <==

                        Total Energy        Delta E     RMS |[F,P]|

   @RHF iter SAD:  -386.97197202861628   -3.86972e+02   0.00000e+00
   @RHF iter   1:  -387.77425804749629   -8.02286e-01   2.72416e-03 DIIS
   @RHF iter   2:  -387.98997350092998   -2.15715e-01   1.12319e-03 DIIS
   @RHF iter   3:  -388.02346606495109   -3.34926e-02   2.47059e-04 DIIS
   @RHF iter   4:  -388.02628535308349   -2.81929e-03   5.50091e-05 DIIS
   @RHF iter   5:  -388.02637783658764   -9.24835e-05   2.08278e-05 DIIS
   @RHF iter   6:  -388.02639129402399   -1.34574e-05   3.97769e-06 DIIS
   @RHF iter   7:  -388.02639193163270   -6.37609e-07   1.12305e-06 DIIS
   @RHF iter   8:  -388.02639198037849   -4.87458e-08   2.71525e-07 DIIS
   @RHF iter   9:  -388.02639198522922   -4.85073e-09   9.77760e-08 DIIS
   @RHF iter  10:  -388.02639198610859   -8.79368e-10   4.84967e-08 DIIS
   @RHF iter  11:  -388.02639198638735   -2.78760e-10   1.84513e-08 DIIS
   @RHF iter  12:  -388.02639198643897   -5.16138e-11   8.11186e-09 DIIS
   @RHF iter  13:  -388.02639198644647   -7.50333e-12   3.43949e-09 DIIS
   @RHF iter  14:  -388.02639198644852   -2.04636e-12   7.66153e-10 DIIS
   @RHF iter  15:  -388.02639198644817    3.41061e-13   3.26910e-10 DIIS
   @RHF iter  16:  -388.02639198645039   -2.21689e-12   1.12825e-10 DIIS
   @RHF iter  17:  -388.02639198644823    2.16005e-12   5.04183e-11 DIIS
  Energy and wave function converged.

  ==> Post-Iterations <==

    Orbital Energies [Eh]
    ---------------------

    Doubly Occupied:

       1A    -11.236744     2A    -11.233772     3A    -11.233318
       4A    -11.229943     5A    -11.229138     6A    -11.228889
       7A    -11.227936     8A    -11.224027     9A    -11.219647
      10A    -11.211805    11A     -1.156794    12A     -1.063630
      13A     -1.016344    14A     -1.012311    15A     -0.983137
      16A     -0.862488    17A     -0.836466    18A     -0.825864
      19A     -0.786689    20A     -0.692872    21A     -0.641756
      22A     -0.634217    23A     -0.598955    24A     -0.596798
      25A     -0.592869    26A     -0.584609    27A     -0.576723
      28A     -0.541204    29A     -0.519631    30A     -0.499035
      31A     -0.498577    32A     -0.489178    33A     -0.484175
      34A     -0.477759    35A     -0.474125    36A     -0.468398
      37A     -0.332181    38A     -0.323436

    Virtual:

      39A      0.135775    40A      0.139951    41A      0.175612
      42A      0.194876    43A      0.200723    44A      0.213550
      45A      0.231185    46A      0.238654    47A      0.243885
      48A      0.252954    49A      0.260585    50A      0.264420
      51A      0.280751    52A      0.290690    53A      0.303359
      54A      0.309728    55A      0.328630    56A      0.353473
      57A      0.359359    58A      0.390837    59A      0.405969
      60A      0.420548    61A      0.454476    62A      0.471695
      63A      0.493750    64A      0.496141    65A      0.569512
      66A      0.574565    67A      0.596033    68A      0.601073
      69A      0.605300    70A      0.628656    71A      0.638953
      72A      0.665129    73A      0.685070    74A      0.696722
      75A      0.702051    76A      0.719819    77A      0.736836
      78A      0.741166    79A      0.748116    80A      0.751607
      81A      0.759353    82A      0.771565    83A      0.794813
      84A      0.807834    85A      0.839718    86A      0.846087
      87A      0.860277    88A      0.862571    89A      0.875952
      90A      0.882598    91A      0.889356    92A      0.893331
      93A      0.900496    94A      0.903857    95A      0.911090
      96A      0.913870    97A      0.929287    98A      0.936861
      99A      0.946822   100A      0.953042   101A      0.974888
     102A      0.983873   103A      0.988083   104A      1.009705
     105A      1.014325   106A      1.037594   107A      1.074343
     108A      1.097105   109A      1.120452   110A      1.130170
     111A      1.141761   112A      1.152377   113A      1.158622
     114A      1.176731   115A      1.187745   116A      1.221331
     117A      1.229661   118A      1.249669   119A      1.259966
     120A      1.279510   121A      1.299611   122A      1.305797
     123A      1.325774   124A      1.335364   125A      1.392410
     126A      1.432183   127A      1.448905   128A      1.472495
     129A      1.506435   130A      1.519338   131A      1.534094
     132A      1.578618   133A      1.607532   134A      1.635806
     135A      1.665755   136A      1.680621   137A      1.696924
     138A      1.699542   139A      1.742170   140A      1.757862
     141A      1.768613   142A      1.787437   143A      1.840802
     144A      1.853965   145A      1.868605   146A      1.874494
     147A      1.879869   148A      1.890735   149A      1.895466
     150A      1.902228   151A      1.909229   152A      1.915563
     153A      1.933034   154A      1.936422   155A      1.940925
     156A      1.943801   157A      1.951688   158A      1.955935
     159A      1.960162   160A      1.965329   161A      1.976736
     162A      1.980416   163A      1.992519   164A      2.019136
     165A      2.020093   166A      2.044069   167A      2.053057
     168A      2.063552   169A      2.077510   170A      2.100064
     171A      2.120596   172A      2.137089   173A      2.150270
     174A      2.166822   175A      2.169036   176A      2.173822
     177A      2.179967   178A      2.206149   179A      2.248194
     180A      2.267862   181A      2.277255   182A      2.302981
     183A      2.310875   184A      2.324052   185A      2.338939
     186A      2.359264   187A      2.378460   188A      2.450869
     189A      2.455840   190A      2.464016   191A      2.480809
     192A      2.493600   193A      2.538357   194A      2.546304
     195A      2.584759   196A      2.592802   197A      2.601438
     198A      2.646658   199A      2.744692   200A      2.770368
     201A      2.773705   202A      2.782539   203A      2.790849
     204A      2.807360   205A      2.812324   206A      2.847811
     207A      2.856812   208A      2.864445   209A      2.874391
     210A      2.920095   211A      2.967869   212A      2.982570
     213A      2.991497   214A      3.011645   215A      3.040719
     216A      3.072127   217A      3.196403   218A      3.220296
     219A      3.319114   220A      3.990763

    Final Occupation by Irrep:
              A
    DOCC [    38 ]

  @RHF Final Energy:  -388.02639198644823

   => Energetics <=

    Nuclear Repulsion Energy =            501.9403695374543304
    One-Electron Energy =               -1518.2426483546039435
    Two-Electron Energy =                 628.2758868307014382
    Total Energy =                       -388.0263919864481750

Computation Completed

Properties will be evaluated at   0.000000,   0.000000,   0.000000 [a0]

Properties computed using the SCF density matrix

  Nuclear Dipole Moment: [e a0]
     X:     1.6593      Y:   -12.8212      Z:     3.3174

  Electronic Dipole Moment: [e a0]
     X:    -1.7005      Y:    12.7543      Z:    -3.3527

  Dipole Moment: [e a0]
     X:    -0.0412      Y:    -0.0669      Z:    -0.0353     Total:     0.0861

  Dipole Moment: [D]
     X:    -0.1046      Y:    -0.1700      Z:    -0.0896     Total:     0.2188

*** tstop() called on ds3 at Mon Apr 27 12:51:51 2020
Module time:
	user time   =     128.79 seconds =       2.15 minutes
	system time =      50.40 seconds =       0.84 minutes
	total time  =        171 seconds =       2.85 minutes
Total time:
	user time   =     128.79 seconds =       2.15 minutes
	system time =      50.40 seconds =       0.84 minutes
	total time  =        171 seconds =       2.85 minutes
                                     G D M A

                                 by Anthony Stone

                           version 2.2.06, 22 June 2011

               Distributed Multipoles from Gaussian wavefunctions

Starting at 12:51:51 on 27 Apr 2020

Using SCF density matrix from file ./SSI/SSI-008VAL-080PHE-1-dimer.test.4195.fchk

                         Distributed Multipole Analysis

Standard DMA

Positions and radii in angstrom
Multipole moments in atomic units, ea_0^k for rank k

C          x =  2.091035  y = -2.316939  z =  0.382180 angstrom
           Maximum rank =  0   Radius =  0.650 angstrom
                   Q00  =  -0.240958

C          x =  1.729035  y = -3.040939  z =  1.682180 angstrom
           Maximum rank =  0   Radius =  0.650 angstrom
                   Q00  =  -0.233172

H          x =  3.105035  y = -2.570939  z =  0.077180 angstrom
           Maximum rank =  0   Radius =  0.325 angstrom
                   Q00  =   0.079637

H          x =  1.406035  y = -2.612939  z = -0.411820 angstrom
           Maximum rank =  0   Radius =  0.325 angstrom
                   Q00  =   0.078149

H          x =  2.023035  y = -1.236939  z =  0.502180 angstrom
           Maximum rank =  0   Radius =  0.325 angstrom
                   Q00  =   0.089398

H          x =  0.803035  y = -2.617939  z =  2.069180 angstrom
           Maximum rank =  0   Radius =  0.325 angstrom
                   Q00  =   0.070504

H          x =  2.525483  y = -2.911785  z =  2.429840 angstrom
           Maximum rank =  0   Radius =  0.325 angstrom
                   Q00  =   0.080337

H          x =  1.557391  y = -4.111912  z =  1.499000 angstrom
           Maximum rank =  0   Radius =  0.325 angstrom
                   Q00  =   0.079911

C          x = -1.090965  y = -1.209939  z = -0.264820 angstrom
           Maximum rank =  0   Radius =  0.650 angstrom
                   Q00  =  -0.032344

C          x = -2.616965  y = -1.300939  z = -0.126820 angstrom
           Maximum rank =  0   Radius =  0.650 angstrom
                   Q00  =  -0.245022

C          x = -0.552965  y =  0.198061  z = -0.294820 angstrom
           Maximum rank =  0   Radius =  0.650 angstrom
                   Q00  =  -0.107906

C          x = -0.695965  y =  0.989061  z = -1.432820 angstrom
           Maximum rank =  0   Radius =  0.650 angstrom
                   Q00  =  -0.083062

C          x =  0.115035  y =  0.722061  z =  0.800180 angstrom
           Maximum rank =  0   Radius =  0.650 angstrom
                   Q00  =  -0.040536

C          x = -0.195965  y =  2.287061  z = -1.460820 angstrom
           Maximum rank =  0   Radius =  0.650 angstrom
                   Q00  =  -0.075874

C          x =  0.616035  y =  2.017061  z =  0.772180 angstrom
           Maximum rank =  0   Radius =  0.650 angstrom
                   Q00  =  -0.023284

C          x =  0.453035  y =  2.804061  z = -0.353820 angstrom
           Maximum rank =  0   Radius =  0.650 angstrom
                   Q00  =  -0.075797

H          x = -0.660965  y = -1.728939  z =  0.589180 angstrom
           Maximum rank =  0   Radius =  0.325 angstrom
                   Q00  =   0.061630

H          x = -0.765965  y = -1.733939  z = -1.161820 angstrom
           Maximum rank =  0   Radius =  0.325 angstrom
                   Q00  =   0.071046

H          x = -2.946965  y = -0.746939  z =  0.754180 angstrom
           Maximum rank =  0   Radius =  0.325 angstrom
                   Q00  =   0.088258

H          x = -1.168965  y =  0.594061  z = -2.319820 angstrom
           Maximum rank =  0   Radius =  0.325 angstrom
                   Q00  =   0.055212

H          x =  0.271035  y =  0.116061  z =  1.681180 angstrom
           Maximum rank =  0   Radius =  0.325 angstrom
                   Q00  =   0.054865

H          x = -0.325965  y =  2.893061  z = -2.343820 angstrom
           Maximum rank =  0   Radius =  0.325 angstrom
                   Q00  =   0.063234

H          x =  1.133035  y =  2.414061  z =  1.633180 angstrom
           Maximum rank =  0   Radius =  0.325 angstrom
                   Q00  =   0.062804

H          x =  0.818035  y =  3.818061  z = -0.362820 angstrom
           Maximum rank =  0   Radius =  0.325 angstrom
                   Q00  =   0.059894

H          x = -2.919190  y = -2.356843  z = -0.065770 angstrom
           Maximum rank =  0   Radius =  0.325 angstrom
                   Q00  =   0.083007

H          x = -3.084109  y = -0.882547  z = -1.030548 angstrom
           Maximum rank =  0   Radius =  0.325 angstrom
                   Q00  =   0.080069

Total multipoles referred to origin at
           x =   0.000000,  y =    0.000000,  z =    0.000000 angstrom
                   Q00  =  -0.000000

Finished at 12:51:51 on 27 Apr 2020

  DMA results are available in the Python driver through the
	  variable('DMA DISTRIBUTED MULTIPOLES')
  and
	  variable('DMA TOTAL MULTIPOLES')
  commands.

    Psi4 stopped on: Monday, 27 April 2020 12:51PM
    Psi4 wall time for execution: 0:02:51.72

*** Psi4 exiting successfully. Buy a developer a beer!
