                               Psi4 1.3.2 release

  ==> Input File <==

--------------------------------------------------------------------------
import numpy as np
set {scf_type pk
basis cc-pvdz
d_convergence 10
gdma_switch   0
gdma_limit    0
gdma_origin   [ 0.0,  0.0,  0.0 ]
}
molecule test {
    units Angstrom
    1 1
    --
    1 1
    C                1.113365508586717     0.959071177291635     2.771103660777145
    C               -1.078634491413284    -0.644928822708365     0.157103660777145
    C               -0.770634491413284     0.456071177291635     0.999103660777145
    C                0.397365508586717     0.099071177291635     1.768103660777145
    C                0.733365508586717    -1.162928822708365     1.377103660777145
    C               -2.155634491413283    -0.633928822708365    -0.721896339222855
    C               -2.945634491413283     0.502071177291635    -0.764896339222855
    C               -1.588634491413284     1.595071177291635     0.938103660777145
    C               -2.669634491413283     1.606071177291635     0.054103660777145
    N               -0.142634491413283    -1.611928822708365     0.414103660777145
    H               -0.108634491413284    -2.536928822708365    -0.001896339222855
    H               -2.363634491413284    -1.485928822708365    -1.354896339222855
    H                1.564365508586717    -1.733928822708365     1.775103660777145
    H               -3.790634491413283     0.538071177291635    -1.437896339222855
    H               -1.387634491413283     2.439071177291635     1.576103660777145
    H                1.514365508586716     0.328071177291635     3.563103660777144
    H                0.375365508586717     1.610071177291635     3.243103660777145
    H               -3.311634491413284     2.477071177291634     0.003103660777145
    H                1.902605508586716     1.590031177291635     2.336373660777145
    C                2.044365508586717    -0.503928822708365    -1.731896339222855
    C                1.826365508586716     0.568071177291635    -2.788896339222855
    N                3.476365508586717    -0.908928822708365    -1.668896339222855
    H                1.733365508586717    -0.108928822708365    -0.757896339222855
    H                1.410365508586716    -1.366928822708365    -1.963896339222855
    H                1.941365508586717     0.119071177291635    -3.777896339222855
    H                2.563365508586716     1.365071177291635    -2.670896339222855
    H                4.053365508586716    -0.123928822708365    -1.378896339222855
    H                3.606365508586717    -1.638928822708365    -0.967896339222855
    H                3.810365508586717    -1.257928822708365    -2.559896339222855
    H                0.820025508586717     0.999771177291635    -2.684416339222855

}
e, wfn = energy('scf', return_wfn=True)
gdma(wfn)
dmavals = variable('DMA DISTRIBUTED MULTIPOLES')
charges = np.array(dmavals)
print(charges)
np.save('SSI-085TRP-135LYS-2-dimer.npy', np.array(charges))--------------------------------------------------------------------------

*** tstart() called on ds3
*** at Sun Apr 26 17:05:59 2020

   => Loading Basis Set <=

    Name: CC-PVDZ
    Role: ORBITAL
    Keyword: BASIS
    atoms 1-9, 20-21   entry C          line   138 file /theoryfs2/ds/metcalf/miniconda2/envs/tf2gpu/share/psi4/basis/cc-pvdz.gbs
    atoms 10, 22       entry N          line   168 file /theoryfs2/ds/metcalf/miniconda2/envs/tf2gpu/share/psi4/basis/cc-pvdz.gbs
    atoms 11-19, 23-30 entry H          line    22 file /theoryfs2/ds/metcalf/miniconda2/envs/tf2gpu/share/psi4/basis/cc-pvdz.gbs

         ---------------------------------------------------------
                                   SCF
               by Justin Turney, Rob Parrish, Andy Simmonett
                          and Daniel G. A. Smith
                              RHF Reference
                        1 Threads,    500 MiB Core
         ---------------------------------------------------------

  ==> Geometry <==

    Molecular point group: c1
    Full point group: C1

    Geometry (in Angstrom), charge = 1, multiplicity = 1:

       Center              X                  Y                   Z               Mass
    ------------   -----------------  -----------------  -----------------  -----------------
         C            1.113365508587     0.959071177292     2.771103660777    12.000000000000
         C           -1.078634491413    -0.644928822708     0.157103660777    12.000000000000
         C           -0.770634491413     0.456071177292     0.999103660777    12.000000000000
         C            0.397365508587     0.099071177292     1.768103660777    12.000000000000
         C            0.733365508587    -1.162928822708     1.377103660777    12.000000000000
         C           -2.155634491413    -0.633928822708    -0.721896339223    12.000000000000
         C           -2.945634491413     0.502071177292    -0.764896339223    12.000000000000
         C           -1.588634491413     1.595071177292     0.938103660777    12.000000000000
         C           -2.669634491413     1.606071177292     0.054103660777    12.000000000000
         N           -0.142634491413    -1.611928822708     0.414103660777    14.003074004430
         H           -0.108634491413    -2.536928822708    -0.001896339223     1.007825032230
         H           -2.363634491413    -1.485928822708    -1.354896339223     1.007825032230
         H            1.564365508587    -1.733928822708     1.775103660777     1.007825032230
         H           -3.790634491413     0.538071177292    -1.437896339223     1.007825032230
         H           -1.387634491413     2.439071177292     1.576103660777     1.007825032230
         H            1.514365508587     0.328071177292     3.563103660777     1.007825032230
         H            0.375365508587     1.610071177292     3.243103660777     1.007825032230
         H           -3.311634491413     2.477071177292     0.003103660777     1.007825032230
         H            1.902605508587     1.590031177292     2.336373660777     1.007825032230
         C            2.044365508587    -0.503928822708    -1.731896339223    12.000000000000
         C            1.826365508587     0.568071177292    -2.788896339223    12.000000000000
         N            3.476365508587    -0.908928822708    -1.668896339223    14.003074004430
         H            1.733365508587    -0.108928822708    -0.757896339223     1.007825032230
         H            1.410365508587    -1.366928822708    -1.963896339223     1.007825032230
         H            1.941365508587     0.119071177292    -3.777896339223     1.007825032230
         H            2.563365508587     1.365071177292    -2.670896339223     1.007825032230
         H            4.053365508587    -0.123928822708    -1.378896339223     1.007825032230
         H            3.606365508587    -1.638928822708    -0.967896339223     1.007825032230
         H            3.810365508587    -1.257928822708    -2.559896339223     1.007825032230
         H            0.820025508587     0.999771177292    -2.684416339223     1.007825032230

  Running in c1 symmetry.

  Rotational constants: A =      0.03103  B =      0.01797  C =      0.01455 [cm^-1]
  Rotational constants: A =    930.22063  B =    538.81427  C =    436.09577 [MHz]
  Nuclear repulsion =  782.904897415879645

  Charge       = 1
  Multiplicity = 1
  Electrons    = 96
  Nalpha       = 48
  Nbeta        = 48

  ==> Algorithm <==

  SCF Algorithm Type is PK.
  DIIS enabled.
  MOM disabled.
  Fractional occupation disabled.
  Guess Type is SAD.
  Energy threshold   = 1.00e-06
  Density threshold  = 1.00e-10
  Integral threshold = 0.00e+00

  ==> Primary Basis <==

  Basis Set: CC-PVDZ
    Blend: CC-PVDZ
    Number of shells: 129
    Number of basis function: 267
    Number of Cartesian functions: 280
    Spherical Harmonics?: true
    Max angular momentum: 2

  ==> Pre-Iterations <==

   -------------------------------------------------------
    Irrep   Nso     Nmo     Nalpha   Nbeta   Ndocc  Nsocc
   -------------------------------------------------------
     A        267     267       0       0       0       0
   -------------------------------------------------------
    Total     267     267      48      48      48       0
   -------------------------------------------------------

  ==> Integral Setup <==

  Using integral reordering PK algorithm.
  Sizing the integral batches needed.
  Building batch lookup table.
   Calculation information:
      Number of atoms:                  30
      Number of AO shells:             129
      Number of primitives:            371
      Number of atomic orbitals:       280
      Number of basis functions:       267

      Integral cutoff                 1.00e-12
      Number of threads:                 1

	Batch   1 pq = [       0,    9405] index = [             0,44231715] size =     44231715
	Batch   2 pq = [    9405,   13301] index = [      44231715,88464951] size =     44233236
	Batch   3 pq = [   13301,   16290] index = [      88464951,132690195] size =     44225244
	Batch   4 pq = [   16290,   18810] index = [     132690195,176917455] size =     44227260
	Batch   5 pq = [   18810,   21030] index = [     176917455,221140965] size =     44223510
	Batch   6 pq = [   21030,   23037] index = [     221140965,265363203] size =     44222238
	Batch   7 pq = [   23037,   24883] index = [     265363203,309594286] size =     44231083
	Batch   8 pq = [   24883,   26601] index = [     309594286,353819901] size =     44225615
	Batch   9 pq = [   26601,   28214] index = [     353819901,398029005] size =     44209104
	Batch  10 pq = [   28214,   29740] index = [     398029005,442248670] size =     44219665
	Batch  11 pq = [   29740,   31191] index = [     442248670,486454836] size =     44206166
	Batch  12 pq = [   31191,   32578] index = [     486454836,530679331] size =     44224495
	Batch  13 pq = [   32578,   33908] index = [     530679331,574893186] size =     44213855
	Batch  14 pq = [   33908,   35188] index = [     574893186,619115266] size =     44222080
	Batch  15 pq = [   35188,   35778] index = [     619115266,640050531] size =     20935265
  Task number: 58
  Buffer size: 11059200
  Buffer per thread: 2
  We computed 37896561 shell quartets total.
  Whereas there are 35158305 unique shell quartets.
     7.79 percent of shell quartets recomputed by reordering.

  ==> DiskJK: Disk-Based J/K Matrices <==

    J tasked:                  Yes
    K tasked:                  Yes
    wK tasked:                  No
    Memory [MiB]:              375
    Schwarz Cutoff:          1E-12

    OpenMP threads:              1

  Minimum eigenvalue in the overlap matrix is 2.3750816586E-04.
  Using Symmetric Orthogonalization.

  SCF Guess: Superposition of Atomic Densities via on-the-fly atomic UHF.

  ==> Iterations <==

                        Total Energy        Delta E     RMS |[F,P]|

   @RHF iter SAD:  -534.85124035345711   -5.34851e+02   0.00000e+00
   @RHF iter   1:  -534.87449064839655   -2.32503e-02   2.40702e-03 DIIS
   @RHF iter   2:  -535.12519895833634   -2.50708e-01   1.03462e-03 DIIS
   @RHF iter   3:  -535.16551397174453   -4.03150e-02   3.23284e-04 DIIS
   @RHF iter   4:  -535.17049911847880   -4.98515e-03   1.30137e-04 DIIS
   @RHF iter   5:  -535.17118173929475   -6.82621e-04   2.15880e-05 DIIS
   @RHF iter   6:  -535.17122190113150   -4.01618e-05   1.01393e-05 DIIS
   @RHF iter   7:  -535.17123037044496   -8.46931e-06   4.30607e-06 DIIS
   @RHF iter   8:  -535.17123284277977   -2.47233e-06   1.69530e-06 DIIS
   @RHF iter   9:  -535.17123337094824   -5.28168e-07   7.81675e-07 DIIS
   @RHF iter  10:  -535.17123348157304   -1.10625e-07   3.59209e-07 DIIS
   @RHF iter  11:  -535.17123350741326   -2.58402e-08   1.14540e-07 DIIS
   @RHF iter  12:  -535.17123350997451   -2.56125e-09   4.38226e-08 DIIS
   @RHF iter  13:  -535.17123351017881   -2.04295e-10   1.71980e-08 DIIS
   @RHF iter  14:  -535.17123351020234   -2.35332e-11   5.40379e-09 DIIS
   @RHF iter  15:  -535.17123351020484   -2.50111e-12   1.92774e-09 DIIS
   @RHF iter  16:  -535.17123351020859   -3.75167e-12   6.33177e-10 DIIS
   @RHF iter  17:  -535.17123351020712    1.47793e-12   3.26133e-10 DIIS
   @RHF iter  18:  -535.17123351020462    2.50111e-12   1.51658e-10 DIIS
   @RHF iter  19:  -535.17123351020496   -3.41061e-13   5.95428e-11 DIIS
  Energy and wave function converged.

  ==> Post-Iterations <==

    Orbital Energies [Eh]
    ---------------------

    Doubly Occupied:

       1A    -15.897964     2A    -15.711369     3A    -11.464318
       4A    -11.393351     5A    -11.371923     6A    -11.368442
       7A    -11.330525     8A    -11.328532     9A    -11.328360
      10A    -11.326194    11A    -11.325736    12A    -11.324053
      13A    -11.316500    14A     -1.515668    15A     -1.404334
      16A     -1.227145    17A     -1.207982    18A     -1.177702
      19A     -1.095252    20A     -1.088989    21A     -1.044012
      22A     -1.034997    23A     -0.975849    24A     -0.957341
      25A     -0.941286    26A     -0.904182    27A     -0.855883
      28A     -0.850170    29A     -0.823074    30A     -0.785925
      31A     -0.765046    32A     -0.740899    33A     -0.710521
      34A     -0.704305    35A     -0.701715    36A     -0.688612
      37A     -0.684973    38A     -0.671760    39A     -0.670269
      40A     -0.656254    41A     -0.638724    42A     -0.622361
      43A     -0.591736    44A     -0.570980    45A     -0.560708
      46A     -0.476711    47A     -0.397230    48A     -0.380371

    Virtual:

      49A     -0.046135    50A      0.011729    51A      0.020764
      52A      0.028177    53A      0.042438    54A      0.068929
      55A      0.075674    56A      0.091095    57A      0.105261
      58A      0.110253    59A      0.112336    60A      0.127076
      61A      0.130071    62A      0.141088    63A      0.148580
      64A      0.157862    65A      0.170210    66A      0.178730
      67A      0.182925    68A      0.195445    69A      0.214928
      70A      0.219880    71A      0.271577    72A      0.284801
      73A      0.304022    74A      0.325001    75A      0.341166
      76A      0.371499    77A      0.379937    78A      0.385696
      79A      0.395658    80A      0.404872    81A      0.412223
      82A      0.435543    83A      0.444999    84A      0.463956
      85A      0.505071    86A      0.524950    87A      0.539975
      88A      0.550240    89A      0.572942    90A      0.584241
      91A      0.598331    92A      0.608047    93A      0.621743
      94A      0.624079    95A      0.626070    96A      0.634146
      97A      0.641401    98A      0.643015    99A      0.647384
     100A      0.658904   101A      0.665813   102A      0.668123
     103A      0.678964   104A      0.690502   105A      0.699362
     106A      0.711807   107A      0.723733   108A      0.732071
     109A      0.747917   110A      0.754684   111A      0.758867
     112A      0.775740   113A      0.779826   114A      0.780879
     115A      0.786232   116A      0.789560   117A      0.799132
     118A      0.804882   119A      0.819962   120A      0.824781
     121A      0.845319   122A      0.850178   123A      0.854195
     124A      0.860457   125A      0.878944   126A      0.885920
     127A      0.904257   128A      0.914485   129A      0.926026
     130A      0.943638   131A      0.977343   132A      0.985272
     133A      1.018573   134A      1.033110   135A      1.039570
     136A      1.053466   137A      1.067965   138A      1.070839
     139A      1.090370   140A      1.114975   141A      1.123312
     142A      1.132680   143A      1.147443   144A      1.155406
     145A      1.179300   146A      1.190041   147A      1.196205
     148A      1.213055   149A      1.233074   150A      1.237679
     151A      1.259418   152A      1.268876   153A      1.280300
     154A      1.311391   155A      1.328071   156A      1.349011
     157A      1.412967   158A      1.426392   159A      1.449800
     160A      1.462899   161A      1.465841   162A      1.498465
     163A      1.508374   164A      1.514321   165A      1.527428
     166A      1.549581   167A      1.559027   168A      1.589253
     169A      1.597391   170A      1.630858   171A      1.635811
     172A      1.645821   173A      1.667998   174A      1.680347
     175A      1.697753   176A      1.702843   177A      1.712704
     178A      1.719221   179A      1.740843   180A      1.758156
     181A      1.761199   182A      1.768021   183A      1.782628
     184A      1.785673   185A      1.796503   186A      1.804760
     187A      1.814638   188A      1.819715   189A      1.835042
     190A      1.841760   191A      1.842474   192A      1.856509
     193A      1.860810   194A      1.877858   195A      1.893884
     196A      1.903817   197A      1.905474   198A      1.912347
     199A      1.931356   200A      1.939506   201A      1.949830
     202A      1.965799   203A      1.981979   204A      1.982713
     205A      1.994897   206A      2.003132   207A      2.006707
     208A      2.016874   209A      2.034189   210A      2.045055
     211A      2.066965   212A      2.067886   213A      2.073072
     214A      2.082063   215A      2.124475   216A      2.140926
     217A      2.165021   218A      2.169846   219A      2.181306
     220A      2.188540   221A      2.209959   222A      2.219384
     223A      2.235338   224A      2.252246   225A      2.296231
     226A      2.301145   227A      2.318780   228A      2.343082
     229A      2.350731   230A      2.365749   231A      2.393990
     232A      2.440174   233A      2.466947   234A      2.489109
     235A      2.498887   236A      2.518062   237A      2.532683
     238A      2.552247   239A      2.578544   240A      2.586855
     241A      2.608597   242A      2.609916   243A      2.638867
     244A      2.670965   245A      2.674215   246A      2.680942
     247A      2.688146   248A      2.706351   249A      2.732598
     250A      2.755244   251A      2.760463   252A      2.774713
     253A      2.809089   254A      2.817847   255A      2.867059
     256A      2.898538   257A      2.925193   258A      2.968420
     259A      2.976756   260A      3.026432   261A      3.094406
     262A      3.100698   263A      3.123325   264A      3.196743
     265A      3.273963   266A      3.636638   267A      3.847570

    Final Occupation by Irrep:
              A
    DOCC [    48 ]

  @RHF Final Energy:  -535.17123351020496

   => Energetics <=

    Nuclear Repulsion Energy =            782.9048974158796455
    One-Electron Energy =               -2264.9317974753494127
    Two-Electron Energy =                 946.8556665492649245
    Total Energy =                       -535.1712335102049565

Computation Completed

Properties will be evaluated at   0.000000,   0.000000,   0.000000 [a0]

Properties computed using the SCF density matrix

  Nuclear Dipole Moment: [e a0]
     X:    13.4272      Y:     1.1444      Z:    -6.6144

  Electronic Dipole Moment: [e a0]
     X:    -7.8604      Y:    -2.8578      Z:     3.6537

  Dipole Moment: [e a0]
     X:     5.5668      Y:    -1.7134      Z:    -2.9607     Total:     6.5338

  Dipole Moment: [D]
     X:    14.1493      Y:    -4.3551      Z:    -7.5254     Total:    16.6072

*** tstop() called on ds3 at Sun Apr 26 17:14:46 2020
Module time:
	user time   =     306.57 seconds =       5.11 minutes
	system time =     112.25 seconds =       1.87 minutes
	total time  =        527 seconds =       8.78 minutes
Total time:
	user time   =     306.57 seconds =       5.11 minutes
	system time =     112.25 seconds =       1.87 minutes
	total time  =        527 seconds =       8.78 minutes
                                     G D M A

                                 by Anthony Stone

                           version 2.2.06, 22 June 2011

               Distributed Multipoles from Gaussian wavefunctions

Starting at 17:14:46 on 26 Apr 2020

Using SCF density matrix from file ./SSI/SSI-085TRP-135LYS-2-dimer.test.17522.fchk

                         Distributed Multipole Analysis

Standard DMA

Positions and radii in angstrom
Multipole moments in atomic units, ea_0^k for rank k

C          x =  1.113366  y =  0.959071  z =  2.771104 angstrom
           Maximum rank =  0   Radius =  0.650 angstrom
                   Q00  =  -0.211395

C          x = -1.078634  y = -0.644929  z =  0.157104 angstrom
           Maximum rank =  0   Radius =  0.650 angstrom
                   Q00  =   0.257634

C          x = -0.770634  y =  0.456071  z =  0.999104 angstrom
           Maximum rank =  0   Radius =  0.650 angstrom
                   Q00  =  -0.071722

C          x =  0.397366  y =  0.099071  z =  1.768104 angstrom
           Maximum rank =  0   Radius =  0.650 angstrom
                   Q00  =  -0.119538

C          x =  0.733366  y = -1.162929  z =  1.377104 angstrom
           Maximum rank =  0   Radius =  0.650 angstrom
                   Q00  =   0.006556

C          x = -2.155634  y = -0.633929  z = -0.721896 angstrom
           Maximum rank =  0   Radius =  0.650 angstrom
                   Q00  =  -0.124883

C          x = -2.945634  y =  0.502071  z = -0.764896 angstrom
           Maximum rank =  0   Radius =  0.650 angstrom
                   Q00  =  -0.055221

C          x = -1.588634  y =  1.595071  z =  0.938104 angstrom
           Maximum rank =  0   Radius =  0.650 angstrom
                   Q00  =  -0.090561

C          x = -2.669634  y =  1.606071  z =  0.054104 angstrom
           Maximum rank =  0   Radius =  0.650 angstrom
                   Q00  =  -0.080038

N          x = -0.142634  y = -1.611929  z =  0.414104 angstrom
           Maximum rank =  0   Radius =  0.650 angstrom
                   Q00  =  -0.480108

H          x = -0.108634  y = -2.536929  z = -0.001896 angstrom
           Maximum rank =  0   Radius =  0.325 angstrom
                   Q00  =   0.217478

H          x = -2.363634  y = -1.485929  z = -1.354896 angstrom
           Maximum rank =  0   Radius =  0.325 angstrom
                   Q00  =   0.078153

H          x =  1.564366  y = -1.733929  z =  1.775104 angstrom
           Maximum rank =  0   Radius =  0.325 angstrom
                   Q00  =   0.093475

H          x = -3.790634  y =  0.538071  z = -1.437896 angstrom
           Maximum rank =  0   Radius =  0.325 angstrom
                   Q00  =   0.085288

H          x = -1.387634  y =  2.439071  z =  1.576104 angstrom
           Maximum rank =  0   Radius =  0.325 angstrom
                   Q00  =   0.084401

H          x =  1.514366  y =  0.328071  z =  3.563104 angstrom
           Maximum rank =  0   Radius =  0.325 angstrom
                   Q00  =   0.118780

H          x =  0.375366  y =  1.610071  z =  3.243104 angstrom
           Maximum rank =  0   Radius =  0.325 angstrom
                   Q00  =   0.126318

H          x = -3.311634  y =  2.477071  z =  0.003104 angstrom
           Maximum rank =  0   Radius =  0.325 angstrom
                   Q00  =   0.081867

H          x =  1.902606  y =  1.590031  z =  2.336374 angstrom
           Maximum rank =  0   Radius =  0.325 angstrom
                   Q00  =   0.088847

C          x =  2.044366  y = -0.503929  z = -1.731896 angstrom
           Maximum rank =  0   Radius =  0.650 angstrom
                   Q00  =  -0.012483

C          x =  1.826366  y =  0.568071  z = -2.788896 angstrom
           Maximum rank =  0   Radius =  0.650 angstrom
                   Q00  =  -0.230154

N          x =  3.476366  y = -0.908929  z = -1.668896 angstrom
           Maximum rank =  0   Radius =  0.650 angstrom
                   Q00  =  -0.140037

H          x =  1.733366  y = -0.108929  z = -0.757896 angstrom
           Maximum rank =  0   Radius =  0.325 angstrom
                   Q00  =   0.135906

H          x =  1.410366  y = -1.366929  z = -1.963896 angstrom
           Maximum rank =  0   Radius =  0.325 angstrom
                   Q00  =   0.119507

H          x =  1.941366  y =  0.119071  z = -3.777896 angstrom
           Maximum rank =  0   Radius =  0.325 angstrom
                   Q00  =   0.101126

H          x =  2.563366  y =  1.365071  z = -2.670896 angstrom
           Maximum rank =  0   Radius =  0.325 angstrom
                   Q00  =   0.093434

H          x =  4.053366  y = -0.123929  z = -1.378896 angstrom
           Maximum rank =  0   Radius =  0.325 angstrom
                   Q00  =   0.257604

H          x =  3.606366  y = -1.638929  z = -0.967896 angstrom
           Maximum rank =  0   Radius =  0.325 angstrom
                   Q00  =   0.253107

H          x =  3.810366  y = -1.257929  z = -2.559896 angstrom
           Maximum rank =  0   Radius =  0.325 angstrom
                   Q00  =   0.256596

H          x =  0.820026  y =  0.999771  z = -2.684416 angstrom
           Maximum rank =  0   Radius =  0.325 angstrom
                   Q00  =   0.160063

Total multipoles referred to origin at
           x =   0.000000,  y =    0.000000,  z =    0.000000 angstrom
                   Q00  =   1.000000

Finished at 17:14:46 on 26 Apr 2020

  DMA results are available in the Python driver through the
	  variable('DMA DISTRIBUTED MULTIPOLES')
  and
	  variable('DMA TOTAL MULTIPOLES')
  commands.

    Psi4 stopped on: Sunday, 26 April 2020 05:14PM
    Psi4 wall time for execution: 0:08:47.13

*** Psi4 exiting successfully. Buy a developer a beer!
