                               Psi4 1.3.2 release

  ==> Input File <==

--------------------------------------------------------------------------
import numpy as np
set {scf_type pk
basis cc-pvdz
d_convergence 10
gdma_switch   0
gdma_limit    0
gdma_origin   [ 0.0,  0.0,  0.0 ]
}
molecule test {
    units Angstrom
    0 1
    --
    0 1
    C                4.339465422112250    -0.368557869312509    -0.532965240071508
    C                0.723465422112249     0.228442130687491    -1.440965240071509
    C                1.853465422112250    -0.198557869312509    -0.762965240071508
    C                0.845465422112249     0.949442130687491    -2.628965240071508
    C                3.117465422112249     0.091442130687491    -1.268965240071509
    C                2.106465422112250     1.241442130687491    -3.135965240071509
    C                3.232465422112250     0.808442130687491    -2.450965240071509
    H               -0.258534577887751    -0.003557869312509    -1.051965240071508
    H                1.751465422112249    -0.757557869312509     0.155034759928491
    H               -0.038534577887751     1.273442130687491    -3.158965240071509
    H                2.204465422112250     1.799442130687491    -4.056965240071509
    H                4.099465422112250    -0.476557869312509     0.525034759928491
    H                5.115465422112250     0.394442130687491    -0.619965240071508
    H                4.208465422112249     1.043442130687491    -2.849965240071509
    H                4.725365422112249    -1.332937869312509    -0.894975240071509
    C               -2.332534577887750    -2.589557869312509     0.696034759928492
    C               -1.166534577887750    -0.622557869312509     1.702034759928492
    C               -2.361534577887750    -1.248557869312509     1.379034759928491
    C               -1.161534577887750     0.638442130687491     2.243034759928491
    C               -2.351534577887751     1.308442130687491     2.467034759928492
    C               -3.555534577887751    -0.566557869312509     1.582034759928491
    C               -3.553534577887750     0.692442130687491     2.150034759928491
    H               -0.226534577887751    -1.117557869312509     1.517034759928491
    H               -0.222534577887751     1.116442130687491     2.486034759928491
    H               -1.301534577887751    -2.942557869312509     0.660034759928491
    H               -2.655534577887751    -2.452557869312509    -0.332965240071509
    H               -2.340534577887751     2.304442130687491     2.885034759928491
    H               -4.489534577887751    -1.010557869312509     1.286034759928492
    H               -4.485534577887750     1.210442130687491     2.324034759928491
    H               -2.936714577887750    -3.384597869312509     1.157414759928491

}
e, wfn = energy('scf', return_wfn=True)
gdma(wfn)
dmavals = variable('DMA DISTRIBUTED MULTIPOLES')
charges = np.array(dmavals)
print(charges)
np.save('SSI-194PHE-217PHE-1-dimer.npy', np.array(charges))--------------------------------------------------------------------------

*** tstart() called on ds3
*** at Mon Apr 27 14:19:39 2020

   => Loading Basis Set <=

    Name: CC-PVDZ
    Role: ORBITAL
    Keyword: BASIS
    atoms 1-7, 16-22  entry C          line   138 file /theoryfs2/ds/metcalf/miniconda2/envs/tf2gpu/share/psi4/basis/cc-pvdz.gbs
    atoms 8-15, 23-30 entry H          line    22 file /theoryfs2/ds/metcalf/miniconda2/envs/tf2gpu/share/psi4/basis/cc-pvdz.gbs

         ---------------------------------------------------------
                                   SCF
               by Justin Turney, Rob Parrish, Andy Simmonett
                          and Daniel G. A. Smith
                              RHF Reference
                        1 Threads,    500 MiB Core
         ---------------------------------------------------------

  ==> Geometry <==

    Molecular point group: c1
    Full point group: C1

    Geometry (in Angstrom), charge = 0, multiplicity = 1:

       Center              X                  Y                   Z               Mass
    ------------   -----------------  -----------------  -----------------  -----------------
         C            4.339465422112    -0.368557869313    -0.532965240072    12.000000000000
         C            0.723465422112     0.228442130687    -1.440965240072    12.000000000000
         C            1.853465422112    -0.198557869313    -0.762965240072    12.000000000000
         C            0.845465422112     0.949442130687    -2.628965240072    12.000000000000
         C            3.117465422112     0.091442130687    -1.268965240072    12.000000000000
         C            2.106465422112     1.241442130687    -3.135965240072    12.000000000000
         C            3.232465422112     0.808442130687    -2.450965240072    12.000000000000
         H           -0.258534577888    -0.003557869313    -1.051965240072     1.007825032230
         H            1.751465422112    -0.757557869313     0.155034759928     1.007825032230
         H           -0.038534577888     1.273442130687    -3.158965240072     1.007825032230
         H            2.204465422112     1.799442130687    -4.056965240072     1.007825032230
         H            4.099465422112    -0.476557869313     0.525034759928     1.007825032230
         H            5.115465422112     0.394442130687    -0.619965240072     1.007825032230
         H            4.208465422112     1.043442130687    -2.849965240072     1.007825032230
         H            4.725365422112    -1.332937869313    -0.894975240072     1.007825032230
         C           -2.332534577888    -2.589557869313     0.696034759928    12.000000000000
         C           -1.166534577888    -0.622557869313     1.702034759928    12.000000000000
         C           -2.361534577888    -1.248557869313     1.379034759928    12.000000000000
         C           -1.161534577888     0.638442130687     2.243034759928    12.000000000000
         C           -2.351534577888     1.308442130687     2.467034759928    12.000000000000
         C           -3.555534577888    -0.566557869313     1.582034759928    12.000000000000
         C           -3.553534577888     0.692442130687     2.150034759928    12.000000000000
         H           -0.226534577888    -1.117557869313     1.517034759928     1.007825032230
         H           -0.222534577888     1.116442130687     2.486034759928     1.007825032230
         H           -1.301534577888    -2.942557869313     0.660034759928     1.007825032230
         H           -2.655534577888    -2.452557869313    -0.332965240072     1.007825032230
         H           -2.340534577888     2.304442130687     2.885034759928     1.007825032230
         H           -4.489534577888    -1.010557869313     1.286034759928     1.007825032230
         H           -4.485534577888     1.210442130687     2.324034759928     1.007825032230
         H           -2.936714577888    -3.384597869313     1.157414759928     1.007825032230

  Running in c1 symmetry.

  Rotational constants: A =      0.04070  B =      0.00866  C =      0.00856 [cm^-1]
  Rotational constants: A =   1220.00726  B =    259.72155  C =    256.61400 [MHz]
  Nuclear repulsion =  762.200887247205515

  Charge       = 0
  Multiplicity = 1
  Electrons    = 100
  Nalpha       = 50
  Nbeta        = 50

  ==> Algorithm <==

  SCF Algorithm Type is PK.
  DIIS enabled.
  MOM disabled.
  Fractional occupation disabled.
  Guess Type is SAD.
  Energy threshold   = 1.00e-06
  Density threshold  = 1.00e-10
  Integral threshold = 0.00e+00

  ==> Primary Basis <==

  Basis Set: CC-PVDZ
    Blend: CC-PVDZ
    Number of shells: 132
    Number of basis function: 276
    Number of Cartesian functions: 290
    Spherical Harmonics?: true
    Max angular momentum: 2

  ==> Pre-Iterations <==

   -------------------------------------------------------
    Irrep   Nso     Nmo     Nalpha   Nbeta   Ndocc  Nsocc
   -------------------------------------------------------
     A        276     276       0       0       0       0
   -------------------------------------------------------
    Total     276     276      50      50      50       0
   -------------------------------------------------------

  ==> Integral Setup <==

  Using integral reordering PK algorithm.
  Sizing the integral batches needed.
  Building batch lookup table.
   Calculation information:
      Number of atoms:                  30
      Number of AO shells:             132
      Number of primitives:            388
      Number of atomic orbitals:       290
      Number of basis functions:       276

      Integral cutoff                 1.00e-12
      Number of threads:                 1

	Batch   1 pq = [       0,    9405] index = [             0,44231715] size =     44231715
	Batch   2 pq = [    9405,   13301] index = [      44231715,88464951] size =     44233236
	Batch   3 pq = [   13301,   16290] index = [      88464951,132690195] size =     44225244
	Batch   4 pq = [   16290,   18810] index = [     132690195,176917455] size =     44227260
	Batch   5 pq = [   18810,   21030] index = [     176917455,221140965] size =     44223510
	Batch   6 pq = [   21030,   23037] index = [     221140965,265363203] size =     44222238
	Batch   7 pq = [   23037,   24883] index = [     265363203,309594286] size =     44231083
	Batch   8 pq = [   24883,   26601] index = [     309594286,353819901] size =     44225615
	Batch   9 pq = [   26601,   28214] index = [     353819901,398029005] size =     44209104
	Batch  10 pq = [   28214,   29740] index = [     398029005,442248670] size =     44219665
	Batch  11 pq = [   29740,   31191] index = [     442248670,486454836] size =     44206166
	Batch  12 pq = [   31191,   32578] index = [     486454836,530679331] size =     44224495
	Batch  13 pq = [   32578,   33908] index = [     530679331,574893186] size =     44213855
	Batch  14 pq = [   33908,   35188] index = [     574893186,619115266] size =     44222080
	Batch  15 pq = [   35188,   36423] index = [     619115266,663335676] size =     44220410
	Batch  16 pq = [   36423,   37617] index = [     663335676,707538153] size =     44202477
	Batch  17 pq = [   37617,   38226] index = [     707538153,730632651] size =     23094498
  Task number: 67
  Buffer size: 11059200
  Buffer per thread: 2
  We computed 33747877 shell quartets total.
  Whereas there are 38531031 unique shell quartets.

  ==> DiskJK: Disk-Based J/K Matrices <==

    J tasked:                  Yes
    K tasked:                  Yes
    wK tasked:                  No
    Memory [MiB]:              375
    Schwarz Cutoff:          1E-12

    OpenMP threads:              1

  Minimum eigenvalue in the overlap matrix is 2.8428438939E-04.
  Using Symmetric Orthogonalization.

  SCF Guess: Superposition of Atomic Densities via on-the-fly atomic UHF.

  ==> Iterations <==

                        Total Energy        Delta E     RMS |[F,P]|

   @RHF iter SAD:  -538.53806168601034   -5.38538e+02   0.00000e+00
   @RHF iter   1:  -539.22241828798451   -6.84357e-01   2.32954e-03 DIIS
   @RHF iter   2:  -539.47800472017377   -2.55586e-01   9.53371e-04 DIIS
   @RHF iter   3:  -539.51581043913870   -3.78057e-02   2.15216e-04 DIIS
   @RHF iter   4:  -539.51896354415919   -3.15311e-03   4.67099e-05 DIIS
   @RHF iter   5:  -539.51907488476502   -1.11341e-04   1.37756e-05 DIIS
   @RHF iter   6:  -539.51908395173325   -9.06697e-06   4.03680e-06 DIIS
   @RHF iter   7:  -539.51908487982519   -9.28092e-07   1.14338e-06 DIIS
   @RHF iter   8:  -539.51908496769215   -8.78670e-08   2.88123e-07 DIIS
   @RHF iter   9:  -539.51908497926809   -1.15759e-08   1.17157e-07 DIIS
   @RHF iter  10:  -539.51908498148305   -2.21496e-09   5.88652e-08 DIIS
   @RHF iter  11:  -539.51908498224986   -7.66818e-10   2.29555e-08 DIIS
   @RHF iter  12:  -539.51908498237594   -1.26079e-10   1.02519e-08 DIIS
   @RHF iter  13:  -539.51908498239698   -2.10321e-11   3.92710e-09 DIIS
   @RHF iter  14:  -539.51908498239493    2.04636e-12   9.21803e-10 DIIS
   @RHF iter  15:  -539.51908498239800   -3.06954e-12   3.65397e-10 DIIS
   @RHF iter  16:  -539.51908498239777    2.27374e-13   1.57592e-10 DIIS
   @RHF iter  17:  -539.51908498239754    2.27374e-13   7.65421e-11 DIIS
  Energy and wave function converged.

  ==> Post-Iterations <==

    Orbital Energies [Eh]
    ---------------------

    Doubly Occupied:

       1A    -11.240586     2A    -11.237333     3A    -11.234295
       4A    -11.232998     5A    -11.231958     6A    -11.231205
       7A    -11.229350     8A    -11.229337     9A    -11.228748
      10A    -11.228059    11A    -11.227779    12A    -11.227737
      13A    -11.227535    14A    -11.226699    15A     -1.159190
      16A     -1.152823    17A     -1.046251    18A     -1.043269
      19A     -1.017783    20A     -1.011549    21A     -0.933178
      22A     -0.929495    23A     -0.825974    24A     -0.822987
      25A     -0.799897    26A     -0.794187    27A     -0.695558
      28A     -0.688982    29A     -0.634898    30A     -0.631172
      31A     -0.629589    32A     -0.627281    33A     -0.587988
      34A     -0.581537    35A     -0.576527    36A     -0.576365
      37A     -0.564466    38A     -0.560156    39A     -0.533891
      40A     -0.533280    41A     -0.491912    42A     -0.486374
      43A     -0.485424    44A     -0.483536    45A     -0.482710
      46A     -0.478748    47A     -0.337329    48A     -0.331005
      49A     -0.323027    50A     -0.319489

    Virtual:

      51A      0.136037    52A      0.139776    53A      0.140698
      54A      0.144249    55A      0.171104    56A      0.193191
      57A      0.197497    58A      0.207072    59A      0.211873
      60A      0.232796    61A      0.238706    62A      0.255024
      63A      0.255796    64A      0.263683    65A      0.264778
      66A      0.271803    67A      0.280215    68A      0.291900
      69A      0.303656    70A      0.346639    71A      0.364917
      72A      0.370018    73A      0.377753    74A      0.407196
      75A      0.454006    76A      0.461799    77A      0.462962
      78A      0.474313    79A      0.477378    80A      0.485090
      81A      0.491275    82A      0.505478    83A      0.562736
      84A      0.577147    85A      0.595162    86A      0.600307
      87A      0.638681    88A      0.644735    89A      0.673030
      90A      0.679773    91A      0.684682    92A      0.689476
      93A      0.697317    94A      0.707870    95A      0.715729
      96A      0.721737    97A      0.726542    98A      0.735763
      99A      0.741867   100A      0.743604   101A      0.748845
     102A      0.750054   103A      0.752563   104A      0.759995
     105A      0.764979   106A      0.773503   107A      0.776378
     108A      0.783738   109A      0.789676   110A      0.801951
     111A      0.838388   112A      0.842593   113A      0.850867
     114A      0.859724   115A      0.863894   116A      0.871772
     117A      0.876369   118A      0.879586   119A      0.884657
     120A      0.895523   121A      0.897340   122A      0.904800
     123A      0.910939   124A      0.913546   125A      0.930930
     126A      0.940123   127A      0.942588   128A      0.949143
     129A      0.953728   130A      0.977310   131A      0.993401
     132A      1.010415   133A      1.030750   134A      1.042353
     135A      1.052300   136A      1.057642   137A      1.124721
     138A      1.132478   139A      1.139021   140A      1.141812
     141A      1.157945   142A      1.160134   143A      1.167555
     144A      1.170695   145A      1.199743   146A      1.206386
     147A      1.217857   148A      1.238490   149A      1.248747
     150A      1.252020   151A      1.254826   152A      1.267010
     153A      1.269739   154A      1.275028   155A      1.303037
     156A      1.310339   157A      1.313552   158A      1.321035
     159A      1.324290   160A      1.330265   161A      1.348965
     162A      1.355879   163A      1.412510   164A      1.414699
     165A      1.495817   166A      1.512140   167A      1.529235
     168A      1.538430   169A      1.560713   170A      1.567816
     171A      1.606816   172A      1.617775   173A      1.669910
     174A      1.678308   175A      1.696878   176A      1.705587
     177A      1.734475   178A      1.742254   179A      1.743616
     180A      1.754677   181A      1.758196   182A      1.768436
     183A      1.791972   184A      1.794563   185A      1.814979
     186A      1.827757   187A      1.859733   188A      1.867853
     189A      1.883129   190A      1.892841   191A      1.902419
     192A      1.906497   193A      1.913375   194A      1.917027
     195A      1.920677   196A      1.922606   197A      1.926644
     198A      1.938790   199A      1.943256   200A      1.952104
     201A      1.952703   202A      1.954983   203A      1.963563
     204A      1.981089   205A      1.985767   206A      1.995443
     207A      2.003013   208A      2.014471   209A      2.035845
     210A      2.049577   211A      2.064860   212A      2.069006
     213A      2.077920   214A      2.087664   215A      2.113649
     216A      2.121076   217A      2.130156   218A      2.154986
     219A      2.163756   220A      2.165055   221A      2.174263
     222A      2.176318   223A      2.182734   224A      2.183221
     225A      2.195494   226A      2.203647   227A      2.252576
     228A      2.261052   229A      2.277805   230A      2.286605
     231A      2.296318   232A      2.299495   233A      2.308040
     234A      2.311437   235A      2.321530   236A      2.324233
     237A      2.339620   238A      2.372946   239A      2.441491
     240A      2.473800   241A      2.480869   242A      2.496941
     243A      2.506771   244A      2.517169   245A      2.550376
     246A      2.553264   247A      2.628195   248A      2.645043
     249A      2.735769   250A      2.750636   251A      2.756096
     252A      2.760051   253A      2.768370   254A      2.774197
     255A      2.797250   256A      2.804663   257A      2.827275
     258A      2.831675   259A      2.853214   260A      2.859633
     261A      2.875064   262A      2.877107   263A      2.987781
     264A      3.006586   265A      3.021076   266A      3.025704
     267A      3.027041   268A      3.044453   269A      3.165160
     270A      3.178881   271A      3.216355   272A      3.223689
     273A      3.311542   274A      3.326088   275A      3.983453
     276A      3.999728

    Final Occupation by Irrep:
              A
    DOCC [    50 ]

  @RHF Final Energy:  -539.51908498239754

   => Energetics <=

    Nuclear Repulsion Energy =            762.2008872472055145
    One-Electron Energy =               -2240.6170508581994909
    Two-Electron Energy =                 938.8970786285963186
    Total Energy =                       -539.5190849823975441

Computation Completed

Properties will be evaluated at   0.000000,   0.000000,   0.000000 [a0]

Properties computed using the SCF density matrix

  Nuclear Dipole Moment: [e a0]
     X:     2.9522      Y:    -4.0652      Z:     0.0281

  Electronic Dipole Moment: [e a0]
     X:    -2.9279      Y:     3.9689      Z:    -0.0544

  Dipole Moment: [e a0]
     X:     0.0243      Y:    -0.0963      Z:    -0.0264     Total:     0.1028

  Dipole Moment: [D]
     X:     0.0619      Y:    -0.2448      Z:    -0.0671     Total:     0.2613

*** tstop() called on ds3 at Mon Apr 27 14:32:43 2020
Module time:
	user time   =     275.32 seconds =       4.59 minutes
	system time =     102.40 seconds =       1.71 minutes
	total time  =        784 seconds =      13.07 minutes
Total time:
	user time   =     275.32 seconds =       4.59 minutes
	system time =     102.40 seconds =       1.71 minutes
	total time  =        784 seconds =      13.07 minutes
                                     G D M A

                                 by Anthony Stone

                           version 2.2.06, 22 June 2011

               Distributed Multipoles from Gaussian wavefunctions

Starting at 14:32:43 on 27 Apr 2020

Using SCF density matrix from file ./SSI/SSI-194PHE-217PHE-1-dimer.test.9200.fchk

                         Distributed Multipole Analysis

Standard DMA

Positions and radii in angstrom
Multipole moments in atomic units, ea_0^k for rank k

C          x =  4.339465  y = -0.368558  z = -0.532965 angstrom
           Maximum rank =  0   Radius =  0.650 angstrom
                   Q00  =  -0.198592

C          x =  0.723465  y =  0.228442  z = -1.440965 angstrom
           Maximum rank =  0   Radius =  0.650 angstrom
                   Q00  =  -0.057145

C          x =  1.853465  y = -0.198558  z = -0.762965 angstrom
           Maximum rank =  0   Radius =  0.650 angstrom
                   Q00  =  -0.090107

C          x =  0.845465  y =  0.949442  z = -2.628965 angstrom
           Maximum rank =  0   Radius =  0.650 angstrom
                   Q00  =  -0.088289

C          x =  3.117465  y =  0.091442  z = -1.268965 angstrom
           Maximum rank =  0   Radius =  0.650 angstrom
                   Q00  =  -0.095951

C          x =  2.106465  y =  1.241442  z = -3.135965 angstrom
           Maximum rank =  0   Radius =  0.650 angstrom
                   Q00  =  -0.066739

C          x =  3.232465  y =  0.808442  z = -2.450965 angstrom
           Maximum rank =  0   Radius =  0.650 angstrom
                   Q00  =   0.000104

H          x = -0.258535  y = -0.003558  z = -1.051965 angstrom
           Maximum rank =  0   Radius =  0.325 angstrom
                   Q00  =   0.073516

H          x =  1.751465  y = -0.757558  z =  0.155035 angstrom
           Maximum rank =  0   Radius =  0.325 angstrom
                   Q00  =   0.048804

H          x = -0.038535  y =  1.273442  z = -3.158965 angstrom
           Maximum rank =  0   Radius =  0.325 angstrom
                   Q00  =   0.060421

H          x =  2.204465  y =  1.799442  z = -4.056965 angstrom
           Maximum rank =  0   Radius =  0.325 angstrom
                   Q00  =   0.064537

H          x =  4.099465  y = -0.476558  z =  0.525035 angstrom
           Maximum rank =  0   Radius =  0.325 angstrom
                   Q00  =   0.095002

H          x =  5.115465  y =  0.394442  z = -0.619965 angstrom
           Maximum rank =  0   Radius =  0.325 angstrom
                   Q00  =   0.098128

H          x =  4.208465  y =  1.043442  z = -2.849965 angstrom
           Maximum rank =  0   Radius =  0.325 angstrom
                   Q00  =   0.053351

H          x =  4.725365  y = -1.332938  z = -0.894975 angstrom
           Maximum rank =  0   Radius =  0.325 angstrom
                   Q00  =   0.104212

C          x = -2.332535  y = -2.589558  z =  0.696035 angstrom
           Maximum rank =  0   Radius =  0.650 angstrom
                   Q00  =  -0.210746

C          x = -1.166535  y = -0.622558  z =  1.702035 angstrom
           Maximum rank =  0   Radius =  0.650 angstrom
                   Q00  =  -0.011034

C          x = -2.361535  y = -1.248558  z =  1.379035 angstrom
           Maximum rank =  0   Radius =  0.650 angstrom
                   Q00  =  -0.092807

C          x = -1.161535  y =  0.638442  z =  2.243035 angstrom
           Maximum rank =  0   Radius =  0.650 angstrom
                   Q00  =  -0.035028

C          x = -2.351535  y =  1.308442  z =  2.467035 angstrom
           Maximum rank =  0   Radius =  0.650 angstrom
                   Q00  =  -0.080345

C          x = -3.555535  y = -0.566558  z =  1.582035 angstrom
           Maximum rank =  0   Radius =  0.650 angstrom
                   Q00  =  -0.089900

C          x = -3.553535  y =  0.692442  z =  2.150035 angstrom
           Maximum rank =  0   Radius =  0.650 angstrom
                   Q00  =  -0.073879

H          x = -0.226535  y = -1.117558  z =  1.517035 angstrom
           Maximum rank =  0   Radius =  0.325 angstrom
                   Q00  =   0.049540

H          x = -0.222535  y =  1.116442  z =  2.486035 angstrom
           Maximum rank =  0   Radius =  0.325 angstrom
                   Q00  =   0.063159

H          x = -1.301535  y = -2.942558  z =  0.660035 angstrom
           Maximum rank =  0   Radius =  0.325 angstrom
                   Q00  =   0.094466

H          x = -2.655535  y = -2.452558  z = -0.332965 angstrom
           Maximum rank =  0   Radius =  0.325 angstrom
                   Q00  =   0.102630

H          x = -2.340535  y =  2.304442  z =  2.885035 angstrom
           Maximum rank =  0   Radius =  0.325 angstrom
                   Q00  =   0.061050

H          x = -4.489535  y = -1.010558  z =  1.286035 angstrom
           Maximum rank =  0   Radius =  0.325 angstrom
                   Q00  =   0.053946

H          x = -4.485535  y =  1.210442  z =  2.324035 angstrom
           Maximum rank =  0   Radius =  0.325 angstrom
                   Q00  =   0.063395

H          x = -2.936715  y = -3.384598  z =  1.157415 angstrom
           Maximum rank =  0   Radius =  0.325 angstrom
                   Q00  =   0.104301

Total multipoles referred to origin at
           x =   0.000000,  y =    0.000000,  z =    0.000000 angstrom
                   Q00  =  -0.000000

Finished at 14:32:43 on 27 Apr 2020

  DMA results are available in the Python driver through the
	  variable('DMA DISTRIBUTED MULTIPOLES')
  and
	  variable('DMA TOTAL MULTIPOLES')
  commands.

    Psi4 stopped on: Monday, 27 April 2020 02:32PM
    Psi4 wall time for execution: 0:13:04.08

*** Psi4 exiting successfully. Buy a developer a beer!
