                               Psi4 1.3.2 release

  ==> Input File <==

--------------------------------------------------------------------------
import numpy as np
set {scf_type pk
basis cc-pvdz
d_convergence 10
gdma_switch   0
gdma_limit    0
gdma_origin   [ 0.0,  0.0,  0.0 ]
}
molecule test {
    units Angstrom
    0 1
    --
    0 1
    C                0.329321364572069     0.721593634556704     1.128323654957424
    C                1.509321364572069     0.608593634556704     0.188323654957424
    C               -1.003678635427931     2.172593634556705     3.000323654957424
    S                0.592321364572069     2.113593634556705     2.232323654957424
    H               -0.596678635427931     0.852593634556705     0.569323654957424
    H                0.256321364572069    -0.188406365443295     1.723323654957424
    H                1.461321364572069    -0.361406365443295    -0.298676345042576
    H                2.424321364572069     0.638593634556704     0.781323654957424
    H               -1.127678635427931     1.311593634556704     3.658323654957424
    H               -1.081678635427931     3.094593634556705     3.577323654957424
    H               -1.778678635427931     2.159593634556705     2.238323654957424
    H                1.550711364572069     1.381853634556705    -0.592926345042576
    C               -1.127678635427931    -1.986406365443296    -0.890676345042576
    C                0.814321364572069    -2.388406365443295    -2.648676345042576
    S               -0.816678635427931    -1.632406365443296    -2.587676345042576
    H               -0.316678635427931    -1.624406365443296    -0.263676345042576
    H               -2.058678635427931    -1.505406365443296    -0.585676345042576
    H               -1.226678635427931    -3.064406365443296    -0.753676345042576
    H                0.724321364572069    -3.470406365443295    -2.588676345042576
    H                1.434321364572069    -2.017406365443296    -1.833676345042576
    H                1.242221364572069    -2.088947365443295    -3.616776345042576

}
e, wfn = energy('scf', return_wfn=True)
gdma(wfn)
dmavals = variable('DMA DISTRIBUTED MULTIPOLES')
charges = np.array(dmavals)
print(charges)
np.save('SSI-057MET-060MET-1-dimer.npy', np.array(charges))--------------------------------------------------------------------------

*** tstart() called on ds3
*** at Mon Apr 27 07:47:30 2020

   => Loading Basis Set <=

    Name: CC-PVDZ
    Role: ORBITAL
    Keyword: BASIS
    atoms 1-3, 13-14  entry C          line   138 file /theoryfs2/ds/metcalf/miniconda2/envs/tf2gpu/share/psi4/basis/cc-pvdz.gbs
    atoms 4, 15       entry S          line   598 file /theoryfs2/ds/metcalf/miniconda2/envs/tf2gpu/share/psi4/basis/cc-pvdz.gbs
    atoms 5-12, 16-21 entry H          line    22 file /theoryfs2/ds/metcalf/miniconda2/envs/tf2gpu/share/psi4/basis/cc-pvdz.gbs

         ---------------------------------------------------------
                                   SCF
               by Justin Turney, Rob Parrish, Andy Simmonett
                          and Daniel G. A. Smith
                              RHF Reference
                        1 Threads,    500 MiB Core
         ---------------------------------------------------------

  ==> Geometry <==

    Molecular point group: c1
    Full point group: C1

    Geometry (in Angstrom), charge = 0, multiplicity = 1:

       Center              X                  Y                   Z               Mass
    ------------   -----------------  -----------------  -----------------  -----------------
         C            0.329321364572     0.721593634557     1.128323654957    12.000000000000
         C            1.509321364572     0.608593634557     0.188323654957    12.000000000000
         C           -1.003678635428     2.172593634557     3.000323654957    12.000000000000
         S            0.592321364572     2.113593634557     2.232323654957    31.972071174400
         H           -0.596678635428     0.852593634557     0.569323654957     1.007825032230
         H            0.256321364572    -0.188406365443     1.723323654957     1.007825032230
         H            1.461321364572    -0.361406365443    -0.298676345043     1.007825032230
         H            2.424321364572     0.638593634557     0.781323654957     1.007825032230
         H           -1.127678635428     1.311593634557     3.658323654957     1.007825032230
         H           -1.081678635428     3.094593634557     3.577323654957     1.007825032230
         H           -1.778678635428     2.159593634557     2.238323654957     1.007825032230
         H            1.550711364572     1.381853634557    -0.592926345043     1.007825032230
         C           -1.127678635428    -1.986406365443    -0.890676345043    12.000000000000
         C            0.814321364572    -2.388406365443    -2.648676345043    12.000000000000
         S           -0.816678635428    -1.632406365443    -2.587676345043    31.972071174400
         H           -0.316678635428    -1.624406365443    -0.263676345043     1.007825032230
         H           -2.058678635428    -1.505406365443    -0.585676345043     1.007825032230
         H           -1.226678635428    -3.064406365443    -0.753676345043     1.007825032230
         H            0.724321364572    -3.470406365443    -2.588676345043     1.007825032230
         H            1.434321364572    -2.017406365443    -1.833676345043     1.007825032230
         H            1.242221364572    -2.088947365443    -3.616776345043     1.007825032230

  Running in c1 symmetry.

  Rotational constants: A =      0.11310  B =      0.01507  C =      0.01392 [cm^-1]
  Rotational constants: A =   3390.77556  B =    451.67925  C =    417.22714 [MHz]
  Nuclear repulsion =  428.641954913478514

  Charge       = 0
  Multiplicity = 1
  Electrons    = 76
  Nalpha       = 38
  Nbeta        = 38

  ==> Algorithm <==

  SCF Algorithm Type is PK.
  DIIS enabled.
  MOM disabled.
  Fractional occupation disabled.
  Guess Type is SAD.
  Energy threshold   = 1.00e-06
  Density threshold  = 1.00e-10
  Integral threshold = 0.00e+00

  ==> Primary Basis <==

  Basis Set: CC-PVDZ
    Blend: CC-PVDZ
    Number of shells: 88
    Number of basis function: 176
    Number of Cartesian functions: 183
    Spherical Harmonics?: true
    Max angular momentum: 2

  ==> Pre-Iterations <==

   -------------------------------------------------------
    Irrep   Nso     Nmo     Nalpha   Nbeta   Ndocc  Nsocc
   -------------------------------------------------------
     A        176     176       0       0       0       0
   -------------------------------------------------------
    Total     176     176      38      38      38       0
   -------------------------------------------------------

  ==> Integral Setup <==

  Using integral reordering PK algorithm.
  Sizing the integral batches needed.
  Building batch lookup table.
   Calculation information:
      Number of atoms:                  21
      Number of AO shells:              88
      Number of primitives:            280
      Number of atomic orbitals:       183
      Number of basis functions:       176

      Integral cutoff                 1.00e-12
      Number of threads:                 1

	Batch   1 pq = [       0,    9405] index = [             0,44231715] size =     44231715
	Batch   2 pq = [    9405,   13301] index = [      44231715,88464951] size =     44233236
	Batch   3 pq = [   13301,   15576] index = [      88464951,121313676] size =     32848725
  Task number: 11
  Buffer size: 11059200
  Buffer per thread: 2
  We computed 6071282 shell quartets total.
  Whereas there are 7669486 unique shell quartets.

  ==> DiskJK: Disk-Based J/K Matrices <==

    J tasked:                  Yes
    K tasked:                  Yes
    wK tasked:                  No
    Memory [MiB]:              375
    Schwarz Cutoff:          1E-12

    OpenMP threads:              1

  Minimum eigenvalue in the overlap matrix is 4.7412435807E-03.
  Using Symmetric Orthogonalization.

  SCF Guess: Superposition of Atomic Densities via on-the-fly atomic UHF.

  ==> Iterations <==

                        Total Energy        Delta E     RMS |[F,P]|

   @RHF iter SAD:  -991.67907355161765   -9.91679e+02   0.00000e+00
   @RHF iter   1:  -992.38259361747669   -7.03520e-01   2.66931e-03 DIIS
   @RHF iter   2:  -992.52536627681036   -1.42773e-01   9.84556e-04 DIIS
   @RHF iter   3:  -992.54296443557894   -1.75982e-02   2.75761e-04 DIIS
   @RHF iter   4:  -992.54520034291295   -2.23591e-03   5.64614e-05 DIIS
   @RHF iter   5:  -992.54527409746061   -7.37545e-05   1.48798e-05 DIIS
   @RHF iter   6:  -992.54527955868070   -5.46122e-06   3.36598e-06 DIIS
   @RHF iter   7:  -992.54527989941789   -3.40737e-07   8.83966e-07 DIIS
   @RHF iter   8:  -992.54527992924591   -2.98280e-08   3.17478e-07 DIIS
   @RHF iter   9:  -992.54527993284307   -3.59717e-09   7.52169e-08 DIIS
   @RHF iter  10:  -992.54527993310251   -2.59433e-10   1.98046e-08 DIIS
   @RHF iter  11:  -992.54527993311888   -1.63709e-11   5.62108e-09 DIIS
   @RHF iter  12:  -992.54527993311820    6.82121e-13   1.93173e-09 DIIS
   @RHF iter  13:  -992.54527993312047   -2.27374e-12   6.50472e-10 DIIS
   @RHF iter  14:  -992.54527993312217   -1.70530e-12   1.76895e-10 DIIS
   @RHF iter  15:  -992.54527993312172    4.54747e-13   6.31613e-11 DIIS
  Energy and wave function converged.

  ==> Post-Iterations <==

    Orbital Energies [Eh]
    ---------------------

    Doubly Occupied:

       1A    -91.937782     2A    -91.930246     3A    -11.258855
       4A    -11.256069     5A    -11.254854     6A    -11.251822
       7A    -11.229830     8A     -8.942599     9A     -8.935419
      10A     -6.624663    11A     -6.623106    12A     -6.620762
      13A     -6.617507    14A     -6.615852    15A     -6.613586
      16A     -1.088735    17A     -1.076960    18A     -1.005532
      19A     -0.954028    20A     -0.876977    21A     -0.808206
      22A     -0.790391    23A     -0.634476    24A     -0.623508
      25A     -0.608966    26A     -0.595588    27A     -0.587459
      28A     -0.580567    29A     -0.579539    30A     -0.564703
      31A     -0.527335    32A     -0.506271    33A     -0.492939
      34A     -0.473576    35A     -0.439009    36A     -0.427041
      37A     -0.335168    38A     -0.329748

    Virtual:

      39A      0.161366    40A      0.174599    41A      0.180931
      42A      0.204523    43A      0.215955    44A      0.230154
      45A      0.234284    46A      0.242429    47A      0.251484
      48A      0.261705    49A      0.263925    50A      0.274080
      51A      0.278744    52A      0.280721    53A      0.288123
      54A      0.314208    55A      0.340827    56A      0.378339
      57A      0.419615    58A      0.515425    59A      0.536574
      60A      0.553075    61A      0.558634    62A      0.580024
      63A      0.585408    64A      0.613583    65A      0.625214
      66A      0.634444    67A      0.661319    68A      0.680597
      69A      0.691534    70A      0.707885    71A      0.717095
      72A      0.728435    73A      0.756029    74A      0.774234
      75A      0.777414    76A      0.797875    77A      0.808114
      78A      0.830067    79A      0.845431    80A      0.851262
      81A      0.860011    82A      0.865114    83A      0.875421
      84A      0.879078    85A      0.884597    86A      0.890188
      87A      0.894922    88A      0.899882    89A      0.900992
      90A      0.912295    91A      0.914256    92A      0.923798
      93A      0.936133    94A      0.943565    95A      0.965490
      96A      0.970706    97A      0.988659    98A      0.998212
      99A      1.039220   100A      1.073413   101A      1.185874
     102A      1.199186   103A      1.229695   104A      1.255792
     105A      1.300950   106A      1.316212   107A      1.327975
     108A      1.335627   109A      1.356692   110A      1.365717
     111A      1.370707   112A      1.406858   113A      1.433657
     114A      1.468771   115A      1.482835   116A      1.503896
     117A      1.510970   118A      1.633394   119A      1.660460
     120A      1.668693   121A      1.686935   122A      1.704696
     123A      1.717022   124A      1.860109   125A      1.865560
     126A      1.876717   127A      1.881818   128A      1.887770
     129A      1.892406   130A      1.908322   131A      1.919379
     132A      1.923658   133A      1.930013   134A      1.937729
     135A      1.945627   136A      1.963177   137A      1.978442
     138A      1.994131   139A      1.998257   140A      2.016211
     141A      2.027241   142A      2.041454   143A      2.052142
     144A      2.058730   145A      2.079214   146A      2.118673
     147A      2.152766   148A      2.208571   149A      2.219979
     150A      2.241417   151A      2.255428   152A      2.320934
     153A      2.337623   154A      2.408855   155A      2.424194
     156A      2.428639   157A      2.441957   158A      2.462814
     159A      2.479860   160A      2.494208   161A      2.543772
     162A      2.582462   163A      2.735533   164A      2.758090
     165A      2.761157   166A      2.767015   167A      2.776616
     168A      2.783648   169A      2.785082   170A      2.794100
     171A      2.817523   172A      2.827332   173A      2.847385
     174A      2.862409   175A      2.930976   176A      2.964279

    Final Occupation by Irrep:
              A
    DOCC [    38 ]

  @RHF Final Energy:  -992.54527993312172

   => Energetics <=

    Nuclear Repulsion Energy =            428.6419549134785143
    One-Electron Energy =               -2217.1351207845009412
    Two-Electron Energy =                 795.9478859379007645
    Total Energy =                       -992.5452799331217193

Computation Completed

Properties will be evaluated at   0.000000,   0.000000,   0.000000 [a0]

Properties computed using the SCF density matrix

  Nuclear Dipole Moment: [e a0]
     X:     0.8442      Y:    -4.5640      Z:     1.8789

  Electronic Dipole Moment: [e a0]
     X:    -0.9879      Y:     3.8914      Z:    -1.5922

  Dipole Moment: [e a0]
     X:    -0.1437      Y:    -0.6726      Z:     0.2867     Total:     0.7452

  Dipole Moment: [D]
     X:    -0.3653      Y:    -1.7096      Z:     0.7286     Total:     1.8940

*** tstop() called on ds3 at Mon Apr 27 07:49:15 2020
Module time:
	user time   =      57.12 seconds =       0.95 minutes
	system time =      16.60 seconds =       0.28 minutes
	total time  =        105 seconds =       1.75 minutes
Total time:
	user time   =      57.12 seconds =       0.95 minutes
	system time =      16.60 seconds =       0.28 minutes
	total time  =        105 seconds =       1.75 minutes
                                     G D M A

                                 by Anthony Stone

                           version 2.2.06, 22 June 2011

               Distributed Multipoles from Gaussian wavefunctions

Starting at 7:49:15 on 27 Apr 2020

Using SCF density matrix from file ./SSI/SSI-057MET-060MET-1-dimer.test.32659.fchk

                         Distributed Multipole Analysis

Standard DMA

Positions and radii in angstrom
Multipole moments in atomic units, ea_0^k for rank k

C          x =  0.329321  y =  0.721594  z =  1.128324 angstrom
           Maximum rank =  0   Radius =  0.650 angstrom
                   Q00  =  -0.228610

C          x =  1.509321  y =  0.608594  z =  0.188324 angstrom
           Maximum rank =  0   Radius =  0.650 angstrom
                   Q00  =  -0.216431

C          x = -1.003679  y =  2.172594  z =  3.000324 angstrom
           Maximum rank =  0   Radius =  0.650 angstrom
                   Q00  =  -0.348141

S          x =  0.592321  y =  2.113594  z =  2.232324 angstrom
           Maximum rank =  0   Radius =  0.650 angstrom
                   Q00  =   0.128781

H          x = -0.596679  y =  0.852594  z =  0.569324 angstrom
           Maximum rank =  0   Radius =  0.325 angstrom
                   Q00  =   0.064982

H          x =  0.256321  y = -0.188406  z =  1.723324 angstrom
           Maximum rank =  0   Radius =  0.325 angstrom
                   Q00  =   0.052937

H          x =  1.461321  y = -0.361406  z = -0.298676 angstrom
           Maximum rank =  0   Radius =  0.325 angstrom
                   Q00  =   0.082130

H          x =  2.424321  y =  0.638594  z =  0.781324 angstrom
           Maximum rank =  0   Radius =  0.325 angstrom
                   Q00  =   0.085572

H          x = -1.127679  y =  1.311594  z =  3.658324 angstrom
           Maximum rank =  0   Radius =  0.325 angstrom
                   Q00  =   0.080401

H          x = -1.081679  y =  3.094594  z =  3.577324 angstrom
           Maximum rank =  0   Radius =  0.325 angstrom
                   Q00  =   0.117959

H          x = -1.778679  y =  2.159594  z =  2.238324 angstrom
           Maximum rank =  0   Radius =  0.325 angstrom
                   Q00  =   0.084577

H          x =  1.550711  y =  1.381854  z = -0.592926 angstrom
           Maximum rank =  0   Radius =  0.325 angstrom
                   Q00  =   0.099705

C          x = -1.127679  y = -1.986406  z = -0.890676 angstrom
           Maximum rank =  0   Radius =  0.650 angstrom
                   Q00  =  -0.350225

C          x =  0.814321  y = -2.388406  z = -2.648676 angstrom
           Maximum rank =  0   Radius =  0.650 angstrom
                   Q00  =  -0.351914

S          x = -0.816679  y = -1.632406  z = -2.587676 angstrom
           Maximum rank =  0   Radius =  0.650 angstrom
                   Q00  =   0.141526

H          x = -0.316679  y = -1.624406  z = -0.263676 angstrom
           Maximum rank =  0   Radius =  0.325 angstrom
                   Q00  =   0.072978

H          x = -2.058679  y = -1.505406  z = -0.585676 angstrom
           Maximum rank =  0   Radius =  0.325 angstrom
                   Q00  =   0.114629

H          x = -1.226679  y = -3.064406  z = -0.753676 angstrom
           Maximum rank =  0   Radius =  0.325 angstrom
                   Q00  =   0.078527

H          x =  0.724321  y = -3.470406  z = -2.588676 angstrom
           Maximum rank =  0   Radius =  0.325 angstrom
                   Q00  =   0.087178

H          x =  1.434321  y = -2.017406  z = -1.833676 angstrom
           Maximum rank =  0   Radius =  0.325 angstrom
                   Q00  =   0.085882

H          x =  1.242221  y = -2.088947  z = -3.616776 angstrom
           Maximum rank =  0   Radius =  0.325 angstrom
                   Q00  =   0.117557

Total multipoles referred to origin at
           x =   0.000000,  y =    0.000000,  z =    0.000000 angstrom
                   Q00  =  -0.000000

Finished at 7:49:15 on 27 Apr 2020

  DMA results are available in the Python driver through the
	  variable('DMA DISTRIBUTED MULTIPOLES')
  and
	  variable('DMA TOTAL MULTIPOLES')
  commands.

    Psi4 stopped on: Monday, 27 April 2020 07:49AM
    Psi4 wall time for execution: 0:01:44.91

*** Psi4 exiting successfully. Buy a developer a beer!
