                               Psi4 1.3.2 release

  ==> Input File <==

--------------------------------------------------------------------------
import numpy as np
set {scf_type pk
basis cc-pvdz
d_convergence 10
gdma_switch   0
gdma_limit    0
gdma_origin   [ 0.0,  0.0,  0.0 ]
}
molecule test {
    units Angstrom
    0 1
    --
    0 1
    C               -1.379053012148967     0.119512479908117     1.207978410654025
    C               -2.891053012148967     0.320512479908117     1.463978410654025
    H               -1.227053012148967    -0.390487520091883     0.257978410654025
    H               -0.890053012148967     1.090512479908117     1.169978410654025
    H               -0.924053012148967    -0.462487520091883     2.008978410654025
    H               -3.296053012148967     0.930512479908117     0.656978410654025
    H               -3.423283012148967    -0.641627520091883     1.495958410654025
    H               -3.059763012148967     0.895972479908117     2.386138410654024
    C                1.702946987851033    -0.359487520091883    -0.731021589345975
    C                2.572946987851033    -0.085487520091883    -1.937021589345975
    H                1.586946987851033     0.542512479908117    -0.130021589345975
    H                0.718946987851033    -0.686487520091883    -1.067021589345975
    H                2.127946987851033    -1.156487520091883    -0.124021589345975
    H                2.728946987851033    -1.014487520091883    -2.485021589345976
    H                3.538096987851033     0.332822479908117    -1.615301589345975
    H                2.050456987851033     0.618672479908117    -2.601221589345975

}
e, wfn = energy('scf', return_wfn=True)
gdma(wfn)
dmavals = variable('DMA DISTRIBUTED MULTIPOLES')
charges = np.array(dmavals)
print(charges)
np.save('SSI-019VAL-075LEU-1-dimer.npy', np.array(charges))--------------------------------------------------------------------------

*** tstart() called on ds3
*** at Tue Apr 28 15:40:13 2020

   => Loading Basis Set <=

    Name: CC-PVDZ
    Role: ORBITAL
    Keyword: BASIS
    atoms 1-2, 9-10  entry C          line   138 file /theoryfs2/ds/metcalf/miniconda2/envs/tf2gpu/share/psi4/basis/cc-pvdz.gbs
    atoms 3-8, 11-16 entry H          line    22 file /theoryfs2/ds/metcalf/miniconda2/envs/tf2gpu/share/psi4/basis/cc-pvdz.gbs

         ---------------------------------------------------------
                                   SCF
               by Justin Turney, Rob Parrish, Andy Simmonett
                          and Daniel G. A. Smith
                              RHF Reference
                        1 Threads,    500 MiB Core
         ---------------------------------------------------------

  ==> Geometry <==

    Molecular point group: c1
    Full point group: C1

    Geometry (in Angstrom), charge = 0, multiplicity = 1:

       Center              X                  Y                   Z               Mass
    ------------   -----------------  -----------------  -----------------  -----------------
         C           -1.379053012149     0.119512479908     1.207978410654    12.000000000000
         C           -2.891053012149     0.320512479908     1.463978410654    12.000000000000
         H           -1.227053012149    -0.390487520092     0.257978410654     1.007825032230
         H           -0.890053012149     1.090512479908     1.169978410654     1.007825032230
         H           -0.924053012149    -0.462487520092     2.008978410654     1.007825032230
         H           -3.296053012149     0.930512479908     0.656978410654     1.007825032230
         H           -3.423283012149    -0.641627520092     1.495958410654     1.007825032230
         H           -3.059763012149     0.895972479908     2.386138410654     1.007825032230
         C            1.702946987851    -0.359487520092    -0.731021589346    12.000000000000
         C            2.572946987851    -0.085487520092    -1.937021589346    12.000000000000
         H            1.586946987851     0.542512479908    -0.130021589346     1.007825032230
         H            0.718946987851    -0.686487520092    -1.067021589346     1.007825032230
         H            2.127946987851    -1.156487520092    -0.124021589346     1.007825032230
         H            2.728946987851    -1.014487520092    -2.485021589346     1.007825032230
         H            3.538096987851     0.332822479908    -1.615301589346     1.007825032230
         H            2.050456987851     0.618672479908    -2.601221589346     1.007825032230

  Running in c1 symmetry.

  Rotational constants: A =      0.87373  B =      0.03938  C =      0.03886 [cm^-1]
  Rotational constants: A =  26193.66459  B =   1180.71662  C =   1165.13374 [MHz]
  Nuclear repulsion =  119.811133906676261

  Charge       = 0
  Multiplicity = 1
  Electrons    = 36
  Nalpha       = 18
  Nbeta        = 18

  ==> Algorithm <==

  SCF Algorithm Type is PK.
  DIIS enabled.
  MOM disabled.
  Fractional occupation disabled.
  Guess Type is SAD.
  Energy threshold   = 1.00e-06
  Density threshold  = 1.00e-10
  Integral threshold = 0.00e+00

  ==> Primary Basis <==

  Basis Set: CC-PVDZ
    Blend: CC-PVDZ
    Number of shells: 60
    Number of basis function: 116
    Number of Cartesian functions: 120
    Spherical Harmonics?: true
    Max angular momentum: 2

  ==> Pre-Iterations <==

   -------------------------------------------------------
    Irrep   Nso     Nmo     Nalpha   Nbeta   Ndocc  Nsocc
   -------------------------------------------------------
     A        116     116       0       0       0       0
   -------------------------------------------------------
    Total     116     116      18      18      18       0
   -------------------------------------------------------

  ==> Integral Setup <==

  Using integral reordering PK algorithm.
  Sizing the integral batches needed.
  Building batch lookup table.
   Calculation information:
      Number of atoms:                  16
      Number of AO shells:              60
      Number of primitives:            148
      Number of atomic orbitals:       120
      Number of basis functions:       116

      Integral cutoff                 1.00e-12
      Number of threads:                 1

	Batch   1 pq = [       0,    6786] index = [             0,23028291] size =     23028291
  Task number: 3
  Buffer size: 11059200
  Buffer per thread: 2
  We computed 1325835 shell quartets total.
  Whereas there are 1675365 unique shell quartets.

  ==> DiskJK: Disk-Based J/K Matrices <==

    J tasked:                  Yes
    K tasked:                  Yes
    wK tasked:                  No
    Memory [MiB]:              375
    Schwarz Cutoff:          1E-12

    OpenMP threads:              1

  Minimum eigenvalue in the overlap matrix is 6.0605044674E-03.
  Using Symmetric Orthogonalization.

  SCF Guess: Superposition of Atomic Densities via on-the-fly atomic UHF.

  ==> Iterations <==

                        Total Energy        Delta E     RMS |[F,P]|

   @RHF iter SAD:  -157.34689828436984   -1.57347e+02   0.00000e+00
   @RHF iter   1:  -158.30705726200102   -9.60159e-01   4.21555e-03 DIIS
   @RHF iter   2:  -158.44067966148083   -1.33622e-01   1.79599e-03 DIIS
   @RHF iter   3:  -158.46408023912178   -2.34006e-02   3.50115e-04 DIIS
   @RHF iter   4:  -158.46590940038018   -1.82916e-03   3.90843e-05 DIIS
   @RHF iter   5:  -158.46593301606228   -2.36157e-05   7.20233e-06 DIIS
   @RHF iter   6:  -158.46593372077180   -7.04710e-07   1.55291e-06 DIIS
   @RHF iter   7:  -158.46593374222175   -2.14499e-08   3.14158e-07 DIIS
   @RHF iter   8:  -158.46593374324283   -1.02108e-09   3.71448e-08 DIIS
   @RHF iter   9:  -158.46593374326434   -2.15152e-11   8.45367e-09 DIIS
   @RHF iter  10:  -158.46593374326429    5.68434e-14   2.48693e-09 DIIS
   @RHF iter  11:  -158.46593374326514   -8.52651e-13   5.20879e-10 DIIS
   @RHF iter  12:  -158.46593374326469    4.54747e-13   8.41060e-11 DIIS
  Energy and wave function converged.

  ==> Post-Iterations <==

    Orbital Energies [Eh]
    ---------------------

    Doubly Occupied:

       1A    -11.219868     2A    -11.217504     3A    -11.216991
       4A    -11.214028     5A     -1.022176     6A     -1.012847
       7A     -0.840117     8A     -0.832188     9A     -0.601901
      10A     -0.599706    11A     -0.596149    12A     -0.591750
      13A     -0.506031    14A     -0.493614    15A     -0.491572
      16A     -0.486229    17A     -0.483160    18A     -0.477937

    Virtual:

      19A      0.176826    20A      0.194441    21A      0.221180
      22A      0.231833    23A      0.245363    24A      0.260739
      25A      0.266573    26A      0.277378    27A      0.280913
      28A      0.283122    29A      0.310969    30A      0.352547
      31A      0.371027    32A      0.422918    33A      0.565416
      34A      0.592113    35A      0.592440    36A      0.602026
      37A      0.606704    38A      0.649553    39A      0.672923
      40A      0.680960    41A      0.706842    42A      0.755973
      43A      0.826006    44A      0.884838    45A      0.889709
      46A      0.892486    47A      0.894530    48A      0.897404
      49A      0.903712    50A      0.911937    51A      0.917568
      52A      0.919745    53A      0.944271    54A      0.958697
      55A      0.963170    56A      0.991616    57A      1.124691
      58A      1.125647    59A      1.126679    60A      1.149081
      61A      1.208042    62A      1.278397    63A      1.468409
      64A      1.470077    65A      1.482629    66A      1.488910
      67A      1.564449    68A      1.597520    69A      1.677850
      70A      1.682760    71A      1.693472    72A      1.698930
      73A      1.843383    74A      1.850166    75A      1.869220
      76A      1.876509    77A      1.897083    78A      1.926552
      79A      1.935720    80A      1.941950    81A      1.947051
      82A      1.950563    83A      1.951507    84A      1.957764
      85A      1.962570    86A      1.965506    87A      1.972569
      88A      2.067284    89A      2.090530    90A      2.108630
      91A      2.113317    92A      2.119000    93A      2.296752
      94A      2.299182    95A      2.313386    96A      2.354538
      97A      2.444537    98A      2.458693    99A      2.467428
     100A      2.475864   101A      2.555535   102A      2.567369
     103A      2.571575   104A      2.575539   105A      2.756320
     106A      2.765874   107A      2.790025   108A      2.790635
     109A      2.841490   110A      2.850889   111A      2.857074
     112A      2.870028   113A      2.937913   114A      2.953089
     115A      2.958701   116A      2.976136

    Final Occupation by Irrep:
              A
    DOCC [    18 ]

  @RHF Final Energy:  -158.46593374326469

   => Energetics <=

    Nuclear Repulsion Energy =            119.8111339066762611
    One-Electron Energy =                -448.7465996279354385
    Two-Electron Energy =                 170.4695319779944782
    Total Energy =                       -158.4659337432646851

Computation Completed

Properties will be evaluated at   0.000000,   0.000000,   0.000000 [a0]

Properties computed using the SCF density matrix

  Nuclear Dipole Moment: [e a0]
     X:    -0.0646      Y:     0.0553      Z:    -0.0437

  Electronic Dipole Moment: [e a0]
     X:     0.0668      Y:    -0.0550      Z:     0.0362

  Dipole Moment: [e a0]
     X:     0.0022      Y:     0.0003      Z:    -0.0075     Total:     0.0078

  Dipole Moment: [D]
     X:     0.0056      Y:     0.0007      Z:    -0.0190     Total:     0.0198

*** tstop() called on ds3 at Tue Apr 28 15:40:24 2020
Module time:
	user time   =       6.68 seconds =       0.11 minutes
	system time =       2.43 seconds =       0.04 minutes
	total time  =         11 seconds =       0.18 minutes
Total time:
	user time   =       6.68 seconds =       0.11 minutes
	system time =       2.43 seconds =       0.04 minutes
	total time  =         11 seconds =       0.18 minutes
                                     G D M A

                                 by Anthony Stone

                           version 2.2.06, 22 June 2011

               Distributed Multipoles from Gaussian wavefunctions

Starting at 15:40:24 on 28 Apr 2020

Using SCF density matrix from file ./SSI/SSI-019VAL-075LEU-1-dimer.test.10514.fchk

                         Distributed Multipole Analysis

Standard DMA

Positions and radii in angstrom
Multipole moments in atomic units, ea_0^k for rank k

C          x = -1.379053  y =  0.119512  z =  1.207978 angstrom
           Maximum rank =  0   Radius =  0.650 angstrom
                   Q00  =  -0.240087

C          x = -2.891053  y =  0.320512  z =  1.463978 angstrom
           Maximum rank =  0   Radius =  0.650 angstrom
                   Q00  =  -0.244135

H          x = -1.227053  y = -0.390488  z =  0.257978 angstrom
           Maximum rank =  0   Radius =  0.325 angstrom
                   Q00  =   0.081898

H          x = -0.890053  y =  1.090512  z =  1.169978 angstrom
           Maximum rank =  0   Radius =  0.325 angstrom
                   Q00  =   0.079686

H          x = -0.924053  y = -0.462488  z =  2.008978 angstrom
           Maximum rank =  0   Radius =  0.325 angstrom
                   Q00  =   0.081163

H          x = -3.296053  y =  0.930512  z =  0.656978 angstrom
           Maximum rank =  0   Radius =  0.325 angstrom
                   Q00  =   0.078231

H          x = -3.423283  y = -0.641628  z =  1.495958 angstrom
           Maximum rank =  0   Radius =  0.325 angstrom
                   Q00  =   0.082742

H          x = -3.059763  y =  0.895972  z =  2.386138 angstrom
           Maximum rank =  0   Radius =  0.325 angstrom
                   Q00  =   0.080138

C          x =  1.702947  y = -0.359488  z = -0.731022 angstrom
           Maximum rank =  0   Radius =  0.650 angstrom
                   Q00  =  -0.224511

C          x =  2.572947  y = -0.085488  z = -1.937022 angstrom
           Maximum rank =  0   Radius =  0.650 angstrom
                   Q00  =  -0.236656

H          x =  1.586947  y =  0.542512  z = -0.130022 angstrom
           Maximum rank =  0   Radius =  0.325 angstrom
                   Q00  =   0.078571

H          x =  0.718947  y = -0.686488  z = -1.067022 angstrom
           Maximum rank =  0   Radius =  0.325 angstrom
                   Q00  =   0.073757

H          x =  2.127947  y = -1.156488  z = -0.124022 angstrom
           Maximum rank =  0   Radius =  0.325 angstrom
                   Q00  =   0.077930

H          x =  2.728947  y = -1.014488  z = -2.485022 angstrom
           Maximum rank =  0   Radius =  0.325 angstrom
                   Q00  =   0.078213

H          x =  3.538097  y =  0.332822  z = -1.615302 angstrom
           Maximum rank =  0   Radius =  0.325 angstrom
                   Q00  =   0.077701

H          x =  2.050457  y =  0.618672  z = -2.601222 angstrom
           Maximum rank =  0   Radius =  0.325 angstrom
                   Q00  =   0.075360

Total multipoles referred to origin at
           x =   0.000000,  y =    0.000000,  z =    0.000000 angstrom
                   Q00  =  -0.000000

Finished at 15:40:24 on 28 Apr 2020

  DMA results are available in the Python driver through the
	  variable('DMA DISTRIBUTED MULTIPOLES')
  and
	  variable('DMA TOTAL MULTIPOLES')
  commands.

    Psi4 stopped on: Tuesday, 28 April 2020 03:40PM
    Psi4 wall time for execution: 0:00:10.48

*** Psi4 exiting successfully. Buy a developer a beer!
