                               Psi4 1.3.2 release

  ==> Input File <==

--------------------------------------------------------------------------
import numpy as np
set {scf_type pk
basis cc-pvdz
d_convergence 10
gdma_switch   0
gdma_limit    0
gdma_origin   [ 0.0,  0.0,  0.0 ]
}
molecule test {
    units Angstrom
    0 1
    --
    0 1
    C                0.282841068929024     2.037272296556202    -3.864554688811282
    C                0.064841068929024    -0.079727703443798    -0.099554688811282
    C               -0.672158931070976    -0.511727703443798    -1.196554688811282
    C                0.890841068929024     1.035272296556202    -0.224554688811282
    C               -0.603158931070976     0.187272296556202    -2.407554688811282
    C                0.967841068929024     1.723272296556203    -1.447554688811282
    C                0.222841068929024     1.299272296556202    -2.551554688811282
    O               -0.003158931070976    -0.762727703443798     1.077445311188718
    H               -0.611158931070976    -1.515727703443798     0.987445311188718
    H               -1.315158931070976    -1.373727703443798    -1.114554688811282
    H                1.469841068929024     1.364272296556202     0.625445311188718
    H               -1.197158931070976    -0.151727703443798    -3.245554688811282
    H                1.610841068929024     2.588272296556202    -1.531554688811283
    H                0.519841068929024     3.084272296556202    -3.676554688811282
    H               -0.708158931070975     2.002272296556202    -4.321554688811283
    H                1.018768068929024     1.623223296556202    -4.569518688811283
    C               -0.447158931070976    -1.662727703443798     4.090445311188717
    C               -0.525158931070976    -2.585727703443798     5.309445311188719
    H               -1.306158931070976    -0.993727703443798     4.062445311188717
    H                0.454841068929024    -1.058727703443797     4.144445311188718
    H               -0.423158931070976    -2.258727703443798     3.184445311188717
    H               -0.635158931070976    -1.961727703443797     6.194445311188717
    H               -1.394253731070976    -3.254537703443798     5.223608311188717
    H                0.404450068929024    -3.163651703443798     5.418214311188718

}
e, wfn = energy('scf', return_wfn=True)
gdma(wfn)
dmavals = variable('DMA DISTRIBUTED MULTIPOLES')
charges = np.array(dmavals)
print(charges)
np.save('SSI-056TYR-064VAL-1-dimer.npy', np.array(charges))--------------------------------------------------------------------------

*** tstart() called on ds3
*** at Mon Apr 27 19:15:38 2020

   => Loading Basis Set <=

    Name: CC-PVDZ
    Role: ORBITAL
    Keyword: BASIS
    atoms 1-7, 17-18  entry C          line   138 file /theoryfs2/ds/metcalf/miniconda2/envs/tf2gpu/share/psi4/basis/cc-pvdz.gbs
    atoms 8           entry O          line   198 file /theoryfs2/ds/metcalf/miniconda2/envs/tf2gpu/share/psi4/basis/cc-pvdz.gbs
    atoms 9-16, 19-24 entry H          line    22 file /theoryfs2/ds/metcalf/miniconda2/envs/tf2gpu/share/psi4/basis/cc-pvdz.gbs

         ---------------------------------------------------------
                                   SCF
               by Justin Turney, Rob Parrish, Andy Simmonett
                          and Daniel G. A. Smith
                              RHF Reference
                        1 Threads,    500 MiB Core
         ---------------------------------------------------------

  ==> Geometry <==

    Molecular point group: c1
    Full point group: C1

    Geometry (in Angstrom), charge = 0, multiplicity = 1:

       Center              X                  Y                   Z               Mass
    ------------   -----------------  -----------------  -----------------  -----------------
         C            0.282841068929     2.037272296556    -3.864554688811    12.000000000000
         C            0.064841068929    -0.079727703444    -0.099554688811    12.000000000000
         C           -0.672158931071    -0.511727703444    -1.196554688811    12.000000000000
         C            0.890841068929     1.035272296556    -0.224554688811    12.000000000000
         C           -0.603158931071     0.187272296556    -2.407554688811    12.000000000000
         C            0.967841068929     1.723272296556    -1.447554688811    12.000000000000
         C            0.222841068929     1.299272296556    -2.551554688811    12.000000000000
         O           -0.003158931071    -0.762727703444     1.077445311189    15.994914619570
         H           -0.611158931071    -1.515727703444     0.987445311189     1.007825032230
         H           -1.315158931071    -1.373727703444    -1.114554688811     1.007825032230
         H            1.469841068929     1.364272296556     0.625445311189     1.007825032230
         H           -1.197158931071    -0.151727703444    -3.245554688811     1.007825032230
         H            1.610841068929     2.588272296556    -1.531554688811     1.007825032230
         H            0.519841068929     3.084272296556    -3.676554688811     1.007825032230
         H           -0.708158931071     2.002272296556    -4.321554688811     1.007825032230
         H            1.018768068929     1.623223296556    -4.569518688811     1.007825032230
         C           -0.447158931071    -1.662727703444     4.090445311189    12.000000000000
         C           -0.525158931071    -2.585727703444     5.309445311189    12.000000000000
         H           -1.306158931071    -0.993727703444     4.062445311189     1.007825032230
         H            0.454841068929    -1.058727703444     4.144445311189     1.007825032230
         H           -0.423158931071    -2.258727703444     3.184445311189     1.007825032230
         H           -0.635158931071    -1.961727703444     6.194445311189     1.007825032230
         H           -1.394253731071    -3.254537703444     5.223608311189     1.007825032230
         H            0.404450068929    -3.163651703444     5.418214311189     1.007825032230

  Running in c1 symmetry.

  Rotational constants: A =      0.16608  B =      0.01203  C =      0.01133 [cm^-1]
  Rotational constants: A =   4978.82117  B =    360.68684  C =    339.67114 [MHz]
  Nuclear repulsion =  475.178495135928472

  Charge       = 0
  Multiplicity = 1
  Electrons    = 76
  Nalpha       = 38
  Nbeta        = 38

  ==> Algorithm <==

  SCF Algorithm Type is PK.
  DIIS enabled.
  MOM disabled.
  Fractional occupation disabled.
  Guess Type is SAD.
  Energy threshold   = 1.00e-06
  Density threshold  = 1.00e-10
  Integral threshold = 0.00e+00

  ==> Primary Basis <==

  Basis Set: CC-PVDZ
    Blend: CC-PVDZ
    Number of shells: 102
    Number of basis function: 210
    Number of Cartesian functions: 220
    Spherical Harmonics?: true
    Max angular momentum: 2

  ==> Pre-Iterations <==

   -------------------------------------------------------
    Irrep   Nso     Nmo     Nalpha   Nbeta   Ndocc  Nsocc
   -------------------------------------------------------
     A        210     210       0       0       0       0
   -------------------------------------------------------
    Total     210     210      38      38      38       0
   -------------------------------------------------------

  ==> Integral Setup <==

  Using integral reordering PK algorithm.
  Sizing the integral batches needed.
  Building batch lookup table.
   Calculation information:
      Number of atoms:                  24
      Number of AO shells:             102
      Number of primitives:            290
      Number of atomic orbitals:       220
      Number of basis functions:       210

      Integral cutoff                 1.00e-12
      Number of threads:                 1

	Batch   1 pq = [       0,    9405] index = [             0,44231715] size =     44231715
	Batch   2 pq = [    9405,   13301] index = [      44231715,88464951] size =     44233236
	Batch   3 pq = [   13301,   16290] index = [      88464951,132690195] size =     44225244
	Batch   4 pq = [   16290,   18810] index = [     132690195,176917455] size =     44227260
	Batch   5 pq = [   18810,   21030] index = [     176917455,221140965] size =     44223510
	Batch   6 pq = [   21030,   22155] index = [     221140965,245433090] size =     24292125
  Task number: 23
  Buffer size: 11059200
  Buffer per thread: 2
  We computed 8933996 shell quartets total.
  Whereas there are 13799631 unique shell quartets.

  ==> DiskJK: Disk-Based J/K Matrices <==

    J tasked:                  Yes
    K tasked:                  Yes
    wK tasked:                  No
    Memory [MiB]:              375
    Schwarz Cutoff:          1E-12

    OpenMP threads:              1

  Minimum eigenvalue in the overlap matrix is 3.2974612906E-04.
  Using Symmetric Orthogonalization.

  SCF Guess: Superposition of Atomic Densities via on-the-fly atomic UHF.

  ==> Iterations <==

                        Total Energy        Delta E     RMS |[F,P]|

   @RHF iter SAD:  -422.64453163928152   -4.22645e+02   0.00000e+00
   @RHF iter   1:  -423.60142023160614   -9.56889e-01   2.97233e-03 DIIS
   @RHF iter   2:  -423.81800796069973   -2.16588e-01   1.25427e-03 DIIS
   @RHF iter   3:  -423.85279599903527   -3.47880e-02   2.85034e-04 DIIS
   @RHF iter   4:  -423.85568450707206   -2.88851e-03   1.18772e-04 DIIS
   @RHF iter   5:  -423.85604807124128   -3.63564e-04   2.09274e-05 DIIS
   @RHF iter   6:  -423.85606606406930   -1.79928e-05   6.43259e-06 DIIS
   @RHF iter   7:  -423.85606774638626   -1.68232e-06   2.11963e-06 DIIS
   @RHF iter   8:  -423.85606797811431   -2.31728e-07   7.97092e-07 DIIS
   @RHF iter   9:  -423.85606801608435   -3.79700e-08   3.16766e-07 DIIS
   @RHF iter  10:  -423.85606802313555   -7.05120e-09   1.32963e-07 DIIS
   @RHF iter  11:  -423.85606802535801   -2.22246e-09   5.96263e-08 DIIS
   @RHF iter  12:  -423.85606802579366   -4.35648e-10   2.85147e-08 DIIS
   @RHF iter  13:  -423.85606802586767   -7.40101e-11   8.28050e-09 DIIS
   @RHF iter  14:  -423.85606802587131   -3.63798e-12   2.31837e-09 DIIS
   @RHF iter  15:  -423.85606802587506   -3.75167e-12   7.30168e-10 DIIS
   @RHF iter  16:  -423.85606802587279    2.27374e-12   2.55063e-10 DIIS
   @RHF iter  17:  -423.85606802587324   -4.54747e-13   1.09777e-10 DIIS
   @RHF iter  18:  -423.85606802587199    1.25056e-12   5.58146e-11 DIIS
  Energy and wave function converged.

  ==> Post-Iterations <==

    Orbital Energies [Eh]
    ---------------------

    Doubly Occupied:

       1A    -20.585408     2A    -11.298997     3A    -11.240156
       4A    -11.239261     5A    -11.233831     6A    -11.233619
       7A    -11.231712     8A    -11.228518     9A    -11.215633
      10A    -11.211100    11A     -1.399918    12A     -1.148437
      13A     -1.037335    14A     -1.014593    15A     -1.014231
      16A     -0.926001    17A     -0.844876    18A     -0.833139
      19A     -0.799571    20A     -0.729490    21A     -0.668439
      22A     -0.641301    23A     -0.606645    24A     -0.595734
      25A     -0.593505    26A     -0.586330    27A     -0.584368
      28A     -0.571512    29A     -0.568639    30A     -0.526663
      31A     -0.498809    32A     -0.493622    33A     -0.485138
      34A     -0.483547    35A     -0.480335    36A     -0.465945
      37A     -0.336162    38A     -0.302625

    Virtual:

      39A      0.128545    40A      0.156592    41A      0.170929
      42A      0.187276    43A      0.196107    44A      0.215538
      45A      0.220627    46A      0.246238    47A      0.254867
      48A      0.257526    49A      0.264164    50A      0.277561
      51A      0.282499    52A      0.288678    53A      0.296144
      54A      0.317644    55A      0.370074    56A      0.372500
      57A      0.397103    58A      0.434775    59A      0.460448
      60A      0.488458    61A      0.495867    62A      0.502045
      63A      0.600178    64A      0.602241    65A      0.608782
      66A      0.614968    67A      0.632419    68A      0.651256
      69A      0.670083    70A      0.681628    71A      0.689384
      72A      0.694079    73A      0.694797    74A      0.708134
      75A      0.731907    76A      0.740307    77A      0.741328
      78A      0.771427    79A      0.782641    80A      0.789547
      81A      0.796100    82A      0.836182    83A      0.838641
      84A      0.850911    85A      0.876591    86A      0.878072
      87A      0.880580    88A      0.890382    89A      0.894588
      90A      0.896822    91A      0.903007    92A      0.910613
      93A      0.919369    94A      0.927001    95A      0.932285
      96A      0.937883    97A      0.938394    98A      0.947535
      99A      0.986442   100A      1.009606   101A      1.032767
     102A      1.048056   103A      1.118515   104A      1.126899
     105A      1.132926   106A      1.141670   107A      1.147587
     108A      1.166705   109A      1.199662   110A      1.218535
     111A      1.244227   112A      1.246018   113A      1.283144
     114A      1.296733   115A      1.297283   116A      1.306915
     117A      1.321779   118A      1.362166   119A      1.380512
     120A      1.400262   121A      1.476052   122A      1.476681
     123A      1.496184   124A      1.511904   125A      1.532499
     126A      1.554086   127A      1.584508   128A      1.610368
     129A      1.623673   130A      1.682169   131A      1.682473
     132A      1.698894   133A      1.702077   134A      1.727016
     135A      1.746157   136A      1.780909   137A      1.799528
     138A      1.803647   139A      1.862502   140A      1.869503
     141A      1.877413   142A      1.883703   143A      1.892927
     144A      1.907631   145A      1.909312   146A      1.914197
     147A      1.919081   148A      1.942300   149A      1.946029
     150A      1.952251   151A      1.953124   152A      1.958606
     153A      1.970377   154A      1.982649   155A      1.984962
     156A      2.026483   157A      2.038938   158A      2.048692
     159A      2.053045   160A      2.062993   161A      2.066316
     162A      2.106519   163A      2.126671   164A      2.138285
     165A      2.147033   166A      2.159036   167A      2.202807
     168A      2.229772   169A      2.260338   170A      2.273413
     171A      2.293439   172A      2.304348   173A      2.314165
     174A      2.336255   175A      2.377677   176A      2.420538
     177A      2.450835   178A      2.462749   179A      2.469978
     180A      2.473560   181A      2.485185   182A      2.532877
     183A      2.542298   184A      2.563797   185A      2.587157
     186A      2.599648   187A      2.638823   188A      2.746253
     189A      2.767120   190A      2.767591   191A      2.785419
     192A      2.801434   193A      2.806037   194A      2.840751
     195A      2.854136   196A      2.857247   197A      2.896367
     198A      2.946933   199A      2.953818   200A      2.968955
     201A      2.999475   202A      3.081799   203A      3.106318
     204A      3.256075   205A      3.273337   206A      3.335751
     207A      3.596183   208A      3.674790   209A      3.954477
     210A      4.184953

    Final Occupation by Irrep:
              A
    DOCC [    38 ]

  @RHF Final Energy:  -423.85606802587199

   => Energetics <=

    Nuclear Repulsion Energy =            475.1784951359284719
    One-Electron Energy =               -1516.1588289015962800
    Two-Electron Energy =                 617.1242657397958737
    Total Energy =                       -423.8560680258719913

Computation Completed

Properties will be evaluated at   0.000000,   0.000000,   0.000000 [a0]

Properties computed using the SCF density matrix

  Nuclear Dipole Moment: [e a0]
     X:    -1.9797      Y:    -4.7566      Z:    10.6747

  Electronic Dipole Moment: [e a0]
     X:     1.6704      Y:     4.5824      Z:   -11.1089

  Dipole Moment: [e a0]
     X:    -0.3093      Y:    -0.1742      Z:    -0.4342     Total:     0.5608

  Dipole Moment: [D]
     X:    -0.7862      Y:    -0.4427      Z:    -1.1036     Total:     1.4255

*** tstop() called on ds3 at Mon Apr 27 19:18:04 2020
Module time:
	user time   =      73.25 seconds =       1.22 minutes
	system time =      35.87 seconds =       0.60 minutes
	total time  =        146 seconds =       2.43 minutes
Total time:
	user time   =      73.25 seconds =       1.22 minutes
	system time =      35.87 seconds =       0.60 minutes
	total time  =        146 seconds =       2.43 minutes
                                     G D M A

                                 by Anthony Stone

                           version 2.2.06, 22 June 2011

               Distributed Multipoles from Gaussian wavefunctions

Starting at 19:18:4 on 27 Apr 2020

Using SCF density matrix from file ./SSI/SSI-056TYR-064VAL-1-dimer.test.4593.fchk

                         Distributed Multipole Analysis

Standard DMA

Positions and radii in angstrom
Multipole moments in atomic units, ea_0^k for rank k

C          x =  0.282841  y =  2.037272  z = -3.864555 angstrom
           Maximum rank =  0   Radius =  0.650 angstrom
                   Q00  =  -0.196520

C          x =  0.064841  y = -0.079728  z = -0.099555 angstrom
           Maximum rank =  0   Radius =  0.650 angstrom
                   Q00  =   0.316199

C          x = -0.672159  y = -0.511728  z = -1.196555 angstrom
           Maximum rank =  0   Radius =  0.650 angstrom
                   Q00  =  -0.187475

C          x =  0.890841  y =  1.035272  z = -0.224555 angstrom
           Maximum rank =  0   Radius =  0.650 angstrom
                   Q00  =  -0.101895

C          x = -0.603159  y =  0.187272  z = -2.407555 angstrom
           Maximum rank =  0   Radius =  0.650 angstrom
                   Q00  =   0.056622

C          x =  0.967841  y =  1.723272  z = -1.447555 angstrom
           Maximum rank =  0   Radius =  0.650 angstrom
                   Q00  =  -0.053984

C          x =  0.222841  y =  1.299272  z = -2.551555 angstrom
           Maximum rank =  0   Radius =  0.650 angstrom
                   Q00  =  -0.141059

O          x = -0.003159  y = -0.762728  z =  1.077445 angstrom
           Maximum rank =  0   Radius =  0.650 angstrom
                   Q00  =  -0.668492

H          x = -0.611159  y = -1.515728  z =  0.987445 angstrom
           Maximum rank =  0   Radius =  0.325 angstrom
                   Q00  =   0.404844

H          x = -1.315159  y = -1.373728  z = -1.114555 angstrom
           Maximum rank =  0   Radius =  0.325 angstrom
                   Q00  =   0.070706

H          x =  1.469841  y =  1.364272  z =  0.625445 angstrom
           Maximum rank =  0   Radius =  0.325 angstrom
                   Q00  =   0.079968

H          x = -1.197159  y = -0.151728  z = -3.245555 angstrom
           Maximum rank =  0   Radius =  0.325 angstrom
                   Q00  =   0.068235

H          x =  1.610841  y =  2.588272  z = -1.531555 angstrom
           Maximum rank =  0   Radius =  0.325 angstrom
                   Q00  =   0.065590

H          x =  0.519841  y =  3.084272  z = -3.676555 angstrom
           Maximum rank =  0   Radius =  0.325 angstrom
                   Q00  =   0.096916

H          x = -0.708159  y =  2.002272  z = -4.321555 angstrom
           Maximum rank =  0   Radius =  0.325 angstrom
                   Q00  =   0.094942

H          x =  1.018768  y =  1.623223  z = -4.569519 angstrom
           Maximum rank =  0   Radius =  0.325 angstrom
                   Q00  =   0.100739

C          x = -0.447159  y = -1.662728  z =  4.090445 angstrom
           Maximum rank =  0   Radius =  0.650 angstrom
                   Q00  =  -0.214788

C          x = -0.525159  y = -2.585728  z =  5.309445 angstrom
           Maximum rank =  0   Radius =  0.650 angstrom
                   Q00  =  -0.248463

H          x = -1.306159  y = -0.993728  z =  4.062445 angstrom
           Maximum rank =  0   Radius =  0.325 angstrom
                   Q00  =   0.076891

H          x =  0.454841  y = -1.058728  z =  4.144445 angstrom
           Maximum rank =  0   Radius =  0.325 angstrom
                   Q00  =   0.086382

H          x = -0.423159  y = -2.258728  z =  3.184445 angstrom
           Maximum rank =  0   Radius =  0.325 angstrom
                   Q00  =   0.060430

H          x = -0.635159  y = -1.961728  z =  6.194445 angstrom
           Maximum rank =  0   Radius =  0.325 angstrom
                   Q00  =   0.078654

H          x = -1.394254  y = -3.254538  z =  5.223608 angstrom
           Maximum rank =  0   Radius =  0.325 angstrom
                   Q00  =   0.076154

H          x =  0.404450  y = -3.163652  z =  5.418214 angstrom
           Maximum rank =  0   Radius =  0.325 angstrom
                   Q00  =   0.079404

Total multipoles referred to origin at
           x =   0.000000,  y =    0.000000,  z =    0.000000 angstrom
                   Q00  =  -0.000000

Finished at 19:18:4 on 27 Apr 2020

  DMA results are available in the Python driver through the
	  variable('DMA DISTRIBUTED MULTIPOLES')
  and
	  variable('DMA TOTAL MULTIPOLES')
  commands.

    Psi4 stopped on: Monday, 27 April 2020 07:18PM
    Psi4 wall time for execution: 0:02:26.22

*** Psi4 exiting successfully. Buy a developer a beer!
