                               Psi4 1.3.2 release

  ==> Input File <==

--------------------------------------------------------------------------
import numpy as np
set {scf_type pk
basis cc-pvdz
d_convergence 10
gdma_switch   0
gdma_limit    0
gdma_origin   [ 0.0,  0.0,  0.0 ]
}
molecule test {
    units Angstrom
    0 1
    --
    0 1
    C               -1.371552333164083     0.448650246123014     0.822328557007480
    C               -1.788552333164083     0.006650246123014     2.217328557007480
    H               -2.037552333164083     0.043650246123014     0.061328557007480
    H               -1.421552333164083     1.536650246123014     0.768328557007480
    H               -0.346552333164083     0.144650246123014     0.632328557007480
    H               -2.809552333164083     0.330650246123014     2.367328557007480
    H               -1.175552333164083     0.534650246123014     2.949328557007480
    H               -1.693002333164083    -1.075309753876986     2.391188557007480
    C                1.481447666835917     0.515650246123014    -1.627671442992520
    C                1.681447666835918    -0.983349753876986    -1.416671442992520
    H                1.518447666835917     0.753650246123014    -2.692671442992520
    H                0.513447666835917     0.834650246123014    -1.248671442992520
    H                2.254447666835917     1.081650246123014    -1.107671442992520
    H                1.795447666835917    -1.174349753876986    -0.348671442992520
    H                2.573957666835917    -1.322329753876986    -1.963041442992520
    H                0.794787666835917    -1.540579753876986    -1.753311442992520

}
e, wfn = energy('scf', return_wfn=True)
gdma(wfn)
dmavals = variable('DMA DISTRIBUTED MULTIPOLES')
charges = np.array(dmavals)
print(charges)
np.save('SSI-168ILE-178VAL-1-dimer.npy', np.array(charges))--------------------------------------------------------------------------

*** tstart() called on ds3
*** at Tue Apr 28 10:05:23 2020

   => Loading Basis Set <=

    Name: CC-PVDZ
    Role: ORBITAL
    Keyword: BASIS
    atoms 1-2, 9-10  entry C          line   138 file /theoryfs2/ds/metcalf/miniconda2/envs/tf2gpu/share/psi4/basis/cc-pvdz.gbs
    atoms 3-8, 11-16 entry H          line    22 file /theoryfs2/ds/metcalf/miniconda2/envs/tf2gpu/share/psi4/basis/cc-pvdz.gbs

         ---------------------------------------------------------
                                   SCF
               by Justin Turney, Rob Parrish, Andy Simmonett
                          and Daniel G. A. Smith
                              RHF Reference
                        1 Threads,    500 MiB Core
         ---------------------------------------------------------

  ==> Geometry <==

    Molecular point group: c1
    Full point group: C1

    Geometry (in Angstrom), charge = 0, multiplicity = 1:

       Center              X                  Y                   Z               Mass
    ------------   -----------------  -----------------  -----------------  -----------------
         C           -1.371552333164     0.448650246123     0.822328557007    12.000000000000
         C           -1.788552333164     0.006650246123     2.217328557007    12.000000000000
         H           -2.037552333164     0.043650246123     0.061328557007     1.007825032230
         H           -1.421552333164     1.536650246123     0.768328557007     1.007825032230
         H           -0.346552333164     0.144650246123     0.632328557007     1.007825032230
         H           -2.809552333164     0.330650246123     2.367328557007     1.007825032230
         H           -1.175552333164     0.534650246123     2.949328557007     1.007825032230
         H           -1.693002333164    -1.075309753877     2.391188557007     1.007825032230
         C            1.481447666836     0.515650246123    -1.627671442993    12.000000000000
         C            1.681447666836    -0.983349753877    -1.416671442993    12.000000000000
         H            1.518447666836     0.753650246123    -2.692671442993     1.007825032230
         H            0.513447666836     0.834650246123    -1.248671442993     1.007825032230
         H            2.254447666836     1.081650246123    -1.107671442993     1.007825032230
         H            1.795447666836    -1.174349753877    -0.348671442993     1.007825032230
         H            2.573957666836    -1.322329753877    -1.963041442993     1.007825032230
         H            0.794787666836    -1.540579753877    -1.753311442993     1.007825032230

  Running in c1 symmetry.

  Rotational constants: A =      0.44692  B =      0.05277  C =      0.04956 [cm^-1]
  Rotational constants: A =  13398.22172  B =   1582.12304  C =   1485.85545 [MHz]
  Nuclear repulsion =  123.521999520898532

  Charge       = 0
  Multiplicity = 1
  Electrons    = 36
  Nalpha       = 18
  Nbeta        = 18

  ==> Algorithm <==

  SCF Algorithm Type is PK.
  DIIS enabled.
  MOM disabled.
  Fractional occupation disabled.
  Guess Type is SAD.
  Energy threshold   = 1.00e-06
  Density threshold  = 1.00e-10
  Integral threshold = 0.00e+00

  ==> Primary Basis <==

  Basis Set: CC-PVDZ
    Blend: CC-PVDZ
    Number of shells: 60
    Number of basis function: 116
    Number of Cartesian functions: 120
    Spherical Harmonics?: true
    Max angular momentum: 2

  ==> Pre-Iterations <==

   -------------------------------------------------------
    Irrep   Nso     Nmo     Nalpha   Nbeta   Ndocc  Nsocc
   -------------------------------------------------------
     A        116     116       0       0       0       0
   -------------------------------------------------------
    Total     116     116      18      18      18       0
   -------------------------------------------------------

  ==> Integral Setup <==

  Using integral reordering PK algorithm.
  Sizing the integral batches needed.
  Building batch lookup table.
   Calculation information:
      Number of atoms:                  16
      Number of AO shells:              60
      Number of primitives:            148
      Number of atomic orbitals:       120
      Number of basis functions:       116

      Integral cutoff                 1.00e-12
      Number of threads:                 1

	Batch   1 pq = [       0,    6786] index = [             0,23028291] size =     23028291
  Task number: 3
  Buffer size: 11059200
  Buffer per thread: 2
  We computed 1477758 shell quartets total.
  Whereas there are 1675365 unique shell quartets.

  ==> DiskJK: Disk-Based J/K Matrices <==

    J tasked:                  Yes
    K tasked:                  Yes
    wK tasked:                  No
    Memory [MiB]:              375
    Schwarz Cutoff:          1E-12

    OpenMP threads:              1

  Minimum eigenvalue in the overlap matrix is 6.1939929544E-03.
  Using Symmetric Orthogonalization.

  SCF Guess: Superposition of Atomic Densities via on-the-fly atomic UHF.

  ==> Iterations <==

                        Total Energy        Delta E     RMS |[F,P]|

   @RHF iter SAD:  -157.38719856278027   -1.57387e+02   0.00000e+00
   @RHF iter   1:  -158.30567616091372   -9.18478e-01   4.22249e-03 DIIS
   @RHF iter   2:  -158.43963891712224   -1.33963e-01   1.79369e-03 DIIS
   @RHF iter   3:  -158.46299716196469   -2.33582e-02   3.50936e-04 DIIS
   @RHF iter   4:  -158.46484470154172   -1.84754e-03   3.92302e-05 DIIS
   @RHF iter   5:  -158.46486912256825   -2.44210e-05   6.66623e-06 DIIS
   @RHF iter   6:  -158.46486978025305   -6.57685e-07   1.17908e-06 DIIS
   @RHF iter   7:  -158.46486979403502   -1.37820e-08   3.28931e-07 DIIS
   @RHF iter   8:  -158.46486979503069   -9.95669e-10   4.33230e-08 DIIS
   @RHF iter   9:  -158.46486979506247   -3.17755e-11   8.95135e-09 DIIS
   @RHF iter  10:  -158.46486979506406   -1.59162e-12   2.59255e-09 DIIS
   @RHF iter  11:  -158.46486979506415   -8.52651e-14   7.54733e-10 DIIS
   @RHF iter  12:  -158.46486979506423   -8.52651e-14   1.59981e-10 DIIS
   @RHF iter  13:  -158.46486979506392    3.12639e-13   2.83370e-11 DIIS
  Energy and wave function converged.

  ==> Post-Iterations <==

    Orbital Energies [Eh]
    ---------------------

    Doubly Occupied:

       1A    -11.219320     2A    -11.217085     3A    -11.216178
       4A    -11.214674     5A     -1.022237     6A     -1.017197
       7A     -0.839747     8A     -0.835264     9A     -0.608686
      10A     -0.597583    11A     -0.595689    12A     -0.593469
      13A     -0.505986    14A     -0.500231    15A     -0.490928
      16A     -0.484651    17A     -0.483474    18A     -0.478709

    Virtual:

      19A      0.173071    20A      0.199851    21A      0.220721
      22A      0.236427    23A      0.249550    24A      0.257074
      25A      0.265570    26A      0.274211    27A      0.281317
      28A      0.285389    29A      0.317006    30A      0.337776
      31A      0.390441    32A      0.427677    33A      0.578790
      34A      0.597462    35A      0.604084    36A      0.605751
      37A      0.611374    38A      0.653745    39A      0.663181
      40A      0.680300    41A      0.730678    42A      0.760700
      43A      0.842452    44A      0.877251    45A      0.883888
      46A      0.886799    47A      0.893706    48A      0.896330
      49A      0.903163    50A      0.907380    51A      0.916130
      52A      0.925936    53A      0.942521    54A      0.950235
      55A      0.999281    56A      1.044378    57A      1.120442
      58A      1.122420    59A      1.133321    60A      1.137798
      61A      1.226259    62A      1.298421    63A      1.457162
      64A      1.473808    65A      1.480655    66A      1.496269
      67A      1.563937    68A      1.591896    69A      1.683354
      70A      1.687604    71A      1.695827    72A      1.702706
      73A      1.840234    74A      1.864575    75A      1.876015
      76A      1.882921    77A      1.890778    78A      1.907187
      79A      1.931906    80A      1.936861    81A      1.944613
      82A      1.949401    83A      1.955700    84A      1.959410
      85A      1.962855    86A      1.967610    87A      2.010886
      88A      2.048084    89A      2.094626    90A      2.111672
      91A      2.125167    92A      2.135432    93A      2.297751
      94A      2.305234    95A      2.319445    96A      2.349742
      97A      2.442825    98A      2.452634    99A      2.459698
     100A      2.475887   101A      2.556207   102A      2.568022
     103A      2.581709   104A      2.594848   105A      2.763328
     106A      2.770149   107A      2.790263   108A      2.800766
     109A      2.848695   110A      2.853808   111A      2.858555
     112A      2.880460   113A      2.940832   114A      2.954467
     115A      2.960727   116A      3.002450

    Final Occupation by Irrep:
              A
    DOCC [    18 ]

  @RHF Final Energy:  -158.46486979506392

   => Energetics <=

    Nuclear Repulsion Energy =            123.5219995208985324
    One-Electron Energy =                -456.1315233227760473
    Two-Electron Energy =                 174.1446540068135960
    Total Energy =                       -158.4648697950639189

Computation Completed

Properties will be evaluated at   0.000000,   0.000000,   0.000000 [a0]

Properties computed using the SCF density matrix

  Nuclear Dipole Moment: [e a0]
     X:    -0.0312      Y:     0.1384      Z:     0.0523

  Electronic Dipole Moment: [e a0]
     X:     0.0157      Y:    -0.1143      Z:    -0.0409

  Dipole Moment: [e a0]
     X:    -0.0155      Y:     0.0241      Z:     0.0114     Total:     0.0309

  Dipole Moment: [D]
     X:    -0.0394      Y:     0.0613      Z:     0.0290     Total:     0.0784

*** tstop() called on ds3 at Tue Apr 28 10:05:35 2020
Module time:
	user time   =       8.35 seconds =       0.14 minutes
	system time =       3.45 seconds =       0.06 minutes
	total time  =         12 seconds =       0.20 minutes
Total time:
	user time   =       8.35 seconds =       0.14 minutes
	system time =       3.45 seconds =       0.06 minutes
	total time  =         12 seconds =       0.20 minutes
                                     G D M A

                                 by Anthony Stone

                           version 2.2.06, 22 June 2011

               Distributed Multipoles from Gaussian wavefunctions

Starting at 10:5:35 on 28 Apr 2020

Using SCF density matrix from file ./SSI/SSI-168ILE-178VAL-1-dimer.test.28169.fchk

                         Distributed Multipole Analysis

Standard DMA

Positions and radii in angstrom
Multipole moments in atomic units, ea_0^k for rank k

C          x = -1.371552  y =  0.448650  z =  0.822329 angstrom
           Maximum rank =  0   Radius =  0.650 angstrom
                   Q00  =  -0.238049

C          x = -1.788552  y =  0.006650  z =  2.217329 angstrom
           Maximum rank =  0   Radius =  0.650 angstrom
                   Q00  =  -0.234110

H          x = -2.037552  y =  0.043650  z =  0.061329 angstrom
           Maximum rank =  0   Radius =  0.325 angstrom
                   Q00  =   0.079323

H          x = -1.421552  y =  1.536650  z =  0.768329 angstrom
           Maximum rank =  0   Radius =  0.325 angstrom
                   Q00  =   0.077023

H          x = -0.346552  y =  0.144650  z =  0.632329 angstrom
           Maximum rank =  0   Radius =  0.325 angstrom
                   Q00  =   0.079851

H          x = -2.809552  y =  0.330650  z =  2.367329 angstrom
           Maximum rank =  0   Radius =  0.325 angstrom
                   Q00  =   0.078646

H          x = -1.175552  y =  0.534650  z =  2.949329 angstrom
           Maximum rank =  0   Radius =  0.325 angstrom
                   Q00  =   0.076943

H          x = -1.693002  y = -1.075310  z =  2.391189 angstrom
           Maximum rank =  0   Radius =  0.325 angstrom
                   Q00  =   0.082045

C          x =  1.481448  y =  0.515650  z = -1.627671 angstrom
           Maximum rank =  0   Radius =  0.650 angstrom
                   Q00  =  -0.231564

C          x =  1.681448  y = -0.983350  z = -1.416671 angstrom
           Maximum rank =  0   Radius =  0.650 angstrom
                   Q00  =  -0.244232

H          x =  1.518448  y =  0.753650  z = -2.692671 angstrom
           Maximum rank =  0   Radius =  0.325 angstrom
                   Q00  =   0.077508

H          x =  0.513448  y =  0.834650  z = -1.248671 angstrom
           Maximum rank =  0   Radius =  0.325 angstrom
                   Q00  =   0.083260

H          x =  2.254448  y =  1.081650  z = -1.107671 angstrom
           Maximum rank =  0   Radius =  0.325 angstrom
                   Q00  =   0.077415

H          x =  1.795448  y = -1.174350  z = -0.348671 angstrom
           Maximum rank =  0   Radius =  0.325 angstrom
                   Q00  =   0.076174

H          x =  2.573958  y = -1.322330  z = -1.963041 angstrom
           Maximum rank =  0   Radius =  0.325 angstrom
                   Q00  =   0.081158

H          x =  0.794788  y = -1.540580  z = -1.753311 angstrom
           Maximum rank =  0   Radius =  0.325 angstrom
                   Q00  =   0.078608

Total multipoles referred to origin at
           x =   0.000000,  y =    0.000000,  z =    0.000000 angstrom
                   Q00  =  -0.000000

Finished at 10:5:35 on 28 Apr 2020

  DMA results are available in the Python driver through the
	  variable('DMA DISTRIBUTED MULTIPOLES')
  and
	  variable('DMA TOTAL MULTIPOLES')
  commands.

    Psi4 stopped on: Tuesday, 28 April 2020 10:05AM
    Psi4 wall time for execution: 0:00:11.42

*** Psi4 exiting successfully. Buy a developer a beer!
