                               Psi4 1.3.2 release

  ==> Input File <==

--------------------------------------------------------------------------
import numpy as np
set {scf_type pk
basis cc-pvdz
d_convergence 10
gdma_switch   0
gdma_limit    0
gdma_origin   [ 0.0,  0.0,  0.0 ]
}
molecule test {
    units Angstrom
    0 1
    --
    0 1
    C                0.965109750765047     1.201355253307475    -0.861544882362043
    C                0.684109750765047     1.762355253307474    -2.258544882362043
    H                1.274109750765047     0.157355253307474    -0.928544882362043
    H                1.758109750765047     1.779355253307474    -0.386544882362043
    H                0.073109750765047     1.279355253307475    -0.239544882362043
    H                0.267109750765047     2.765355253307475    -2.163544882362043
    H               -0.005120249234953     1.126634253307474    -2.833720882362043
    H                1.619899750765047     1.803877253307475    -2.835241882362042
    C               -0.785890249234953    -0.813644746692526     1.901455117637957
    C               -0.867890249234953    -2.155644746692525     1.222455117637957
    H               -1.197890249234953    -0.874644746692525     2.909455117637957
    H                0.255109750765047    -0.496644746692526     1.962455117637957
    H               -1.340890249234953    -0.068644746692526     1.331455117637957
    H               -0.431890249234953    -2.058644746692525     0.229455117637957
    H               -1.927040249234953    -2.438036746692526     1.130480217637957
    H               -0.290310249234953    -2.908888746692525     1.778351917637957

}
e, wfn = energy('scf', return_wfn=True)
gdma(wfn)
dmavals = variable('DMA DISTRIBUTED MULTIPOLES')
charges = np.array(dmavals)
print(charges)
np.save('SSI-049THR-053LEU-1-dimer.npy', np.array(charges))--------------------------------------------------------------------------

*** tstart() called on ds3
*** at Mon Apr 27 16:44:52 2020

   => Loading Basis Set <=

    Name: CC-PVDZ
    Role: ORBITAL
    Keyword: BASIS
    atoms 1-2, 9-10  entry C          line   138 file /theoryfs2/ds/metcalf/miniconda2/envs/tf2gpu/share/psi4/basis/cc-pvdz.gbs
    atoms 3-8, 11-16 entry H          line    22 file /theoryfs2/ds/metcalf/miniconda2/envs/tf2gpu/share/psi4/basis/cc-pvdz.gbs

         ---------------------------------------------------------
                                   SCF
               by Justin Turney, Rob Parrish, Andy Simmonett
                          and Daniel G. A. Smith
                              RHF Reference
                        1 Threads,    500 MiB Core
         ---------------------------------------------------------

  ==> Geometry <==

    Molecular point group: c1
    Full point group: C1

    Geometry (in Angstrom), charge = 0, multiplicity = 1:

       Center              X                  Y                   Z               Mass
    ------------   -----------------  -----------------  -----------------  -----------------
         C            0.965109750765     1.201355253307    -0.861544882362    12.000000000000
         C            0.684109750765     1.762355253307    -2.258544882362    12.000000000000
         H            1.274109750765     0.157355253307    -0.928544882362     1.007825032230
         H            1.758109750765     1.779355253307    -0.386544882362     1.007825032230
         H            0.073109750765     1.279355253307    -0.239544882362     1.007825032230
         H            0.267109750765     2.765355253307    -2.163544882362     1.007825032230
         H           -0.005120249235     1.126634253307    -2.833720882362     1.007825032230
         H            1.619899750765     1.803877253307    -2.835241882362     1.007825032230
         C           -0.785890249235    -0.813644746693     1.901455117638    12.000000000000
         C           -0.867890249235    -2.155644746693     1.222455117638    12.000000000000
         H           -1.197890249235    -0.874644746693     2.909455117638     1.007825032230
         H            0.255109750765    -0.496644746693     1.962455117638     1.007825032230
         H           -1.340890249235    -0.068644746693     1.331455117638     1.007825032230
         H           -0.431890249235    -2.058644746693     0.229455117638     1.007825032230
         H           -1.927040249235    -2.438036746693     1.130480217638     1.007825032230
         H           -0.290310249235    -2.908888746693     1.778351917638     1.007825032230

  Running in c1 symmetry.

  Rotational constants: A =      0.46383  B =      0.04822  C =      0.04619 [cm^-1]
  Rotational constants: A =  13905.12885  B =   1445.47794  C =   1384.86003 [MHz]
  Nuclear repulsion =  121.996883941847386

  Charge       = 0
  Multiplicity = 1
  Electrons    = 36
  Nalpha       = 18
  Nbeta        = 18

  ==> Algorithm <==

  SCF Algorithm Type is PK.
  DIIS enabled.
  MOM disabled.
  Fractional occupation disabled.
  Guess Type is SAD.
  Energy threshold   = 1.00e-06
  Density threshold  = 1.00e-10
  Integral threshold = 0.00e+00

  ==> Primary Basis <==

  Basis Set: CC-PVDZ
    Blend: CC-PVDZ
    Number of shells: 60
    Number of basis function: 116
    Number of Cartesian functions: 120
    Spherical Harmonics?: true
    Max angular momentum: 2

  ==> Pre-Iterations <==

   -------------------------------------------------------
    Irrep   Nso     Nmo     Nalpha   Nbeta   Ndocc  Nsocc
   -------------------------------------------------------
     A        116     116       0       0       0       0
   -------------------------------------------------------
    Total     116     116      18      18      18       0
   -------------------------------------------------------

  ==> Integral Setup <==

  Using integral reordering PK algorithm.
  Sizing the integral batches needed.
  Building batch lookup table.
   Calculation information:
      Number of atoms:                  16
      Number of AO shells:              60
      Number of primitives:            148
      Number of atomic orbitals:       120
      Number of basis functions:       116

      Integral cutoff                 1.00e-12
      Number of threads:                 1

	Batch   1 pq = [       0,    6786] index = [             0,23028291] size =     23028291
  Task number: 3
  Buffer size: 11059200
  Buffer per thread: 2
  We computed 1423191 shell quartets total.
  Whereas there are 1675365 unique shell quartets.

  ==> DiskJK: Disk-Based J/K Matrices <==

    J tasked:                  Yes
    K tasked:                  Yes
    wK tasked:                  No
    Memory [MiB]:              375
    Schwarz Cutoff:          1E-12

    OpenMP threads:              1

  Minimum eigenvalue in the overlap matrix is 7.3974676705E-03.
  Using Symmetric Orthogonalization.

  SCF Guess: Superposition of Atomic Densities via on-the-fly atomic UHF.

  ==> Iterations <==

                        Total Energy        Delta E     RMS |[F,P]|

   @RHF iter SAD:  -157.37366141412281   -1.57374e+02   0.00000e+00
   @RHF iter   1:  -158.30535872040230   -9.31697e-01   4.24928e-03 DIIS
   @RHF iter   2:  -158.44030378724261   -1.34945e-01   1.82505e-03 DIIS
   @RHF iter   3:  -158.46439468008833   -2.40909e-02   3.51187e-04 DIIS
   @RHF iter   4:  -158.46624142411525   -1.84674e-03   3.87253e-05 DIIS
   @RHF iter   5:  -158.46626498131715   -2.35572e-05   6.46257e-06 DIIS
   @RHF iter   6:  -158.46626560090849   -6.19591e-07   1.08670e-06 DIIS
   @RHF iter   7:  -158.46626561257824   -1.16698e-08   3.25208e-07 DIIS
   @RHF iter   8:  -158.46626561354751   -9.69266e-10   4.49825e-08 DIIS
   @RHF iter   9:  -158.46626561358235   -3.48450e-11   1.02210e-08 DIIS
   @RHF iter  10:  -158.46626561358315   -7.95808e-13   3.04349e-09 DIIS
   @RHF iter  11:  -158.46626561358357   -4.26326e-13   7.94142e-10 DIIS
   @RHF iter  12:  -158.46626561358408   -5.11591e-13   1.49258e-10 DIIS
   @RHF iter  13:  -158.46626561358360    4.83169e-13   2.40984e-11 DIIS
  Energy and wave function converged.

  ==> Post-Iterations <==

    Orbital Energies [Eh]
    ---------------------

    Doubly Occupied:

       1A    -11.219741     2A    -11.217667     3A    -11.217186
       4A    -11.214101     5A     -1.024140     6A     -1.017200
       7A     -0.838336     8A     -0.832569     9A     -0.602750
      10A     -0.602265    11A     -0.600235    12A     -0.591474
      13A     -0.504844    14A     -0.500494    15A     -0.490138
      16A     -0.484607    17A     -0.483731    18A     -0.478126

    Virtual:

      19A      0.169417    20A      0.197841    21A      0.224809
      22A      0.230849    23A      0.242415    24A      0.256960
      25A      0.263823    26A      0.274649    27A      0.281024
      28A      0.286666    29A      0.318214    30A      0.342600
      31A      0.398768    32A      0.408625    33A      0.571942
      34A      0.589771    35A      0.599962    36A      0.602627
      37A      0.607609    38A      0.631114    39A      0.670895
      40A      0.683130    41A      0.692776    42A      0.779313
      43A      0.850782    44A      0.858051    45A      0.886156
      46A      0.888049    47A      0.890227    48A      0.898302
      49A      0.901850    50A      0.903726    51A      0.916944
      52A      0.921410    53A      0.931364    54A      0.964261
      55A      0.978075    56A      0.986793    57A      1.119633
      58A      1.128804    59A      1.133670    60A      1.151641
      61A      1.228943    62A      1.255481    63A      1.467401
      64A      1.474292    65A      1.480936    66A      1.499763
      67A      1.561564    68A      1.576411    69A      1.676760
      70A      1.683683    71A      1.692902    72A      1.701735
      73A      1.846798    74A      1.858891    75A      1.862442
      76A      1.880636    77A      1.908175    78A      1.914514
      79A      1.935570    80A      1.940848    81A      1.943197
      82A      1.947961    83A      1.953344    84A      1.956060
      85A      1.968986    86A      1.975723    87A      1.976457
      88A      2.024802    89A      2.093803    90A      2.111036
      91A      2.115445    92A      2.129592    93A      2.291546
      94A      2.304041    95A      2.314292    96A      2.327100
      97A      2.441590    98A      2.455100    99A      2.467663
     100A      2.472989   101A      2.557318   102A      2.568361
     103A      2.571659   104A      2.581934   105A      2.757805
     106A      2.763318   107A      2.788720   108A      2.797300
     109A      2.844684   110A      2.851983   111A      2.857171
     112A      2.864776   113A      2.938265   114A      2.955910
     115A      2.960301   116A      2.980626

    Final Occupation by Irrep:
              A
    DOCC [    18 ]

  @RHF Final Energy:  -158.46626561358360

   => Energetics <=

    Nuclear Repulsion Energy =            121.9968839418473863
    One-Electron Energy =                -453.0870905462003861
    Two-Electron Energy =                 172.6239409907693982
    Total Energy =                       -158.4662656135836016

Computation Completed

Properties will be evaluated at   0.000000,   0.000000,   0.000000 [a0]

Properties computed using the SCF density matrix

  Nuclear Dipole Moment: [e a0]
     X:     0.0509      Y:     0.0623      Z:    -0.0426

  Electronic Dipole Moment: [e a0]
     X:    -0.0414      Y:    -0.0484      Z:     0.0470

  Dipole Moment: [e a0]
     X:     0.0095      Y:     0.0139      Z:     0.0044     Total:     0.0174

  Dipole Moment: [D]
     X:     0.0241      Y:     0.0353      Z:     0.0111     Total:     0.0442

*** tstop() called on ds3 at Mon Apr 27 16:45:06 2020
Module time:
	user time   =       9.94 seconds =       0.17 minutes
	system time =       4.17 seconds =       0.07 minutes
	total time  =         14 seconds =       0.23 minutes
Total time:
	user time   =       9.94 seconds =       0.17 minutes
	system time =       4.17 seconds =       0.07 minutes
	total time  =         14 seconds =       0.23 minutes
                                     G D M A

                                 by Anthony Stone

                           version 2.2.06, 22 June 2011

               Distributed Multipoles from Gaussian wavefunctions

Starting at 16:45:6 on 27 Apr 2020

Using SCF density matrix from file ./SSI/SSI-049THR-053LEU-1-dimer.test.27909.fchk

                         Distributed Multipole Analysis

Standard DMA

Positions and radii in angstrom
Multipole moments in atomic units, ea_0^k for rank k

C          x =  0.965110  y =  1.201355  z = -0.861545 angstrom
           Maximum rank =  0   Radius =  0.650 angstrom
                   Q00  =  -0.244903

C          x =  0.684110  y =  1.762355  z = -2.258545 angstrom
           Maximum rank =  0   Radius =  0.650 angstrom
                   Q00  =  -0.233696

H          x =  1.274110  y =  0.157355  z = -0.928545 angstrom
           Maximum rank =  0   Radius =  0.325 angstrom
                   Q00  =   0.079420

H          x =  1.758110  y =  1.779355  z = -0.386545 angstrom
           Maximum rank =  0   Radius =  0.325 angstrom
                   Q00  =   0.080093

H          x =  0.073110  y =  1.279355  z = -0.239545 angstrom
           Maximum rank =  0   Radius =  0.325 angstrom
                   Q00  =   0.082433

H          x =  0.267110  y =  2.765355  z = -2.163545 angstrom
           Maximum rank =  0   Radius =  0.325 angstrom
                   Q00  =   0.080570

H          x = -0.005120  y =  1.126634  z = -2.833721 angstrom
           Maximum rank =  0   Radius =  0.325 angstrom
                   Q00  =   0.079280

H          x =  1.619900  y =  1.803877  z = -2.835242 angstrom
           Maximum rank =  0   Radius =  0.325 angstrom
                   Q00  =   0.076750

C          x = -0.785890  y = -0.813645  z =  1.901455 angstrom
           Maximum rank =  0   Radius =  0.650 angstrom
                   Q00  =  -0.231909

C          x = -0.867890  y = -2.155645  z =  1.222455 angstrom
           Maximum rank =  0   Radius =  0.650 angstrom
                   Q00  =  -0.227078

H          x = -1.197890  y = -0.874645  z =  2.909455 angstrom
           Maximum rank =  0   Radius =  0.325 angstrom
                   Q00  =   0.075328

H          x =  0.255110  y = -0.496645  z =  1.962455 angstrom
           Maximum rank =  0   Radius =  0.325 angstrom
                   Q00  =   0.077285

H          x = -1.340890  y = -0.068645  z =  1.331455 angstrom
           Maximum rank =  0   Radius =  0.325 angstrom
                   Q00  =   0.076979

H          x = -0.431890  y = -2.058645  z =  0.229455 angstrom
           Maximum rank =  0   Radius =  0.325 angstrom
                   Q00  =   0.075949

H          x = -1.927040  y = -2.438037  z =  1.130480 angstrom
           Maximum rank =  0   Radius =  0.325 angstrom
                   Q00  =   0.075542

H          x = -0.290310  y = -2.908889  z =  1.778352 angstrom
           Maximum rank =  0   Radius =  0.325 angstrom
                   Q00  =   0.077956

Total multipoles referred to origin at
           x =   0.000000,  y =    0.000000,  z =    0.000000 angstrom
                   Q00  =  -0.000000

Finished at 16:45:6 on 27 Apr 2020

  DMA results are available in the Python driver through the
	  variable('DMA DISTRIBUTED MULTIPOLES')
  and
	  variable('DMA TOTAL MULTIPOLES')
  commands.

    Psi4 stopped on: Monday, 27 April 2020 04:45PM
    Psi4 wall time for execution: 0:00:13.89

*** Psi4 exiting successfully. Buy a developer a beer!
