                               Psi4 1.3.2 release

  ==> Input File <==

--------------------------------------------------------------------------
import numpy as np
set {scf_type pk
basis cc-pvdz
d_convergence 10
gdma_switch   0
gdma_limit    0
gdma_origin   [ 0.0,  0.0,  0.0 ]
}
molecule test {
    units Angstrom
    0 1
    --
    0 1
    C               -1.605521452002089    -0.565860744126157    -2.434896614831760
    C               -2.245521452002089    -0.006860744126157    -0.046896614831760
    C               -1.671521452002089    -0.825860744126157    -0.959896614831760
    C               -1.249521452002089    -1.610860744126157     1.176103385168240
    C               -1.031521452002089    -1.891860744126157    -0.201896614831760
    C               -0.760521452002089    -2.429860744126157     2.186103385168240
    C               -0.281521452002089    -3.039860744126157    -0.540896614831760
    C               -0.035521452002089    -3.558860744126157     1.831103385168240
    C                0.206478547997911    -3.872860744126157     0.486103385168240
    N               -1.994521452002089    -0.454860744126157     1.235103385168240
    H               -2.771521452002089     0.901139255873843    -0.302896614831760
    H               -2.195521452002089     0.083139255873843     2.081103385168240
    H               -0.580521452002089    -0.581860744126157    -2.775896614831761
    H               -1.960521452002089     0.455139255873843    -2.584896614831760
    H               -0.968521452002089    -2.202860744126157     3.222103385168240
    H               -0.072521452002089    -3.276860744126157    -1.570896614831760
    H                0.345478547997911    -4.210860744126157     2.604103385168239
    H                0.776478547997911    -4.754860744126157     0.230103385168240
    H               -2.194811452002089    -1.235270744126157    -3.078813614831760
    C                0.839478547997911     3.749139255873843    -2.374896614831760
    C                0.317478547997911     2.362139255873843    -0.338896614831760
    C                1.264478547997911     2.977139255873843    -1.161896614831760
    C                0.709478547997911     1.717139255873843     0.844103385168240
    C                2.072478547997911     1.684139255873843     1.208103385168240
    C                2.629478547997911     2.929139255873843    -0.809896614831760
    C                3.029478547997911     2.289139255873843     0.372103385168240
    H               -0.729521452002089     2.403139255873843    -0.598896614831760
    H               -0.028521452002089     1.267139255873843     1.490103385168240
    H               -0.247521452002089     3.734139255873843    -2.474896614831760
    H                1.263478547997911     3.256139255873843    -3.243896614831760
    H                2.381478547997911     1.190139255873843     2.119103385168240
    H                3.378478547997911     3.379139255873843    -1.443896614831760
    H                4.076478547997911     2.251139255873843     0.636103385168240
    H                1.192158547997911     4.790609255873843    -2.343947614831760

}
e, wfn = energy('scf', return_wfn=True)
gdma(wfn)
dmavals = variable('DMA DISTRIBUTED MULTIPOLES')
charges = np.array(dmavals)
print(charges)
np.save('SSI-113TRP-119PHE-1-dimer.npy', np.array(charges))--------------------------------------------------------------------------

*** tstart() called on ds3
*** at Mon Apr 27 00:10:52 2020

   => Loading Basis Set <=

    Name: CC-PVDZ
    Role: ORBITAL
    Keyword: BASIS
    atoms 1-9, 20-26   entry C          line   138 file /theoryfs2/ds/metcalf/miniconda2/envs/tf2gpu/share/psi4/basis/cc-pvdz.gbs
    atoms 10           entry N          line   168 file /theoryfs2/ds/metcalf/miniconda2/envs/tf2gpu/share/psi4/basis/cc-pvdz.gbs
    atoms 11-19, 27-34 entry H          line    22 file /theoryfs2/ds/metcalf/miniconda2/envs/tf2gpu/share/psi4/basis/cc-pvdz.gbs

         ---------------------------------------------------------
                                   SCF
               by Justin Turney, Rob Parrish, Andy Simmonett
                          and Daniel G. A. Smith
                              RHF Reference
                        1 Threads,    500 MiB Core
         ---------------------------------------------------------

  ==> Geometry <==

    Molecular point group: c1
    Full point group: C1

    Geometry (in Angstrom), charge = 0, multiplicity = 1:

       Center              X                  Y                   Z               Mass
    ------------   -----------------  -----------------  -----------------  -----------------
         C           -1.605521452002    -0.565860744126    -2.434896614832    12.000000000000
         C           -2.245521452002    -0.006860744126    -0.046896614832    12.000000000000
         C           -1.671521452002    -0.825860744126    -0.959896614832    12.000000000000
         C           -1.249521452002    -1.610860744126     1.176103385168    12.000000000000
         C           -1.031521452002    -1.891860744126    -0.201896614832    12.000000000000
         C           -0.760521452002    -2.429860744126     2.186103385168    12.000000000000
         C           -0.281521452002    -3.039860744126    -0.540896614832    12.000000000000
         C           -0.035521452002    -3.558860744126     1.831103385168    12.000000000000
         C            0.206478547998    -3.872860744126     0.486103385168    12.000000000000
         N           -1.994521452002    -0.454860744126     1.235103385168    14.003074004430
         H           -2.771521452002     0.901139255874    -0.302896614832     1.007825032230
         H           -2.195521452002     0.083139255874     2.081103385168     1.007825032230
         H           -0.580521452002    -0.581860744126    -2.775896614832     1.007825032230
         H           -1.960521452002     0.455139255874    -2.584896614832     1.007825032230
         H           -0.968521452002    -2.202860744126     3.222103385168     1.007825032230
         H           -0.072521452002    -3.276860744126    -1.570896614832     1.007825032230
         H            0.345478547998    -4.210860744126     2.604103385168     1.007825032230
         H            0.776478547998    -4.754860744126     0.230103385168     1.007825032230
         H           -2.194811452002    -1.235270744126    -3.078813614832     1.007825032230
         C            0.839478547998     3.749139255874    -2.374896614832    12.000000000000
         C            0.317478547998     2.362139255874    -0.338896614832    12.000000000000
         C            1.264478547998     2.977139255874    -1.161896614832    12.000000000000
         C            0.709478547998     1.717139255874     0.844103385168    12.000000000000
         C            2.072478547998     1.684139255874     1.208103385168    12.000000000000
         C            2.629478547998     2.929139255874    -0.809896614832    12.000000000000
         C            3.029478547998     2.289139255874     0.372103385168    12.000000000000
         H           -0.729521452002     2.403139255874    -0.598896614832     1.007825032230
         H           -0.028521452002     1.267139255874     1.490103385168     1.007825032230
         H           -0.247521452002     3.734139255874    -2.474896614832     1.007825032230
         H            1.263478547998     3.256139255874    -3.243896614832     1.007825032230
         H            2.381478547998     1.190139255874     2.119103385168     1.007825032230
         H            3.378478547998     3.379139255874    -1.443896614832     1.007825032230
         H            4.076478547998     2.251139255874     0.636103385168     1.007825032230
         H            1.192158547998     4.790609255874    -2.343947614832     1.007825032230

  Running in c1 symmetry.

  Rotational constants: A =      0.02439  B =      0.00921  C =      0.00812 [cm^-1]
  Rotational constants: A =    731.16174  B =    276.01463  C =    243.35373 [MHz]
  Nuclear repulsion = 1090.180716546647773

  Charge       = 0
  Multiplicity = 1
  Electrons    = 120
  Nalpha       = 60
  Nbeta        = 60

  ==> Algorithm <==

  SCF Algorithm Type is PK.
  DIIS enabled.
  MOM disabled.
  Fractional occupation disabled.
  Guess Type is SAD.
  Energy threshold   = 1.00e-06
  Density threshold  = 1.00e-10
  Integral threshold = 0.00e+00

  ==> Primary Basis <==

  Basis Set: CC-PVDZ
    Blend: CC-PVDZ
    Number of shells: 153
    Number of basis function: 323
    Number of Cartesian functions: 340
    Spherical Harmonics?: true
    Max angular momentum: 2

  ==> Pre-Iterations <==

   -------------------------------------------------------
    Irrep   Nso     Nmo     Nalpha   Nbeta   Ndocc  Nsocc
   -------------------------------------------------------
     A        323     323       0       0       0       0
   -------------------------------------------------------
    Total     323     323      60      60      60       0
   -------------------------------------------------------

  ==> Integral Setup <==

  Using integral reordering PK algorithm.
  Sizing the integral batches needed.
  Building batch lookup table.
   Calculation information:
      Number of atoms:                  34
      Number of AO shells:             153
      Number of primitives:            459
      Number of atomic orbitals:       340
      Number of basis functions:       323

      Integral cutoff                 1.00e-12
      Number of threads:                 1

	Batch   1 pq = [       0,    9405] index = [             0,44231715] size =     44231715
	Batch   2 pq = [    9405,   13301] index = [      44231715,88464951] size =     44233236
	Batch   3 pq = [   13301,   16290] index = [      88464951,132690195] size =     44225244
	Batch   4 pq = [   16290,   18810] index = [     132690195,176917455] size =     44227260
	Batch   5 pq = [   18810,   21030] index = [     176917455,221140965] size =     44223510
	Batch   6 pq = [   21030,   23037] index = [     221140965,265363203] size =     44222238
	Batch   7 pq = [   23037,   24883] index = [     265363203,309594286] size =     44231083
	Batch   8 pq = [   24883,   26601] index = [     309594286,353819901] size =     44225615
	Batch   9 pq = [   26601,   28214] index = [     353819901,398029005] size =     44209104
	Batch  10 pq = [   28214,   29740] index = [     398029005,442248670] size =     44219665
	Batch  11 pq = [   29740,   31191] index = [     442248670,486454836] size =     44206166
	Batch  12 pq = [   31191,   32578] index = [     486454836,530679331] size =     44224495
	Batch  13 pq = [   32578,   33908] index = [     530679331,574893186] size =     44213855
	Batch  14 pq = [   33908,   35188] index = [     574893186,619115266] size =     44222080
	Batch  15 pq = [   35188,   36423] index = [     619115266,663335676] size =     44220410
	Batch  16 pq = [   36423,   37617] index = [     663335676,707538153] size =     44202477
	Batch  17 pq = [   37617,   38775] index = [     707538153,751769700] size =     44231547
	Batch  18 pq = [   38775,   39899] index = [     751769700,795985050] size =     44215350
	Batch  19 pq = [   39899,   40992] index = [     795985050,840192528] size =     44207478
	Batch  20 pq = [   40992,   42057] index = [     840192528,884416653] size =     44224125
	Batch  21 pq = [   42057,   43095] index = [     884416653,928611060] size =     44194407
	Batch  22 pq = [   43095,   44109] index = [     928611060,972823995] size =     44212935
	Batch  23 pq = [   44109,   45100] index = [     972823995,1017027550] size =     44203555
	Batch  24 pq = [   45100,   46070] index = [    1017027550,1061245485] size =     44217935
	Batch  25 pq = [   46070,   47020] index = [    1061245485,1105463710] size =     44218225
	Batch  26 pq = [   47020,   47951] index = [    1105463710,1149673176] size =     44209466
	Batch  27 pq = [   47951,   48864] index = [    1149673176,1193869680] size =     44196504
	Batch  28 pq = [   48864,   49761] index = [    1193869680,1238103441] size =     44233761
	Batch  29 pq = [   49761,   50642] index = [    1238103441,1282331403] size =     44227962
	Batch  30 pq = [   50642,   51508] index = [    1282331403,1326562786] size =     44231383
	Batch  31 pq = [   51508,   52326] index = [    1326562786,1369031301] size =     42468515
  Task number: 124
  Buffer size: 11059200
  Buffer per thread: 2
  We computed 79540801 shell quartets total.
  Whereas there are 69401871 unique shell quartets.
    14.61 percent of shell quartets recomputed by reordering.

  ==> DiskJK: Disk-Based J/K Matrices <==

    J tasked:                  Yes
    K tasked:                  Yes
    wK tasked:                  No
    Memory [MiB]:              375
    Schwarz Cutoff:          1E-12

    OpenMP threads:              1

  Minimum eigenvalue in the overlap matrix is 2.4556695119E-04.
  Using Symmetric Orthogonalization.

  SCF Guess: Superposition of Atomic Densities via on-the-fly atomic UHF.

  ==> Iterations <==

                        Total Energy        Delta E     RMS |[F,P]|

   @RHF iter SAD:  -669.33776187820411   -6.69338e+02   0.00000e+00
   @RHF iter   1:  -669.94692718045496   -6.09165e-01   2.13717e-03 DIIS
   @RHF iter   2:  -670.23481521622386   -2.87888e-01   9.34165e-04 DIIS
   @RHF iter   3:  -670.28319692947605   -4.83817e-02   2.56340e-04 DIIS
   @RHF iter   4:  -670.28789763672512   -4.70071e-03   1.13544e-04 DIIS
   @RHF iter   5:  -670.28865060236967   -7.52966e-04   1.68800e-05 DIIS
   @RHF iter   6:  -670.28868448994149   -3.38876e-05   7.69696e-06 DIIS
   @RHF iter   7:  -670.28869186562679   -7.37569e-06   3.04017e-06 DIIS
   @RHF iter   8:  -670.28869379008506   -1.92446e-06   1.25726e-06 DIIS
   @RHF iter   9:  -670.28869417529938   -3.85214e-07   5.49451e-07 DIIS
   @RHF iter  10:  -670.28869425678295   -8.14836e-08   2.45562e-07 DIIS
   @RHF iter  11:  -670.28869427625511   -1.94722e-08   1.02070e-07 DIIS
   @RHF iter  12:  -670.28869427895768   -2.70256e-09   3.96143e-08 DIIS
   @RHF iter  13:  -670.28869427925599   -2.98314e-10   1.31432e-08 DIIS
   @RHF iter  14:  -670.28869427929078   -3.47882e-11   5.29508e-09 DIIS
   @RHF iter  15:  -670.28869427929226   -1.47793e-12   2.28627e-09 DIIS
   @RHF iter  16:  -670.28869427928964    2.61480e-12   1.09379e-09 DIIS
   @RHF iter  17:  -670.28869427929260   -2.95586e-12   5.12385e-10 DIIS
   @RHF iter  18:  -670.28869427928817    4.43379e-12   1.68195e-10 DIIS
   @RHF iter  19:  -670.28869427929135   -3.18323e-12   7.20251e-11 DIIS
  Energy and wave function converged.

  ==> Post-Iterations <==

    Orbital Energies [Eh]
    ---------------------

    Doubly Occupied:

       1A    -15.602578     2A    -11.266253     3A    -11.264484
       4A    -11.239669     5A    -11.235104     6A    -11.234260
       7A    -11.234025     8A    -11.231079     9A    -11.230607
      10A    -11.229867    11A    -11.229618    12A    -11.228523
      13A    -11.227456    14A    -11.226141    15A    -11.225163
      16A    -11.223594    17A    -11.220811    18A     -1.291961
      19A     -1.141534    20A     -1.124241    21A     -1.071879
      22A     -1.038188    23A     -1.004229    24A     -0.994618
      25A     -0.988389    26A     -0.930407    27A     -0.926391
      28A     -0.839128    29A     -0.818924    30A     -0.802044
      31A     -0.790026    32A     -0.752002    33A     -0.718682
      34A     -0.684104    35A     -0.664220    36A     -0.642269
      37A     -0.630567    38A     -0.623673    39A     -0.600160
      40A     -0.594406    41A     -0.587482    42A     -0.576537
      43A     -0.574369    44A     -0.565774    45A     -0.557864
      46A     -0.550712    47A     -0.540832    48A     -0.533790
      49A     -0.527345    50A     -0.496096    51A     -0.481661
      52A     -0.480521    53A     -0.474789    54A     -0.468763
      55A     -0.458933    56A     -0.370871    57A     -0.326092
      58A     -0.313816    59A     -0.295547    60A     -0.276984

    Virtual:

      61A      0.123668    62A      0.135128    63A      0.145259
      64A      0.164608    65A      0.167716    66A      0.175073
      67A      0.198344    68A      0.202297    69A      0.214307
      70A      0.216181    71A      0.228457    72A      0.231805
      73A      0.242767    74A      0.257178    75A      0.265451
      76A      0.266608    77A      0.269416    78A      0.275561
      79A      0.289491    80A      0.292260    81A      0.300508
      82A      0.334242    83A      0.363214    84A      0.374194
      85A      0.379051    86A      0.384182    87A      0.405975
      88A      0.417123    89A      0.438790    90A      0.452277
      91A      0.460294    92A      0.469654    93A      0.473525
      94A      0.482402    95A      0.496714    96A      0.511318
      97A      0.518227    98A      0.567252    99A      0.583562
     100A      0.603631   101A      0.606300   102A      0.622222
     103A      0.632806   104A      0.655673   105A      0.665571
     106A      0.677159   107A      0.683905   108A      0.699767
     109A      0.704553   110A      0.709199   111A      0.718134
     112A      0.719637   113A      0.725948   114A      0.729873
     115A      0.732936   116A      0.738325   117A      0.741769
     118A      0.744383   119A      0.748925   120A      0.753044
     121A      0.757623   122A      0.764388   123A      0.768256
     124A      0.774414   125A      0.783265   126A      0.787342
     127A      0.798701   128A      0.801010   129A      0.824670
     130A      0.830615   131A      0.841748   132A      0.863358
     133A      0.867410   134A      0.870171   135A      0.873479
     136A      0.880400   137A      0.885045   138A      0.886484
     139A      0.894978   140A      0.900648   141A      0.907082
     142A      0.915617   143A      0.919773   144A      0.934036
     145A      0.937603   146A      0.946694   147A      0.950051
     148A      0.967866   149A      0.975615   150A      0.978783
     151A      0.986713   152A      0.999978   153A      1.004287
     154A      1.007538   155A      1.024212   156A      1.060566
     157A      1.063256   158A      1.079581   159A      1.105390
     160A      1.111862   161A      1.123939   162A      1.130350
     163A      1.138485   164A      1.149416   165A      1.154746
     166A      1.160769   167A      1.173347   168A      1.187655
     169A      1.197486   170A      1.203157   171A      1.220886
     172A      1.232391   173A      1.236979   174A      1.240621
     175A      1.247488   176A      1.249710   177A      1.264796
     178A      1.272549   179A      1.283479   180A      1.285608
     181A      1.299979   182A      1.304299   183A      1.315523
     184A      1.316665   185A      1.328307   186A      1.343488
     187A      1.344512   188A      1.374652   189A      1.380788
     190A      1.402243   191A      1.425781   192A      1.455594
     193A      1.510493   194A      1.518157   195A      1.544111
     196A      1.548677   197A      1.565862   198A      1.577157
     199A      1.587902   200A      1.615348   201A      1.639930
     202A      1.649048   203A      1.662207   204A      1.679266
     205A      1.684194   206A      1.691839   207A      1.702750
     208A      1.730615   209A      1.741414   210A      1.746245
     211A      1.758779   212A      1.761286   213A      1.776022
     214A      1.794424   215A      1.798237   216A      1.813166
     217A      1.815276   218A      1.827240   219A      1.844703
     220A      1.856261   221A      1.875297   222A      1.877081
     223A      1.885587   224A      1.898380   225A      1.904228
     226A      1.907127   227A      1.918094   228A      1.920877
     229A      1.927256   230A      1.933498   231A      1.936895
     232A      1.940918   233A      1.951102   234A      1.961383
     235A      1.969604   236A      1.971839   237A      1.978953
     238A      1.984038   239A      1.996312   240A      2.011059
     241A      2.012187   242A      2.031066   243A      2.042422
     244A      2.048150   245A      2.052892   246A      2.069674
     247A      2.071428   248A      2.075156   249A      2.093338
     250A      2.099941   251A      2.107110   252A      2.112032
     253A      2.124426   254A      2.127015   255A      2.142309
     256A      2.144926   257A      2.158247   258A      2.163408
     259A      2.164582   260A      2.176902   261A      2.189338
     262A      2.204454   263A      2.219583   264A      2.238591
     265A      2.251318   266A      2.267659   267A      2.288149
     268A      2.301666   269A      2.306618   270A      2.312090
     271A      2.324509   272A      2.327491   273A      2.343101
     274A      2.353303   275A      2.383054   276A      2.398181
     277A      2.422407   278A      2.439896   279A      2.453521
     280A      2.471438   281A      2.486863   282A      2.511975
     283A      2.523652   284A      2.538742   285A      2.583648
     286A      2.598852   287A      2.627987   288A      2.638049
     289A      2.643886   290A      2.669481   291A      2.709817
     292A      2.730108   293A      2.751960   294A      2.764003
     295A      2.768571   296A      2.780573   297A      2.782822
     298A      2.794052   299A      2.798054   300A      2.815186
     301A      2.834864   302A      2.843017   303A      2.863928
     304A      2.880733   305A      2.902901   306A      2.912751
     307A      2.960892   308A      2.970883   309A      2.998471
     310A      3.025026   311A      3.028797   312A      3.051300
     313A      3.068235   314A      3.107548   315A      3.153514
     316A      3.186823   317A      3.195823   318A      3.283128
     319A      3.289773   320A      3.361405   321A      3.729387
     322A      3.926072   323A      3.933723

    Final Occupation by Irrep:
              A
    DOCC [    60 ]

  @RHF Final Energy:  -670.28869427929135

   => Energetics <=

    Nuclear Repulsion Energy =           1090.1807165466477727
    One-Electron Energy =               -3071.9787200937230409
    Two-Electron Energy =                1311.5093092677839195
    Total Energy =                       -670.2886942792913487

Computation Completed

Properties will be evaluated at   0.000000,   0.000000,   0.000000 [a0]

Properties computed using the SCF density matrix

  Nuclear Dipole Moment: [e a0]
     X:     1.5662      Y:     6.9840      Z:    -7.5373

  Electronic Dipole Moment: [e a0]
     X:    -1.8344      Y:    -6.3707      Z:     7.7130

  Dipole Moment: [e a0]
     X:    -0.2681      Y:     0.6133      Z:     0.1757     Total:     0.6920

  Dipole Moment: [D]
     X:    -0.6815      Y:     1.5588      Z:     0.4465     Total:     1.7589

*** tstop() called on ds3 at Mon Apr 27 03:19:27 2020
Module time:
	user time   =     714.90 seconds =      11.91 minutes
	system time =     278.34 seconds =       4.64 minutes
	total time  =      11315 seconds =     188.58 minutes
Total time:
	user time   =     714.90 seconds =      11.91 minutes
	system time =     278.34 seconds =       4.64 minutes
	total time  =      11315 seconds =     188.58 minutes
                                     G D M A

                                 by Anthony Stone

                           version 2.2.06, 22 June 2011

               Distributed Multipoles from Gaussian wavefunctions

Starting at 3:19:27 on 27 Apr 2020

Using SCF density matrix from file ./SSI/SSI-113TRP-119PHE-1-dimer.test.7807.fchk

                         Distributed Multipole Analysis

Standard DMA

Positions and radii in angstrom
Multipole moments in atomic units, ea_0^k for rank k

C          x = -1.605521  y = -0.565861  z = -2.434897 angstrom
           Maximum rank =  0   Radius =  0.650 angstrom
                   Q00  =  -0.208940

C          x = -2.245521  y = -0.006861  z = -0.046897 angstrom
           Maximum rank =  0   Radius =  0.650 angstrom
                   Q00  =   0.086729

C          x = -1.671521  y = -0.825861  z = -0.959897 angstrom
           Maximum rank =  0   Radius =  0.650 angstrom
                   Q00  =  -0.114791

C          x = -1.249521  y = -1.610861  z =  1.176103 angstrom
           Maximum rank =  0   Radius =  0.650 angstrom
                   Q00  =   0.271099

C          x = -1.031521  y = -1.891861  z = -0.201897 angstrom
           Maximum rank =  0   Radius =  0.650 angstrom
                   Q00  =  -0.060598

C          x = -0.760521  y = -2.429861  z =  2.186103 angstrom
           Maximum rank =  0   Radius =  0.650 angstrom
                   Q00  =  -0.119917

C          x = -0.281521  y = -3.039861  z = -0.540897 angstrom
           Maximum rank =  0   Radius =  0.650 angstrom
                   Q00  =  -0.089417

C          x = -0.035521  y = -3.558861  z =  1.831103 angstrom
           Maximum rank =  0   Radius =  0.650 angstrom
                   Q00  =  -0.036428

C          x =  0.206479  y = -3.872861  z =  0.486103 angstrom
           Maximum rank =  0   Radius =  0.650 angstrom
                   Q00  =  -0.099659

N          x = -1.994521  y = -0.454861  z =  1.235103 angstrom
           Maximum rank =  0   Radius =  0.650 angstrom
                   Q00  =  -0.506019

H          x = -2.771521  y =  0.901139  z = -0.302897 angstrom
           Maximum rank =  0   Radius =  0.325 angstrom
                   Q00  =   0.098069

H          x = -2.195521  y =  0.083139  z =  2.081103 angstrom
           Maximum rank =  0   Radius =  0.325 angstrom
                   Q00  =   0.218902

H          x = -0.580521  y = -0.581861  z = -2.775897 angstrom
           Maximum rank =  0   Radius =  0.325 angstrom
                   Q00  =   0.107983

H          x = -1.960521  y =  0.455139  z = -2.584897 angstrom
           Maximum rank =  0   Radius =  0.325 angstrom
                   Q00  =   0.094504

H          x = -0.968521  y = -2.202861  z =  3.222103 angstrom
           Maximum rank =  0   Radius =  0.325 angstrom
                   Q00  =   0.070640

H          x = -0.072521  y = -3.276861  z = -1.570897 angstrom
           Maximum rank =  0   Radius =  0.325 angstrom
                   Q00  =   0.072432

H          x =  0.345479  y = -4.210861  z =  2.604103 angstrom
           Maximum rank =  0   Radius =  0.325 angstrom
                   Q00  =   0.065468

H          x =  0.776479  y = -4.754861  z =  0.230103 angstrom
           Maximum rank =  0   Radius =  0.325 angstrom
                   Q00  =   0.063353

H          x = -2.194811  y = -1.235271  z = -3.078814 angstrom
           Maximum rank =  0   Radius =  0.325 angstrom
                   Q00  =   0.097872

C          x =  0.839479  y =  3.749139  z = -2.374897 angstrom
           Maximum rank =  0   Radius =  0.650 angstrom
                   Q00  =  -0.202682

C          x =  0.317479  y =  2.362139  z = -0.338897 angstrom
           Maximum rank =  0   Radius =  0.650 angstrom
                   Q00  =  -0.014234

C          x =  1.264479  y =  2.977139  z = -1.161897 angstrom
           Maximum rank =  0   Radius =  0.650 angstrom
                   Q00  =  -0.092947

C          x =  0.709479  y =  1.717139  z =  0.844103 angstrom
           Maximum rank =  0   Radius =  0.650 angstrom
                   Q00  =  -0.057085

C          x =  2.072479  y =  1.684139  z =  1.208103 angstrom
           Maximum rank =  0   Radius =  0.650 angstrom
                   Q00  =  -0.080878

C          x =  2.629479  y =  2.929139  z = -0.809897 angstrom
           Maximum rank =  0   Radius =  0.650 angstrom
                   Q00  =  -0.065179

C          x =  3.029479  y =  2.289139  z =  0.372103 angstrom
           Maximum rank =  0   Radius =  0.650 angstrom
                   Q00  =  -0.076939

H          x = -0.729521  y =  2.403139  z = -0.598897 angstrom
           Maximum rank =  0   Radius =  0.325 angstrom
                   Q00  =   0.047977

H          x = -0.028521  y =  1.267139  z =  1.490103 angstrom
           Maximum rank =  0   Radius =  0.325 angstrom
                   Q00  =   0.047232

H          x = -0.247521  y =  3.734139  z = -2.474897 angstrom
           Maximum rank =  0   Radius =  0.325 angstrom
                   Q00  =   0.094021

H          x =  1.263479  y =  3.256139  z = -3.243897 angstrom
           Maximum rank =  0   Radius =  0.325 angstrom
                   Q00  =   0.101423

H          x =  2.381479  y =  1.190139  z =  2.119103 angstrom
           Maximum rank =  0   Radius =  0.325 angstrom
                   Q00  =   0.063430

H          x =  3.378479  y =  3.379139  z = -1.443897 angstrom
           Maximum rank =  0   Radius =  0.325 angstrom
                   Q00  =   0.057241

H          x =  4.076479  y =  2.251139  z =  0.636103 angstrom
           Maximum rank =  0   Radius =  0.325 angstrom
                   Q00  =   0.066278

H          x =  1.192159  y =  4.790609  z = -2.343948 angstrom
           Maximum rank =  0   Radius =  0.325 angstrom
                   Q00  =   0.101060

Total multipoles referred to origin at
           x =   0.000000,  y =    0.000000,  z =    0.000000 angstrom
                   Q00  =  -0.000000

Finished at 3:19:27 on 27 Apr 2020

  DMA results are available in the Python driver through the
	  variable('DMA DISTRIBUTED MULTIPOLES')
  and
	  variable('DMA TOTAL MULTIPOLES')
  commands.

    Psi4 stopped on: Monday, 27 April 2020 03:19AM
    Psi4 wall time for execution: 3:08:34.65

*** Psi4 exiting successfully. Buy a developer a beer!
