                               Psi4 1.3.2 release

  ==> Input File <==

--------------------------------------------------------------------------
import numpy as np
set {scf_type pk
basis cc-pvdz
d_convergence 10
gdma_switch   0
gdma_limit    0
gdma_origin   [ 0.0,  0.0,  0.0 ]
}
molecule test {
    units Angstrom
    0 1
    --
    0 1
    C                3.415586983028579     1.567683934459401    -0.417019054149923
    C               -0.522413016971421     0.358683934459401     0.678980945850077
    C                0.164586983028580    -0.353316065540599    -0.306019054149923
    C                0.049586983028580     1.463683934459401     1.306980945850077
    C                1.430586983028580     0.051683934459401    -0.666019054149923
    C                1.335586983028579     1.853683934459401     0.942980945850077
    C                2.023586983028580     1.146683934459401    -0.050019054149923
    H               -1.515413016971421     0.040683934459401     0.968980945850077
    H               -0.286413016971421    -1.214316065540598    -0.777019054149923
    H               -0.493413016971421     2.002683934459402     2.069980945850077
    H                1.957586983028579    -0.479316065540599    -1.443019054149923
    H                1.798586983028580     2.703683934459401     1.425980945850077
    H                3.551586983028579     2.615683934459401    -0.177019054149923
    H                3.511586983028580     1.453683934459401    -1.485019054149923
    H                4.206156983028579     0.977453934459401     0.069430945850077
    C               -2.976413016971421    -2.388316065540598    -0.285019054149923
    C               -4.187413016971421    -3.014316065540599    -0.946019054149923
    H               -3.252413016971421    -1.984316065540598     0.689980945850077
    H               -2.197413016971420    -3.139316065540599    -0.152019054149923
    H               -2.581413016971420    -1.588316065540599    -0.907019054149923
    H               -3.887413016971421    -3.357316065540599    -1.930019054149923
    H               -5.020275016971420    -2.303808065540598    -1.053349054149923
    H               -4.522412016971420    -3.897104065540598    -0.381699054149923

}
e, wfn = energy('scf', return_wfn=True)
gdma(wfn)
dmavals = variable('DMA DISTRIBUTED MULTIPOLES')
charges = np.array(dmavals)
print(charges)
np.save('SSI-105PHE-127LEU-1-dimer.npy', np.array(charges))--------------------------------------------------------------------------

*** tstart() called on ds3
*** at Sun Apr 26 19:43:10 2020

   => Loading Basis Set <=

    Name: CC-PVDZ
    Role: ORBITAL
    Keyword: BASIS
    atoms 1-7, 16-17  entry C          line   138 file /theoryfs2/ds/metcalf/miniconda2/envs/tf2gpu/share/psi4/basis/cc-pvdz.gbs
    atoms 8-15, 18-23 entry H          line    22 file /theoryfs2/ds/metcalf/miniconda2/envs/tf2gpu/share/psi4/basis/cc-pvdz.gbs

         ---------------------------------------------------------
                                   SCF
               by Justin Turney, Rob Parrish, Andy Simmonett
                          and Daniel G. A. Smith
                              RHF Reference
                        1 Threads,    500 MiB Core
         ---------------------------------------------------------

  ==> Geometry <==

    Molecular point group: c1
    Full point group: C1

    Geometry (in Angstrom), charge = 0, multiplicity = 1:

       Center              X                  Y                   Z               Mass
    ------------   -----------------  -----------------  -----------------  -----------------
         C            3.415586983029     1.567683934459    -0.417019054150    12.000000000000
         C           -0.522413016971     0.358683934459     0.678980945850    12.000000000000
         C            0.164586983029    -0.353316065541    -0.306019054150    12.000000000000
         C            0.049586983029     1.463683934459     1.306980945850    12.000000000000
         C            1.430586983029     0.051683934459    -0.666019054150    12.000000000000
         C            1.335586983029     1.853683934459     0.942980945850    12.000000000000
         C            2.023586983029     1.146683934459    -0.050019054150    12.000000000000
         H           -1.515413016971     0.040683934459     0.968980945850     1.007825032230
         H           -0.286413016971    -1.214316065541    -0.777019054150     1.007825032230
         H           -0.493413016971     2.002683934459     2.069980945850     1.007825032230
         H            1.957586983029    -0.479316065541    -1.443019054150     1.007825032230
         H            1.798586983029     2.703683934459     1.425980945850     1.007825032230
         H            3.551586983029     2.615683934459    -0.177019054150     1.007825032230
         H            3.511586983029     1.453683934459    -1.485019054150     1.007825032230
         H            4.206156983029     0.977453934459     0.069430945850     1.007825032230
         C           -2.976413016971    -2.388316065541    -0.285019054150    12.000000000000
         C           -4.187413016971    -3.014316065541    -0.946019054150    12.000000000000
         H           -3.252413016971    -1.984316065541     0.689980945850     1.007825032230
         H           -2.197413016971    -3.139316065541    -0.152019054150     1.007825032230
         H           -2.581413016971    -1.588316065541    -0.907019054150     1.007825032230
         H           -3.887413016971    -3.357316065541    -1.930019054150     1.007825032230
         H           -5.020275016971    -2.303808065541    -1.053349054150     1.007825032230
         H           -4.522412016971    -3.897104065541    -0.381699054150     1.007825032230

  Running in c1 symmetry.

  Rotational constants: A =      0.13484  B =      0.01663  C =      0.01499 [cm^-1]
  Rotational constants: A =   4042.31722  B =    498.63165  C =    449.34800 [MHz]
  Nuclear repulsion =  395.963719800679087

  Charge       = 0
  Multiplicity = 1
  Electrons    = 68
  Nalpha       = 34
  Nbeta        = 34

  ==> Algorithm <==

  SCF Algorithm Type is PK.
  DIIS enabled.
  MOM disabled.
  Fractional occupation disabled.
  Guess Type is SAD.
  Energy threshold   = 1.00e-06
  Density threshold  = 1.00e-10
  Integral threshold = 0.00e+00

  ==> Primary Basis <==

  Basis Set: CC-PVDZ
    Blend: CC-PVDZ
    Number of shells: 96
    Number of basis function: 196
    Number of Cartesian functions: 205
    Spherical Harmonics?: true
    Max angular momentum: 2

  ==> Pre-Iterations <==

   -------------------------------------------------------
    Irrep   Nso     Nmo     Nalpha   Nbeta   Ndocc  Nsocc
   -------------------------------------------------------
     A        196     196       0       0       0       0
   -------------------------------------------------------
    Total     196     196      34      34      34       0
   -------------------------------------------------------

  ==> Integral Setup <==

  Using integral reordering PK algorithm.
  Sizing the integral batches needed.
  Building batch lookup table.
   Calculation information:
      Number of atoms:                  23
      Number of AO shells:              96
      Number of primitives:            268
      Number of atomic orbitals:       205
      Number of basis functions:       196

      Integral cutoff                 1.00e-12
      Number of threads:                 1

	Batch   1 pq = [       0,    9405] index = [             0,44231715] size =     44231715
	Batch   2 pq = [    9405,   13301] index = [      44231715,88464951] size =     44233236
	Batch   3 pq = [   13301,   16290] index = [      88464951,132690195] size =     44225244
	Batch   4 pq = [   16290,   18810] index = [     132690195,176917455] size =     44227260
	Batch   5 pq = [   18810,   19306] index = [     176917455,186370471] size =      9453016
  Task number: 17
  Buffer size: 11059200
  Buffer per thread: 2
  We computed 8016792 shell quartets total.
  Whereas there are 10841496 unique shell quartets.

  ==> DiskJK: Disk-Based J/K Matrices <==

    J tasked:                  Yes
    K tasked:                  Yes
    wK tasked:                  No
    Memory [MiB]:              375
    Schwarz Cutoff:          1E-12

    OpenMP threads:              1

  Minimum eigenvalue in the overlap matrix is 3.0585409839E-04.
  Using Symmetric Orthogonalization.

  SCF Guess: Superposition of Atomic Densities via on-the-fly atomic UHF.

  ==> Iterations <==

                        Total Energy        Delta E     RMS |[F,P]|

   @RHF iter SAD:  -347.93978997086407   -3.47940e+02   0.00000e+00
   @RHF iter   1:  -348.76394013115333   -8.24150e-01   2.91487e-03 DIIS
   @RHF iter   2:  -348.95859576884379   -1.94656e-01   1.20899e-03 DIIS
   @RHF iter   3:  -348.98916378753461   -3.05680e-02   2.61962e-04 DIIS
   @RHF iter   4:  -348.99167619873646   -2.51241e-03   5.85307e-05 DIIS
   @RHF iter   5:  -348.99176253266080   -8.63339e-05   1.94763e-05 DIIS
   @RHF iter   6:  -348.99177181007258   -9.27741e-06   5.02959e-06 DIIS
   @RHF iter   7:  -348.99177253793806   -7.27865e-07   1.23000e-06 DIIS
   @RHF iter   8:  -348.99177258893559   -5.09975e-08   3.14257e-07 DIIS
   @RHF iter   9:  -348.99177259513209   -6.19650e-09   1.38940e-07 DIIS
   @RHF iter  10:  -348.99177259653680   -1.40471e-09   6.55388e-08 DIIS
   @RHF iter  11:  -348.99177259708188   -5.45072e-10   2.44758e-08 DIIS
   @RHF iter  12:  -348.99177259715339   -7.15090e-11   1.08564e-08 DIIS
   @RHF iter  13:  -348.99177259715884   -5.45697e-12   4.00724e-09 DIIS
   @RHF iter  14:  -348.99177259716191   -3.06954e-12   1.16676e-09 DIIS
   @RHF iter  15:  -348.99177259716362   -1.70530e-12   4.39107e-10 DIIS
   @RHF iter  16:  -348.99177259716379   -1.70530e-13   1.72480e-10 DIIS
   @RHF iter  17:  -348.99177259716436   -5.68434e-13   6.91706e-11 DIIS
  Energy and wave function converged.

  ==> Post-Iterations <==

    Orbital Energies [Eh]
    ---------------------

    Doubly Occupied:

       1A    -11.237828     2A    -11.234290     3A    -11.232392
       4A    -11.229710     5A    -11.229173     6A    -11.226845
       7A    -11.224797     8A    -11.219176     9A    -11.218314
      10A     -1.152222    11A     -1.042539    12A     -1.024076
      13A     -1.013821    14A     -0.929030    15A     -0.839425
      16A     -0.823080    17A     -0.794927    18A     -0.689221
      19A     -0.631571    20A     -0.629780    21A     -0.602425
      22A     -0.600725    23A     -0.585847    24A     -0.575838
      25A     -0.556616    26A     -0.535939    27A     -0.506648
      28A     -0.488976    29A     -0.487833    30A     -0.486071
      31A     -0.481533    32A     -0.477291    33A     -0.333646
      34A     -0.317881

    Virtual:

      35A      0.136985    36A      0.142176    37A      0.177927
      38A      0.191263    39A      0.206841    40A      0.217868
      41A      0.231258    42A      0.243091    43A      0.254456
      44A      0.254876    45A      0.273048    46A      0.282407
      47A      0.284839    48A      0.293153    49A      0.307617
      50A      0.326512    51A      0.369422    52A      0.378033
      53A      0.388411    54A      0.456040    55A      0.469974
      56A      0.482889    57A      0.492104    58A      0.560885
      59A      0.591943    60A      0.600110    61A      0.602182
      62A      0.635138    63A      0.654061    64A      0.675012
      65A      0.676462    66A      0.696184    67A      0.709768
      68A      0.719285    69A      0.732945    70A      0.739201
      71A      0.741885    72A      0.746868    73A      0.760364
      74A      0.776547    75A      0.784427    76A      0.795439
      77A      0.837453    78A      0.850153    79A      0.861415
      80A      0.877281    81A      0.880114    82A      0.886612
      83A      0.889811    84A      0.894429    85A      0.900208
      86A      0.913646    87A      0.919150    88A      0.919288
      89A      0.931458    90A      0.933084    91A      0.942435
      92A      0.947721    93A      0.985094    94A      1.004233
      95A      1.028631    96A      1.054377    97A      1.109038
      98A      1.122568    99A      1.141039   100A      1.157573
     101A      1.168786   102A      1.194697   103A      1.209425
     104A      1.228373   105A      1.247108   106A      1.247848
     107A      1.262906   108A      1.281858   109A      1.309490
     110A      1.314719   111A      1.323749   112A      1.329377
     113A      1.410450   114A      1.467375   115A      1.478967
     116A      1.510814   117A      1.529100   118A      1.565619
     119A      1.580628   120A      1.626746   121A      1.681005
     122A      1.683236   123A      1.693920   124A      1.706448
     125A      1.738363   126A      1.750586   127A      1.755905
     128A      1.789308   129A      1.814982   130A      1.862058
     131A      1.863455   132A      1.882162   133A      1.894566
     134A      1.901589   135A      1.914864   136A      1.915884
     137A      1.918155   138A      1.925882   139A      1.938763
     140A      1.944531   141A      1.953839   142A      1.955776
     143A      1.959456   144A      1.971027   145A      1.980037
     146A      1.994168   147A      2.001520   148A      2.008930
     149A      2.044943   150A      2.065952   151A      2.074984
     152A      2.086840   153A      2.113313   154A      2.118855
     155A      2.153221   156A      2.165096   157A      2.177313
     158A      2.190118   159A      2.221690   160A      2.254239
     161A      2.280048   162A      2.294121   163A      2.303558
     164A      2.307305   165A      2.319525   166A      2.330955
     167A      2.361728   168A      2.461665   169A      2.475555
     170A      2.476826   171A      2.485899   172A      2.514139
     173A      2.549846   174A      2.559615   175A      2.583078
     176A      2.625197   177A      2.743659   178A      2.762375
     179A      2.773451   180A      2.781211   181A      2.792782
     182A      2.798563   183A      2.811505   184A      2.856225
     185A      2.862175   186A      2.868388   187A      2.894447
     188A      2.948633   189A      2.961958   190A      2.985238
     191A      3.017735   192A      3.030983   193A      3.160273
     194A      3.209014   195A      3.312690   196A      3.977616

    Final Occupation by Irrep:
              A
    DOCC [    34 ]

  @RHF Final Energy:  -348.99177259716436

   => Energetics <=

    Nuclear Repulsion Energy =            395.9637198006790868
    One-Electron Energy =               -1254.5920131877678614
    Two-Electron Energy =                 509.6365207899244183
    Total Energy =                       -348.9917725971643563

Computation Completed

Properties will be evaluated at   0.000000,   0.000000,   0.000000 [a0]

Properties computed using the SCF density matrix

  Nuclear Dipole Moment: [e a0]
     X:    -8.1851      Y:    -7.6591      Z:    -2.8891

  Electronic Dipole Moment: [e a0]
     X:     8.2812      Y:     7.6607      Z:     2.8499

  Dipole Moment: [e a0]
     X:     0.0960      Y:     0.0017      Z:    -0.0392     Total:     0.1038

  Dipole Moment: [D]
     X:     0.2441      Y:     0.0042      Z:    -0.0997     Total:     0.2637

*** tstop() called on ds3 at Sun Apr 26 19:44:28 2020
Module time:
	user time   =      53.85 seconds =       0.90 minutes
	system time =      26.53 seconds =       0.44 minutes
	total time  =         78 seconds =       1.30 minutes
Total time:
	user time   =      53.85 seconds =       0.90 minutes
	system time =      26.53 seconds =       0.44 minutes
	total time  =         78 seconds =       1.30 minutes
                                     G D M A

                                 by Anthony Stone

                           version 2.2.06, 22 June 2011

               Distributed Multipoles from Gaussian wavefunctions

Starting at 19:44:28 on 26 Apr 2020

Using SCF density matrix from file ./SSI/SSI-105PHE-127LEU-1-dimer.test.8249.fchk

                         Distributed Multipole Analysis

Standard DMA

Positions and radii in angstrom
Multipole moments in atomic units, ea_0^k for rank k

C          x =  3.415587  y =  1.567684  z = -0.417019 angstrom
           Maximum rank =  0   Radius =  0.650 angstrom
                   Q00  =  -0.194724

C          x = -0.522413  y =  0.358684  z =  0.678981 angstrom
           Maximum rank =  0   Radius =  0.650 angstrom
                   Q00  =  -0.003221

C          x =  0.164587  y = -0.353316  z = -0.306019 angstrom
           Maximum rank =  0   Radius =  0.650 angstrom
                   Q00  =  -0.067132

C          x =  0.049587  y =  1.463684  z =  1.306981 angstrom
           Maximum rank =  0   Radius =  0.650 angstrom
                   Q00  =  -0.072570

C          x =  1.430587  y =  0.051684  z = -0.666019 angstrom
           Maximum rank =  0   Radius =  0.650 angstrom
                   Q00  =  -0.087107

C          x =  1.335587  y =  1.853684  z =  0.942981 angstrom
           Maximum rank =  0   Radius =  0.650 angstrom
                   Q00  =  -0.089593

C          x =  2.023587  y =  1.146684  z = -0.050019 angstrom
           Maximum rank =  0   Radius =  0.650 angstrom
                   Q00  =  -0.084101

H          x = -1.515413  y =  0.040684  z =  0.968981 angstrom
           Maximum rank =  0   Radius =  0.325 angstrom
                   Q00  =   0.059712

H          x = -0.286413  y = -1.214316  z = -0.777019 angstrom
           Maximum rank =  0   Radius =  0.325 angstrom
                   Q00  =   0.065462

H          x = -0.493413  y =  2.002684  z =  2.069981 angstrom
           Maximum rank =  0   Radius =  0.325 angstrom
                   Q00  =   0.065321

H          x =  1.957587  y = -0.479316  z = -1.443019 angstrom
           Maximum rank =  0   Radius =  0.325 angstrom
                   Q00  =   0.053216

H          x =  1.798587  y =  2.703684  z =  1.425981 angstrom
           Maximum rank =  0   Radius =  0.325 angstrom
                   Q00  =   0.058117

H          x =  3.551587  y =  2.615684  z = -0.177019 angstrom
           Maximum rank =  0   Radius =  0.325 angstrom
                   Q00  =   0.097462

H          x =  3.511587  y =  1.453684  z = -1.485019 angstrom
           Maximum rank =  0   Radius =  0.325 angstrom
                   Q00  =   0.097007

H          x =  4.206157  y =  0.977454  z =  0.069431 angstrom
           Maximum rank =  0   Radius =  0.325 angstrom
                   Q00  =   0.102851

C          x = -2.976413  y = -2.388316  z = -0.285019 angstrom
           Maximum rank =  0   Radius =  0.650 angstrom
                   Q00  =  -0.242206

C          x = -4.187413  y = -3.014316  z = -0.946019 angstrom
           Maximum rank =  0   Radius =  0.650 angstrom
                   Q00  =  -0.229424

H          x = -3.252413  y = -1.984316  z =  0.689981 angstrom
           Maximum rank =  0   Radius =  0.325 angstrom
                   Q00  =   0.078565

H          x = -2.197413  y = -3.139316  z = -0.152019 angstrom
           Maximum rank =  0   Radius =  0.325 angstrom
                   Q00  =   0.079382

H          x = -2.581413  y = -1.588316  z = -0.907019 angstrom
           Maximum rank =  0   Radius =  0.325 angstrom
                   Q00  =   0.076669

H          x = -3.887413  y = -3.357316  z = -1.930019 angstrom
           Maximum rank =  0   Radius =  0.325 angstrom
                   Q00  =   0.077164

H          x = -5.020275  y = -2.303808  z = -1.053349 angstrom
           Maximum rank =  0   Radius =  0.325 angstrom
                   Q00  =   0.081297

H          x = -4.522412  y = -3.897104  z = -0.381699 angstrom
           Maximum rank =  0   Radius =  0.325 angstrom
                   Q00  =   0.077855

Total multipoles referred to origin at
           x =   0.000000,  y =    0.000000,  z =    0.000000 angstrom
                   Q00  =  -0.000000

Finished at 19:44:28 on 26 Apr 2020

  DMA results are available in the Python driver through the
	  variable('DMA DISTRIBUTED MULTIPOLES')
  and
	  variable('DMA TOTAL MULTIPOLES')
  commands.

    Psi4 stopped on: Sunday, 26 April 2020 07:44PM
    Psi4 wall time for execution: 0:01:17.73

*** Psi4 exiting successfully. Buy a developer a beer!
