                               Psi4 1.3.2 release

  ==> Input File <==

--------------------------------------------------------------------------
import numpy as np
set {scf_type pk
basis cc-pvdz
d_convergence 10
gdma_switch   0
gdma_limit    0
gdma_origin   [ 0.0,  0.0,  0.0 ]
}
molecule test {
    units Angstrom
    1 1
    --
    1 1
    C               -1.889154173801503    -1.763839457152799    -0.580363876135264
    C               -2.584154173801503    -1.314839457152799    -1.864363876135264
    H               -2.063154173801503    -2.824839457152799    -0.398363876135264
    H               -0.815154173801503    -1.604839457152798    -0.676363876135264
    H               -2.253154173801503    -1.182839457152799     0.269636123864736
    H               -2.271154173801503    -0.295839457152799    -2.093363876135264
    H               -3.676944173801503    -1.321929457152799    -1.738844876135264
    H               -2.278504173801503    -1.970129457152799    -2.693320876135264
    C               -0.457154173801503     1.909160542847201     1.133636123864736
    C                1.239845826198497     0.311160542847201     0.328636123864736
    N                0.341845826198497     1.254160542847201     0.091636123864736
    N                1.461845826198497    -0.092839457152799     1.563636123864736
    N                1.911845826198497    -0.229839457152799    -0.665363876135264
    H                0.182845826198497     1.516160542847201    -0.875363876135264
    H                1.000845826198497     0.378160542847201     2.323636123864736
    H                2.071845826198497    -0.879839457152798     1.732636123864735
    H                1.815845826198497     0.130160542847201    -1.604363876135264
    H                2.581845826198497    -0.964839457152798    -0.497363876135264
    H                0.197845826198497     2.505160542847201     1.744636123864735
    H               -0.993154173801503     1.168160542847201     1.732636123864735
    H               -1.181294173801503     2.625280542847201     0.717964123864736

}
e, wfn = energy('scf', return_wfn=True)
gdma(wfn)
dmavals = variable('DMA DISTRIBUTED MULTIPOLES')
charges = np.array(dmavals)
print(charges)
np.save('SSI-080THR-090ARG-1-dimer.npy', np.array(charges))--------------------------------------------------------------------------

*** tstart() called on ds3
*** at Mon Apr 27 23:26:52 2020

   => Loading Basis Set <=

    Name: CC-PVDZ
    Role: ORBITAL
    Keyword: BASIS
    atoms 1-2, 9-10  entry C          line   138 file /theoryfs2/ds/metcalf/miniconda2/envs/tf2gpu/share/psi4/basis/cc-pvdz.gbs
    atoms 3-8, 14-21 entry H          line    22 file /theoryfs2/ds/metcalf/miniconda2/envs/tf2gpu/share/psi4/basis/cc-pvdz.gbs
    atoms 11-13      entry N          line   168 file /theoryfs2/ds/metcalf/miniconda2/envs/tf2gpu/share/psi4/basis/cc-pvdz.gbs

         ---------------------------------------------------------
                                   SCF
               by Justin Turney, Rob Parrish, Andy Simmonett
                          and Daniel G. A. Smith
                              RHF Reference
                        1 Threads,    500 MiB Core
         ---------------------------------------------------------

  ==> Geometry <==

    Molecular point group: c1
    Full point group: C1

    Geometry (in Angstrom), charge = 1, multiplicity = 1:

       Center              X                  Y                   Z               Mass
    ------------   -----------------  -----------------  -----------------  -----------------
         C           -1.889154173802    -1.763839457153    -0.580363876135    12.000000000000
         C           -2.584154173802    -1.314839457153    -1.864363876135    12.000000000000
         H           -2.063154173802    -2.824839457153    -0.398363876135     1.007825032230
         H           -0.815154173802    -1.604839457153    -0.676363876135     1.007825032230
         H           -2.253154173802    -1.182839457153     0.269636123865     1.007825032230
         H           -2.271154173802    -0.295839457153    -2.093363876135     1.007825032230
         H           -3.676944173802    -1.321929457153    -1.738844876135     1.007825032230
         H           -2.278504173802    -1.970129457153    -2.693320876135     1.007825032230
         C           -0.457154173802     1.909160542847     1.133636123865    12.000000000000
         C            1.239845826198     0.311160542847     0.328636123865    12.000000000000
         N            0.341845826198     1.254160542847     0.091636123865    14.003074004430
         N            1.461845826198    -0.092839457153     1.563636123865    14.003074004430
         N            1.911845826198    -0.229839457153    -0.665363876135    14.003074004430
         H            0.182845826198     1.516160542847    -0.875363876135     1.007825032230
         H            1.000845826198     0.378160542847     2.323636123865     1.007825032230
         H            2.071845826198    -0.879839457153     1.732636123865     1.007825032230
         H            1.815845826198     0.130160542847    -1.604363876135     1.007825032230
         H            2.581845826198    -0.964839457153    -0.497363876135     1.007825032230
         H            0.197845826198     2.505160542847     1.744636123865     1.007825032230
         H           -0.993154173802     1.168160542847     1.732636123865     1.007825032230
         H           -1.181294173802     2.625280542847     0.717964123865     1.007825032230

  Running in c1 symmetry.

  Rotational constants: A =      0.09050  B =      0.03746  C =      0.03240 [cm^-1]
  Rotational constants: A =   2713.18364  B =   1122.89559  C =    971.21062 [MHz]
  Nuclear repulsion =  324.331768476189950

  Charge       = 1
  Multiplicity = 1
  Electrons    = 58
  Nalpha       = 29
  Nbeta        = 29

  ==> Algorithm <==

  SCF Algorithm Type is PK.
  DIIS enabled.
  MOM disabled.
  Fractional occupation disabled.
  Guess Type is SAD.
  Energy threshold   = 1.00e-06
  Density threshold  = 1.00e-10
  Integral threshold = 0.00e+00

  ==> Primary Basis <==

  Basis Set: CC-PVDZ
    Blend: CC-PVDZ
    Number of shells: 84
    Number of basis function: 168
    Number of Cartesian functions: 175
    Spherical Harmonics?: true
    Max angular momentum: 2

  ==> Pre-Iterations <==

   -------------------------------------------------------
    Irrep   Nso     Nmo     Nalpha   Nbeta   Ndocc  Nsocc
   -------------------------------------------------------
     A        168     168       0       0       0       0
   -------------------------------------------------------
    Total     168     168      29      29      29       0
   -------------------------------------------------------

  ==> Integral Setup <==

  Using integral reordering PK algorithm.
  Sizing the integral batches needed.
  Building batch lookup table.
   Calculation information:
      Number of atoms:                  21
      Number of AO shells:              84
      Number of primitives:            224
      Number of atomic orbitals:       175
      Number of basis functions:       168

      Integral cutoff                 1.00e-12
      Number of threads:                 1

	Batch   1 pq = [       0,    9405] index = [             0,44231715] size =     44231715
	Batch   2 pq = [    9405,   13301] index = [      44231715,88464951] size =     44233236
	Batch   3 pq = [   13301,   14196] index = [      88464951,100770306] size =     12305355
  Task number: 10
  Buffer size: 11059200
  Buffer per thread: 2
  We computed 5987634 shell quartets total.
  Whereas there are 6374235 unique shell quartets.

  ==> DiskJK: Disk-Based J/K Matrices <==

    J tasked:                  Yes
    K tasked:                  Yes
    wK tasked:                  No
    Memory [MiB]:              375
    Schwarz Cutoff:          1E-12

    OpenMP threads:              1

  Minimum eigenvalue in the overlap matrix is 3.3932188138E-03.
  Using Symmetric Orthogonalization.

  SCF Guess: Superposition of Atomic Densities via on-the-fly atomic UHF.

  ==> Iterations <==

                        Total Energy        Delta E     RMS |[F,P]|

   @RHF iter SAD:  -322.12558995207894   -3.22126e+02   0.00000e+00
   @RHF iter   1:  -322.61645504551223   -4.90865e-01   3.42088e-03 DIIS
   @RHF iter   2:  -322.78825181318030   -1.71797e-01   1.35050e-03 DIIS
   @RHF iter   3:  -322.81373826057842   -2.54864e-02   3.18980e-04 DIIS
   @RHF iter   4:  -322.81615144190158   -2.41318e-03   5.00392e-05 DIIS
   @RHF iter   5:  -322.81621374900612   -6.23071e-05   2.04831e-05 DIIS
   @RHF iter   6:  -322.81622228509764   -8.53609e-06   4.14259e-06 DIIS
   @RHF iter   7:  -322.81622289165801   -6.06560e-07   1.36857e-06 DIIS
   @RHF iter   8:  -322.81622293513811   -4.34801e-08   3.97828e-07 DIIS
   @RHF iter   9:  -322.81622293911022   -3.97210e-09   9.75353e-08 DIIS
   @RHF iter  10:  -322.81622293936164   -2.51418e-10   2.77762e-08 DIIS
   @RHF iter  11:  -322.81622293938534   -2.37037e-11   8.30172e-09 DIIS
   @RHF iter  12:  -322.81622293938824   -2.89901e-12   2.47457e-09 DIIS
   @RHF iter  13:  -322.81622293938557    2.67164e-12   7.29301e-10 DIIS
   @RHF iter  14:  -322.81622293938813   -2.55795e-12   2.49357e-10 DIIS
   @RHF iter  15:  -322.81622293938642    1.70530e-12   6.51775e-11 DIIS
  Energy and wave function converged.

  ==> Post-Iterations <==

    Orbital Energies [Eh]
    ---------------------

    Doubly Occupied:

       1A    -15.789639     2A    -15.789063     3A    -15.787212
       4A    -11.589864     5A    -11.441690     6A    -11.328681
       7A    -11.322424     8A     -1.548284     9A     -1.403227
      10A     -1.393821    11A     -1.143752    12A     -1.126268
      13A     -1.039306    14A     -0.981254    15A     -0.943533
      16A     -0.942371    17A     -0.861122    18A     -0.858608
      19A     -0.829121    20A     -0.797625    21A     -0.749027
      22A     -0.718959    23A     -0.706210    24A     -0.705099
      25A     -0.619325    26A     -0.606986    27A     -0.593393
      28A     -0.591666    29A     -0.587886

    Virtual:

      30A     -0.015633    31A      0.022772    32A      0.024797
      33A      0.027277    34A      0.060029    35A      0.071130
      36A      0.093220    37A      0.114150    38A      0.119801
      39A      0.122631    40A      0.139952    41A      0.154941
      42A      0.170455    43A      0.184244    44A      0.191436
      45A      0.209396    46A      0.286950    47A      0.292080
      48A      0.327082    49A      0.338899    50A      0.438413
      51A      0.459953    52A      0.485055    53A      0.491064
      54A      0.501880    55A      0.511526    56A      0.524121
      57A      0.529712    58A      0.547829    59A      0.556956
      60A      0.568931    61A      0.587811    62A      0.673237
      63A      0.691912    64A      0.694930    65A      0.709846
      66A      0.722438    67A      0.735898    68A      0.748572
      69A      0.749151    70A      0.767913    71A      0.789168
      72A      0.793645    73A      0.797914    74A      0.802235
      75A      0.812909    76A      0.833988    77A      0.863725
      78A      0.866364    79A      0.898057    80A      0.910829
      81A      0.938064    82A      0.943761    83A      0.990539
      84A      1.018095    85A      1.024420    86A      1.047282
      87A      1.096269    88A      1.127595    89A      1.136367
      90A      1.160992    91A      1.195141    92A      1.206213
      93A      1.231593    94A      1.286370    95A      1.366314
      96A      1.378084    97A      1.403185    98A      1.443251
      99A      1.480683   100A      1.506298   101A      1.526807
     102A      1.528621   103A      1.545611   104A      1.581250
     105A      1.602165   106A      1.625588   107A      1.655970
     108A      1.681479   109A      1.722155   110A      1.731254
     111A      1.743056   112A      1.750580   113A      1.771805
     114A      1.777140   115A      1.784291   116A      1.798698
     117A      1.802049   118A      1.834270   119A      1.839651
     120A      1.842122   121A      1.851350   122A      1.857344
     123A      1.871253   124A      1.877877   125A      1.892904
     126A      2.002968   127A      2.009627   128A      2.014454
     129A      2.035327   130A      2.084207   131A      2.096726
     132A      2.135159   133A      2.176759   134A      2.190613
     135A      2.202911   136A      2.241814   137A      2.261685
     138A      2.292422   139A      2.318762   140A      2.321758
     141A      2.346667   142A      2.362409   143A      2.369243
     144A      2.434847   145A      2.458940   146A      2.463017
     147A      2.470625   148A      2.550035   149A      2.584327
     150A      2.613278   151A      2.655522   152A      2.670127
     153A      2.684908   154A      2.696693   155A      2.740807
     156A      2.747602   157A      2.767176   158A      2.786333
     159A      2.820543   160A      2.832916   161A      2.853816
     162A      2.861574   163A      2.888292   164A      3.068492
     165A      3.086437   166A      3.148016   167A      3.567819
     168A      3.647004

    Final Occupation by Irrep:
              A
    DOCC [    29 ]

  @RHF Final Energy:  -322.81622293938642

   => Energetics <=

    Nuclear Repulsion Energy =            324.3317684761899500
    One-Electron Energy =               -1068.7051456782610330
    Two-Electron Energy =                 421.5571542626846622
    Total Energy =                       -322.8162229393864209

Computation Completed

Properties will be evaluated at   0.000000,   0.000000,   0.000000 [a0]

Properties computed using the SCF density matrix

  Nuclear Dipole Moment: [e a0]
     X:    -7.2119      Y:    -2.5545      Z:    -1.9305

  Electronic Dipole Moment: [e a0]
     X:     9.1461      Y:     3.2718      Z:     2.5957

  Dipole Moment: [e a0]
     X:     1.9342      Y:     0.7173      Z:     0.6652     Total:     2.1675

  Dipole Moment: [D]
     X:     4.9163      Y:     1.8232      Z:     1.6907     Total:     5.5093

*** tstop() called on ds3 at Mon Apr 27 23:27:49 2020
Module time:
	user time   =      39.76 seconds =       0.66 minutes
	system time =      19.66 seconds =       0.33 minutes
	total time  =         57 seconds =       0.95 minutes
Total time:
	user time   =      39.76 seconds =       0.66 minutes
	system time =      19.66 seconds =       0.33 minutes
	total time  =         57 seconds =       0.95 minutes
                                     G D M A

                                 by Anthony Stone

                           version 2.2.06, 22 June 2011

               Distributed Multipoles from Gaussian wavefunctions

Starting at 23:27:49 on 27 Apr 2020

Using SCF density matrix from file ./SSI/SSI-080THR-090ARG-1-dimer.test.2848.fchk

                         Distributed Multipole Analysis

Standard DMA

Positions and radii in angstrom
Multipole moments in atomic units, ea_0^k for rank k

C          x = -1.889154  y = -1.763839  z = -0.580364 angstrom
           Maximum rank =  0   Radius =  0.650 angstrom
                   Q00  =  -0.244870

C          x = -2.584154  y = -1.314839  z = -1.864364 angstrom
           Maximum rank =  0   Radius =  0.650 angstrom
                   Q00  =  -0.219874

H          x = -2.063154  y = -2.824839  z = -0.398364 angstrom
           Maximum rank =  0   Radius =  0.325 angstrom
                   Q00  =   0.106311

H          x = -0.815154  y = -1.604839  z = -0.676364 angstrom
           Maximum rank =  0   Radius =  0.325 angstrom
                   Q00  =   0.036785

H          x = -2.253154  y = -1.182839  z =  0.269636 angstrom
           Maximum rank =  0   Radius =  0.325 angstrom
                   Q00  =   0.071978

H          x = -2.271154  y = -0.295839  z = -2.093364 angstrom
           Maximum rank =  0   Radius =  0.325 angstrom
                   Q00  =   0.052211

H          x = -3.676944  y = -1.321929  z = -1.738845 angstrom
           Maximum rank =  0   Radius =  0.325 angstrom
                   Q00  =   0.104078

H          x = -2.278504  y = -1.970129  z = -2.693321 angstrom
           Maximum rank =  0   Radius =  0.325 angstrom
                   Q00  =   0.093101

C          x = -0.457154  y =  1.909161  z =  1.133636 angstrom
           Maximum rank =  0   Radius =  0.650 angstrom
                   Q00  =  -0.130348

C          x =  1.239846  y =  0.311161  z =  0.328636 angstrom
           Maximum rank =  0   Radius =  0.650 angstrom
                   Q00  =   1.081763

N          x =  0.341846  y =  1.254161  z =  0.091636 angstrom
           Maximum rank =  0   Radius =  0.650 angstrom
                   Q00  =  -0.493796

N          x =  1.461846  y = -0.092839  z =  1.563636 angstrom
           Maximum rank =  0   Radius =  0.650 angstrom
                   Q00  =  -0.585453

N          x =  1.911846  y = -0.229839  z = -0.665364 angstrom
           Maximum rank =  0   Radius =  0.650 angstrom
                   Q00  =  -0.593515

H          x =  0.182846  y =  1.516161  z = -0.875364 angstrom
           Maximum rank =  0   Radius =  0.325 angstrom
                   Q00  =   0.237980

H          x =  1.000846  y =  0.378161  z =  2.323636 angstrom
           Maximum rank =  0   Radius =  0.325 angstrom
                   Q00  =   0.274373

H          x =  2.071846  y = -0.879839  z =  1.732636 angstrom
           Maximum rank =  0   Radius =  0.325 angstrom
                   Q00  =   0.270287

H          x =  1.815846  y =  0.130161  z = -1.604364 angstrom
           Maximum rank =  0   Radius =  0.325 angstrom
                   Q00  =   0.267758

H          x =  2.581846  y = -0.964839  z = -0.497364 angstrom
           Maximum rank =  0   Radius =  0.325 angstrom
                   Q00  =   0.267604

H          x =  0.197846  y =  2.505161  z =  1.744636 angstrom
           Maximum rank =  0   Radius =  0.325 angstrom
                   Q00  =   0.117196

H          x = -0.993154  y =  1.168161  z =  1.732636 angstrom
           Maximum rank =  0   Radius =  0.325 angstrom
                   Q00  =   0.117031

H          x = -1.181294  y =  2.625281  z =  0.717964 angstrom
           Maximum rank =  0   Radius =  0.325 angstrom
                   Q00  =   0.169399

Total multipoles referred to origin at
           x =   0.000000,  y =    0.000000,  z =    0.000000 angstrom
                   Q00  =   1.000000

Finished at 23:27:49 on 27 Apr 2020

  DMA results are available in the Python driver through the
	  variable('DMA DISTRIBUTED MULTIPOLES')
  and
	  variable('DMA TOTAL MULTIPOLES')
  commands.

    Psi4 stopped on: Monday, 27 April 2020 11:27PM
    Psi4 wall time for execution: 0:00:57.40

*** Psi4 exiting successfully. Buy a developer a beer!
