                               Psi4 1.3.2 release

  ==> Input File <==

--------------------------------------------------------------------------
import numpy as np
set {scf_type pk
basis cc-pvdz
d_convergence 10
gdma_switch   0
gdma_limit    0
gdma_origin   [ 0.0,  0.0,  0.0 ]
}
molecule test {
    units Angstrom
    0 1
    --
    0 1
    C                0.460389476254301     0.928248047170358    -0.588602377837259
    C                0.584389476254301     1.295248047170358    -3.082602377837259
    S               -0.338610523745699     0.386248047170358    -1.876602377837259
    H                0.309389476254301     2.003248047170358    -0.478602377837259
    H                0.081389476254301     0.432248047170358     0.294397622162741
    H                1.526389476254300     0.715248047170359    -0.667602377837259
    H                0.880389476254301     2.253248047170358    -2.651602377837259
    H               -0.061610523745699     1.532248047170358    -3.924602377837259
    H                1.494699476254300     0.750655147170359    -3.373732377837259
    C               -0.603610523745699    -0.740751952829642     2.583397622162741
    C               -0.532610523745699    -2.041751952829642     1.781397622162741
    O                0.680389476254301    -0.371751952829642     3.048397622162741
    H               -1.011610523745699     0.059248047170358     1.966397622162741
    H               -1.272610523745699    -0.873751952829641     3.436397622162741
    H                0.228389476254301    -1.933751952829642     1.007397622162741
    H                0.600389476254301     0.464248047170358     3.535397622162741
    H               -1.505420523745699    -2.232838952829642     1.304817622162741
    H               -0.237250523745699    -2.867332952829642     2.445607622162741

}
e, wfn = energy('scf', return_wfn=True)
gdma(wfn)
dmavals = variable('DMA DISTRIBUTED MULTIPOLES')
charges = np.array(dmavals)
print(charges)
np.save('SSI-119MET-144SER-1-dimer.npy', np.array(charges))--------------------------------------------------------------------------

*** tstart() called on ds3
*** at Mon Apr 27 07:42:27 2020

   => Loading Basis Set <=

    Name: CC-PVDZ
    Role: ORBITAL
    Keyword: BASIS
    atoms 1-2, 10-11 entry C          line   138 file /theoryfs2/ds/metcalf/miniconda2/envs/tf2gpu/share/psi4/basis/cc-pvdz.gbs
    atoms 3          entry S          line   598 file /theoryfs2/ds/metcalf/miniconda2/envs/tf2gpu/share/psi4/basis/cc-pvdz.gbs
    atoms 4-9, 13-18 entry H          line    22 file /theoryfs2/ds/metcalf/miniconda2/envs/tf2gpu/share/psi4/basis/cc-pvdz.gbs
    atoms 12         entry O          line   198 file /theoryfs2/ds/metcalf/miniconda2/envs/tf2gpu/share/psi4/basis/cc-pvdz.gbs

         ---------------------------------------------------------
                                   SCF
               by Justin Turney, Rob Parrish, Andy Simmonett
                          and Daniel G. A. Smith
                              RHF Reference
                        1 Threads,    500 MiB Core
         ---------------------------------------------------------

  ==> Geometry <==

    Molecular point group: c1
    Full point group: C1

    Geometry (in Angstrom), charge = 0, multiplicity = 1:

       Center              X                  Y                   Z               Mass
    ------------   -----------------  -----------------  -----------------  -----------------
         C            0.460389476254     0.928248047170    -0.588602377837    12.000000000000
         C            0.584389476254     1.295248047170    -3.082602377837    12.000000000000
         S           -0.338610523746     0.386248047170    -1.876602377837    31.972071174400
         H            0.309389476254     2.003248047170    -0.478602377837     1.007825032230
         H            0.081389476254     0.432248047170     0.294397622163     1.007825032230
         H            1.526389476254     0.715248047170    -0.667602377837     1.007825032230
         H            0.880389476254     2.253248047170    -2.651602377837     1.007825032230
         H           -0.061610523746     1.532248047170    -3.924602377837     1.007825032230
         H            1.494699476254     0.750655147170    -3.373732377837     1.007825032230
         C           -0.603610523746    -0.740751952830     2.583397622163    12.000000000000
         C           -0.532610523746    -2.041751952830     1.781397622163    12.000000000000
         O            0.680389476254    -0.371751952830     3.048397622163    15.994914619570
         H           -1.011610523746     0.059248047170     1.966397622163     1.007825032230
         H           -1.272610523746    -0.873751952830     3.436397622163     1.007825032230
         H            0.228389476254    -1.933751952830     1.007397622163     1.007825032230
         H            0.600389476254     0.464248047170     3.535397622163     1.007825032230
         H           -1.505420523746    -2.232838952830     1.304817622163     1.007825032230
         H           -0.237250523746    -2.867332952830     2.445607622163     1.007825032230

  Running in c1 symmetry.

  Rotational constants: A =      0.18951  B =      0.02560  C =      0.02360 [cm^-1]
  Rotational constants: A =   5681.22741  B =    767.40030  C =    707.49166 [MHz]
  Nuclear repulsion =  297.944532882337512

  Charge       = 0
  Multiplicity = 1
  Electrons    = 60
  Nalpha       = 30
  Nbeta        = 30

  ==> Algorithm <==

  SCF Algorithm Type is PK.
  DIIS enabled.
  MOM disabled.
  Fractional occupation disabled.
  Guess Type is SAD.
  Energy threshold   = 1.00e-06
  Density threshold  = 1.00e-10
  Integral threshold = 0.00e+00

  ==> Primary Basis <==

  Basis Set: CC-PVDZ
    Blend: CC-PVDZ
    Number of shells: 74
    Number of basis function: 148
    Number of Cartesian functions: 154
    Spherical Harmonics?: true
    Max angular momentum: 2

  ==> Pre-Iterations <==

   -------------------------------------------------------
    Irrep   Nso     Nmo     Nalpha   Nbeta   Ndocc  Nsocc
   -------------------------------------------------------
     A        148     148       0       0       0       0
   -------------------------------------------------------
    Total     148     148      30      30      30       0
   -------------------------------------------------------

  ==> Integral Setup <==

  Using integral reordering PK algorithm.
  Sizing the integral batches needed.
  Building batch lookup table.
   Calculation information:
      Number of atoms:                  18
      Number of AO shells:              74
      Number of primitives:            220
      Number of atomic orbitals:       154
      Number of basis functions:       148

      Integral cutoff                 1.00e-12
      Number of threads:                 1

	Batch   1 pq = [       0,    9405] index = [             0,44231715] size =     44231715
	Batch   2 pq = [    9405,   11026] index = [      44231715,60791851] size =     16560136
  Task number: 6
  Buffer size: 11059200
  Buffer per thread: 2
  We computed 3148198 shell quartets total.
  Whereas there are 3851700 unique shell quartets.

  ==> DiskJK: Disk-Based J/K Matrices <==

    J tasked:                  Yes
    K tasked:                  Yes
    wK tasked:                  No
    Memory [MiB]:              375
    Schwarz Cutoff:          1E-12

    OpenMP threads:              1

  Minimum eigenvalue in the overlap matrix is 5.5359924475E-03.
  Using Symmetric Orthogonalization.

  SCF Guess: Superposition of Atomic Densities via on-the-fly atomic UHF.

  ==> Iterations <==

                        Total Energy        Delta E     RMS |[F,P]|

   @RHF iter SAD:  -630.09514013916350   -6.30095e+02   0.00000e+00
   @RHF iter   1:  -630.64374356777887   -5.48603e-01   3.58717e-03 DIIS
   @RHF iter   2:  -630.78976041918634   -1.46017e-01   1.64998e-03 DIIS
   @RHF iter   3:  -630.81576707726072   -2.60067e-02   3.62615e-04 DIIS
   @RHF iter   4:  -630.81809365829747   -2.32658e-03   1.02843e-04 DIIS
   @RHF iter   5:  -630.81823001004147   -1.36352e-04   2.26680e-05 DIIS
   @RHF iter   6:  -630.81823883809761   -8.82806e-06   4.65584e-06 DIIS
   @RHF iter   7:  -630.81823935403099   -5.15933e-07   1.15917e-06 DIIS
   @RHF iter   8:  -630.81823938866535   -3.46344e-08   3.89286e-07 DIIS
   @RHF iter   9:  -630.81823939228389   -3.61854e-09   9.12651e-08 DIIS
   @RHF iter  10:  -630.81823939252558   -2.41698e-10   2.30746e-08 DIIS
   @RHF iter  11:  -630.81823939254173   -1.61435e-11   6.39364e-09 DIIS
   @RHF iter  12:  -630.81823939254161    1.13687e-13   2.23700e-09 DIIS
   @RHF iter  13:  -630.81823939254400   -2.38742e-12   7.44349e-10 DIIS
   @RHF iter  14:  -630.81823939254252    1.47793e-12   2.45771e-10 DIIS
   @RHF iter  15:  -630.81823939254264   -1.13687e-13   8.92496e-11 DIIS
  Energy and wave function converged.

  ==> Post-Iterations <==

    Orbital Energies [Eh]
    ---------------------

    Doubly Occupied:

       1A    -91.921194     2A    -20.551569     3A    -11.277129
       4A    -11.249387     5A    -11.235054     6A    -11.222663
       7A     -8.931609     8A     -6.614104     9A     -6.612108
      10A     -6.609547    11A     -1.354172    12A     -1.111060
      13A     -1.008720    14A     -0.955179    15A     -0.833514
      16A     -0.796426    17A     -0.693452    18A     -0.651093
      19A     -0.618222    20A     -0.614570    21A     -0.577027
      22A     -0.568327    23A     -0.559771    24A     -0.534905
      25A     -0.524541    26A     -0.501271    27A     -0.478389
      28A     -0.437462    29A     -0.431225    30A     -0.321084

    Virtual:

      31A      0.169999    32A      0.186239    33A      0.198749
      34A      0.216979    35A      0.237565    36A      0.240684
      37A      0.250749    38A      0.258474    39A      0.272988
      40A      0.277313    41A      0.286118    42A      0.295230
      43A      0.323730    44A      0.339813    45A      0.383485
      46A      0.420635    47A      0.550289    48A      0.553326
      49A      0.583659    50A      0.605575    51A      0.612676
      52A      0.637283    53A      0.661826    54A      0.677064
      55A      0.714670    56A      0.715546    57A      0.748141
      58A      0.762702    59A      0.787867    60A      0.810625
      61A      0.823820    62A      0.839582    63A      0.854347
      64A      0.864291    65A      0.872019    66A      0.876574
      67A      0.887616    68A      0.896081    69A      0.901919
      70A      0.903290    71A      0.908650    72A      0.931009
      73A      0.940496    74A      0.960344    75A      0.968104
      76A      0.984625    77A      1.097297    78A      1.125434
      79A      1.151048    80A      1.176594    81A      1.248568
      82A      1.263008    83A      1.317835    84A      1.318715
      85A      1.375291    86A      1.396004    87A      1.411013
      88A      1.430101    89A      1.448226    90A      1.477322
      91A      1.522369    92A      1.542458    93A      1.563737
      94A      1.575957    95A      1.605620    96A      1.676836
      97A      1.680450    98A      1.694009    99A      1.786678
     100A      1.867941   101A      1.871987   102A      1.883399
     103A      1.892269   104A      1.901888   105A      1.909028
     106A      1.919083   107A      1.934909   108A      1.952358
     109A      1.959016   110A      1.981653   111A      1.989099
     112A      2.002783   113A      2.018029   114A      2.030527
     115A      2.053443   116A      2.085700   117A      2.113275
     118A      2.144158   119A      2.208954   120A      2.236453
     121A      2.254237   122A      2.270710   123A      2.297424
     124A      2.303375   125A      2.419190   126A      2.430489
     127A      2.446553   128A      2.469151   129A      2.499102
     130A      2.520848   131A      2.553742   132A      2.593475
     133A      2.743896   134A      2.753682   135A      2.763701
     136A      2.774523   137A      2.783515   138A      2.786639
     139A      2.797226   140A      2.827321   141A      2.883609
     142A      2.950626   143A      2.972475   144A      3.326529
     145A      3.410843   146A      3.464150   147A      3.623232
     148A      4.103069

    Final Occupation by Irrep:
              A
    DOCC [    30 ]

  @RHF Final Energy:  -630.81823939254264

   => Energetics <=

    Nuclear Repulsion Energy =            297.9445328823375121
    One-Electron Energy =               -1457.9359958033451221
    Two-Electron Energy =                 529.1732235284648596
    Total Energy =                       -630.8182393925426368

Computation Completed

Properties will be evaluated at   0.000000,   0.000000,   0.000000 [a0]

Properties computed using the SCF density matrix

  Nuclear Dipole Moment: [e a0]
     X:     0.9623      Y:     0.2922      Z:     2.6784

  Electronic Dipole Moment: [e a0]
     X:    -1.0434      Y:     0.4259      Z:    -2.4699

  Dipole Moment: [e a0]
     X:    -0.0811      Y:     0.7181      Z:     0.2085     Total:     0.7522

  Dipole Moment: [D]
     X:    -0.2062      Y:     1.8253      Z:     0.5299     Total:     1.9118

*** tstop() called on ds3 at Mon Apr 27 07:43:00 2020
Module time:
	user time   =      24.87 seconds =       0.41 minutes
	system time =       8.62 seconds =       0.14 minutes
	total time  =         33 seconds =       0.55 minutes
Total time:
	user time   =      24.87 seconds =       0.41 minutes
	system time =       8.62 seconds =       0.14 minutes
	total time  =         33 seconds =       0.55 minutes
                                     G D M A

                                 by Anthony Stone

                           version 2.2.06, 22 June 2011

               Distributed Multipoles from Gaussian wavefunctions

Starting at 7:43:0 on 27 Apr 2020

Using SCF density matrix from file ./SSI/SSI-119MET-144SER-1-dimer.test.32490.fchk

                         Distributed Multipole Analysis

Standard DMA

Positions and radii in angstrom
Multipole moments in atomic units, ea_0^k for rank k

C          x =  0.460389  y =  0.928248  z = -0.588602 angstrom
           Maximum rank =  0   Radius =  0.650 angstrom
                   Q00  =  -0.299393

C          x =  0.584389  y =  1.295248  z = -3.082602 angstrom
           Maximum rank =  0   Radius =  0.650 angstrom
                   Q00  =  -0.359758

S          x = -0.338611  y =  0.386248  z = -1.876602 angstrom
           Maximum rank =  0   Radius =  0.650 angstrom
                   Q00  =   0.167436

H          x =  0.309389  y =  2.003248  z = -0.478602 angstrom
           Maximum rank =  0   Radius =  0.325 angstrom
                   Q00  =   0.045048

H          x =  0.081389  y =  0.432248  z =  0.294398 angstrom
           Maximum rank =  0   Radius =  0.325 angstrom
                   Q00  =   0.100432

H          x =  1.526389  y =  0.715248  z = -0.667602 angstrom
           Maximum rank =  0   Radius =  0.325 angstrom
                   Q00  =   0.053826

H          x =  0.880389  y =  2.253248  z = -2.651602 angstrom
           Maximum rank =  0   Radius =  0.325 angstrom
                   Q00  =   0.082025

H          x = -0.061611  y =  1.532248  z = -3.924602 angstrom
           Maximum rank =  0   Radius =  0.325 angstrom
                   Q00  =   0.112861

H          x =  1.494699  y =  0.750655  z = -3.373732 angstrom
           Maximum rank =  0   Radius =  0.325 angstrom
                   Q00  =   0.088138

C          x = -0.603611  y = -0.740752  z =  2.583398 angstrom
           Maximum rank =  0   Radius =  0.650 angstrom
                   Q00  =   0.089832

C          x = -0.532611  y = -2.041752  z =  1.781398 angstrom
           Maximum rank =  0   Radius =  0.650 angstrom
                   Q00  =  -0.227031

O          x =  0.680389  y = -0.371752  z =  3.048398 angstrom
           Maximum rank =  0   Radius =  0.650 angstrom
                   Q00  =  -0.584631

H          x = -1.011611  y =  0.059248  z =  1.966398 angstrom
           Maximum rank =  0   Radius =  0.325 angstrom
                   Q00  =   0.013132

H          x = -1.272611  y = -0.873752  z =  3.436398 angstrom
           Maximum rank =  0   Radius =  0.325 angstrom
                   Q00  =   0.049792

H          x =  0.228389  y = -1.933752  z =  1.007398 angstrom
           Maximum rank =  0   Radius =  0.325 angstrom
                   Q00  =   0.094821

H          x =  0.600389  y =  0.464248  z =  3.535398 angstrom
           Maximum rank =  0   Radius =  0.325 angstrom
                   Q00  =   0.390311

H          x = -1.505421  y = -2.232839  z =  1.304818 angstrom
           Maximum rank =  0   Radius =  0.325 angstrom
                   Q00  =   0.090084

H          x = -0.237251  y = -2.867333  z =  2.445608 angstrom
           Maximum rank =  0   Radius =  0.325 angstrom
                   Q00  =   0.093075

Total multipoles referred to origin at
           x =   0.000000,  y =    0.000000,  z =    0.000000 angstrom
                   Q00  =  -0.000000

Finished at 7:43:0 on 27 Apr 2020

  DMA results are available in the Python driver through the
	  variable('DMA DISTRIBUTED MULTIPOLES')
  and
	  variable('DMA TOTAL MULTIPOLES')
  commands.

    Psi4 stopped on: Monday, 27 April 2020 07:43AM
    Psi4 wall time for execution: 0:00:32.99

*** Psi4 exiting successfully. Buy a developer a beer!
