                               Psi4 1.3.2 release

  ==> Input File <==

--------------------------------------------------------------------------
import numpy as np
set {scf_type pk
basis cc-pvdz
d_convergence 10
gdma_switch   0
gdma_limit    0
gdma_origin   [ 0.0,  0.0,  0.0 ]
}
molecule test {
    units Angstrom
    0 1
    --
    0 1
    C                1.175838919609356    -0.826544955022455     1.832845961246732
    C                1.030838919609356    -0.202544955022455     3.251845961246732
    H                2.159838919609356    -1.284544955022455     1.725845961246732
    H                0.402838919609356    -1.579544955022455     1.677845961246732
    H                1.058838919609356    -0.043544955022455     1.083845961246732
    H                0.043838919609356     0.242455044977545     3.316845961246733
    H                1.781268919609356     0.586330044977545     3.408485961246733
    H                1.115738919609356    -0.956527955022455     4.048275961246732
    C               -0.821161080390644     0.113455044977545    -1.107154038753268
    C               -1.880161080390644     0.326455044977545    -2.182154038753268
    C                0.441838919609356     0.593455044977545    -1.855154038753268
    H               -0.736161080390644    -0.947544955022455    -0.864154038753268
    H               -1.019161080390644     0.705455044977545    -0.214154038753268
    H               -2.725161080390644    -0.344544955022455    -2.015154038753268
    H               -2.212161080390644     1.364455044977545    -2.185154038753268
    H                1.354838919609356     0.232455044977545    -1.379154038753268
    H                0.453838919609356     1.683455044977546    -1.895154038753268
    H               -1.362701080390644     0.101011044977545    -3.126297038753267
    H                0.313048919609356     0.189732044977545    -2.870251038753267

}
e, wfn = energy('scf', return_wfn=True)
gdma(wfn)
dmavals = variable('DMA DISTRIBUTED MULTIPOLES')
charges = np.array(dmavals)
print(charges)
np.save('SSI-025LEU-060PRO-1-dimer.npy', np.array(charges))--------------------------------------------------------------------------

*** tstart() called on ds3
*** at Mon Apr 27 13:06:05 2020

   => Loading Basis Set <=

    Name: CC-PVDZ
    Role: ORBITAL
    Keyword: BASIS
    atoms 1-2, 9-11  entry C          line   138 file /theoryfs2/ds/metcalf/miniconda2/envs/tf2gpu/share/psi4/basis/cc-pvdz.gbs
    atoms 3-8, 12-19 entry H          line    22 file /theoryfs2/ds/metcalf/miniconda2/envs/tf2gpu/share/psi4/basis/cc-pvdz.gbs

         ---------------------------------------------------------
                                   SCF
               by Justin Turney, Rob Parrish, Andy Simmonett
                          and Daniel G. A. Smith
                              RHF Reference
                        1 Threads,    500 MiB Core
         ---------------------------------------------------------

  ==> Geometry <==

    Molecular point group: c1
    Full point group: C1

    Geometry (in Angstrom), charge = 0, multiplicity = 1:

       Center              X                  Y                   Z               Mass
    ------------   -----------------  -----------------  -----------------  -----------------
         C            1.175838919609    -0.826544955022     1.832845961247    12.000000000000
         C            1.030838919609    -0.202544955022     3.251845961247    12.000000000000
         H            2.159838919609    -1.284544955022     1.725845961247     1.007825032230
         H            0.402838919609    -1.579544955022     1.677845961247     1.007825032230
         H            1.058838919609    -0.043544955022     1.083845961247     1.007825032230
         H            0.043838919609     0.242455044978     3.316845961247     1.007825032230
         H            1.781268919609     0.586330044978     3.408485961247     1.007825032230
         H            1.115738919609    -0.956527955022     4.048275961247     1.007825032230
         C           -0.821161080391     0.113455044978    -1.107154038753    12.000000000000
         C           -1.880161080391     0.326455044978    -2.182154038753    12.000000000000
         C            0.441838919609     0.593455044978    -1.855154038753    12.000000000000
         H           -0.736161080391    -0.947544955022    -0.864154038753     1.007825032230
         H           -1.019161080391     0.705455044978    -0.214154038753     1.007825032230
         H           -2.725161080391    -0.344544955022    -2.015154038753     1.007825032230
         H           -2.212161080391     1.364455044978    -2.185154038753     1.007825032230
         H            1.354838919609     0.232455044978    -1.379154038753     1.007825032230
         H            0.453838919609     1.683455044978    -1.895154038753     1.007825032230
         H           -1.362701080391     0.101011044978    -3.126297038753     1.007825032230
         H            0.313048919609     0.189732044978    -2.870251038753     1.007825032230

  Running in c1 symmetry.

  Rotational constants: A =      0.28093  B =      0.03728  C =      0.03499 [cm^-1]
  Rotational constants: A =   8422.12146  B =   1117.65129  C =   1048.96957 [MHz]
  Nuclear repulsion =  178.337175853862163

  Charge       = 0
  Multiplicity = 1
  Electrons    = 44
  Nalpha       = 22
  Nbeta        = 22

  ==> Algorithm <==

  SCF Algorithm Type is PK.
  DIIS enabled.
  MOM disabled.
  Fractional occupation disabled.
  Guess Type is SAD.
  Energy threshold   = 1.00e-06
  Density threshold  = 1.00e-10
  Integral threshold = 0.00e+00

  ==> Primary Basis <==

  Basis Set: CC-PVDZ
    Blend: CC-PVDZ
    Number of shells: 72
    Number of basis function: 140
    Number of Cartesian functions: 145
    Spherical Harmonics?: true
    Max angular momentum: 2

  ==> Pre-Iterations <==

   -------------------------------------------------------
    Irrep   Nso     Nmo     Nalpha   Nbeta   Ndocc  Nsocc
   -------------------------------------------------------
     A        140     140       0       0       0       0
   -------------------------------------------------------
    Total     140     140      22      22      22       0
   -------------------------------------------------------

  ==> Integral Setup <==

  Using integral reordering PK algorithm.
  Sizing the integral batches needed.
  Building batch lookup table.
   Calculation information:
      Number of atoms:                  19
      Number of AO shells:              72
      Number of primitives:            180
      Number of atomic orbitals:       145
      Number of basis functions:       140

      Integral cutoff                 1.00e-12
      Number of threads:                 1

	Batch   1 pq = [       0,    9405] index = [             0,44231715] size =     44231715
	Batch   2 pq = [    9405,    9870] index = [      44231715,48713385] size =      4481670
  Task number: 5
  Buffer size: 11059200
  Buffer per thread: 2
  We computed 2838464 shell quartets total.
  Whereas there are 3454506 unique shell quartets.

  ==> DiskJK: Disk-Based J/K Matrices <==

    J tasked:                  Yes
    K tasked:                  Yes
    wK tasked:                  No
    Memory [MiB]:              375
    Schwarz Cutoff:          1E-12

    OpenMP threads:              1

  Minimum eigenvalue in the overlap matrix is 5.0604004630E-03.
  Using Symmetric Orthogonalization.

  SCF Guess: Superposition of Atomic Densities via on-the-fly atomic UHF.

  ==> Iterations <==

                        Total Energy        Delta E     RMS |[F,P]|

   @RHF iter SAD:  -196.41957302816468   -1.96420e+02   0.00000e+00
   @RHF iter   1:  -197.29610656503777   -8.76534e-01   3.79304e-03 DIIS
   @RHF iter   2:  -197.45430017917755   -1.58194e-01   1.63998e-03 DIIS
   @RHF iter   3:  -197.48264209656185   -2.83419e-02   3.26654e-04 DIIS
   @RHF iter   4:  -197.48482865570449   -2.18656e-03   4.87360e-05 DIIS
   @RHF iter   5:  -197.48486820640170   -3.95507e-05   1.52117e-05 DIIS
   @RHF iter   6:  -197.48487174242010   -3.53602e-06   2.61006e-06 DIIS
   @RHF iter   7:  -197.48487186690269   -1.24483e-07   4.41572e-07 DIIS
   @RHF iter   8:  -197.48487187104342   -4.14073e-09   8.52102e-08 DIIS
   @RHF iter   9:  -197.48487187120841   -1.64988e-10   2.60823e-08 DIIS
   @RHF iter  10:  -197.48487187122106   -1.26477e-11   7.33845e-09 DIIS
   @RHF iter  11:  -197.48487187122274   -1.67688e-12   1.49968e-09 DIIS
   @RHF iter  12:  -197.48487187122259    1.42109e-13   3.04352e-10 DIIS
   @RHF iter  13:  -197.48487187122237    2.27374e-13   5.37488e-11 DIIS
  Energy and wave function converged.

  ==> Post-Iterations <==

    Orbital Energies [Eh]
    ---------------------

    Doubly Occupied:

       1A    -11.220401     2A    -11.218468     3A    -11.218462
       4A    -11.215107     5A    -11.212944     6A     -1.063056
       7A     -1.011089     8A     -0.910097     9A     -0.839451
      10A     -0.801373    11A     -0.636708    12A     -0.610198
      13A     -0.595131    14A     -0.592978    15A     -0.540276
      16A     -0.510436    17A     -0.495159    18A     -0.489318
      19A     -0.488705    20A     -0.483562    21A     -0.474780
      22A     -0.450716

    Virtual:

      23A      0.174213    24A      0.194868    25A      0.210984
      26A      0.224083    27A      0.231612    28A      0.248530
      29A      0.258758    30A      0.265950    31A      0.278271
      32A      0.291118    33A      0.292614    34A      0.305007
      35A      0.330699    36A      0.350955    37A      0.379920
      38A      0.391395    39A      0.422772    40A      0.561331
      41A      0.581119    42A      0.593557    43A      0.610303
      44A      0.613769    45A      0.627919    46A      0.642897
      47A      0.663719    48A      0.704832    49A      0.761832
      50A      0.787914    51A      0.831825    52A      0.833920
      53A      0.848264    54A      0.874353    55A      0.882342
      56A      0.890667    57A      0.895202    58A      0.900219
      59A      0.902518    60A      0.907681    61A      0.912775
      62A      0.926507    63A      0.932778    64A      0.943778
      65A      0.959351    66A      0.964619    67A      0.975084
      68A      1.023565    69A      1.097010    70A      1.129275
      71A      1.133089    72A      1.144111    73A      1.200821
      74A      1.246781    75A      1.400578    76A      1.444065
      77A      1.462500    78A      1.476235    79A      1.485896
      80A      1.564843    81A      1.619021    82A      1.628540
      83A      1.638962    84A      1.686196    85A      1.698151
      86A      1.736567    87A      1.755037    88A      1.804997
      89A      1.858413    90A      1.861676    91A      1.866668
      92A      1.881550    93A      1.895279    94A      1.910631
      95A      1.919034    96A      1.923087    97A      1.938254
      98A      1.942659    99A      1.948057   100A      1.958137
     101A      1.963257   102A      1.972299   103A      1.999347
     104A      2.003094   105A      2.026795   106A      2.058030
     107A      2.089905   108A      2.122621   109A      2.134777
     110A      2.143031   111A      2.162539   112A      2.240448
     113A      2.295330   114A      2.303520   115A      2.313784
     116A      2.344858   117A      2.433915   118A      2.461931
     119A      2.467511   120A      2.471842   121A      2.503666
     122A      2.546602   123A      2.551408   124A      2.580175
     125A      2.631937   126A      2.687357   127A      2.755378
     128A      2.762616   129A      2.778933   130A      2.793807
     131A      2.798859   132A      2.827915   133A      2.847780
     134A      2.858424   135A      2.888721   136A      2.931454
     137A      2.937654   138A      2.963018   139A      2.967747
     140A      3.038251

    Final Occupation by Irrep:
              A
    DOCC [    22 ]

  @RHF Final Energy:  -197.48487187122237

   => Energetics <=

    Nuclear Repulsion Energy =            178.3371758538621634
    One-Electron Energy =                -617.4872672594212872
    Two-Electron Energy =                 241.6652195343367566
    Total Energy =                       -197.4848718712223672

Computation Completed

Properties will be evaluated at   0.000000,   0.000000,   0.000000 [a0]

Properties computed using the SCF density matrix

  Nuclear Dipole Moment: [e a0]
     X:     0.5894      Y:    -0.0477      Z:     0.6672

  Electronic Dipole Moment: [e a0]
     X:    -0.6060      Y:     0.0493      Z:    -0.6489

  Dipole Moment: [e a0]
     X:    -0.0166      Y:     0.0016      Z:     0.0182     Total:     0.0247

  Dipole Moment: [D]
     X:    -0.0422      Y:     0.0040      Z:     0.0464     Total:     0.0628

*** tstop() called on ds3 at Mon Apr 27 13:06:32 2020
Module time:
	user time   =      18.35 seconds =       0.31 minutes
	system time =       8.39 seconds =       0.14 minutes
	total time  =         27 seconds =       0.45 minutes
Total time:
	user time   =      18.35 seconds =       0.31 minutes
	system time =       8.39 seconds =       0.14 minutes
	total time  =         27 seconds =       0.45 minutes
                                     G D M A

                                 by Anthony Stone

                           version 2.2.06, 22 June 2011

               Distributed Multipoles from Gaussian wavefunctions

Starting at 13:6:32 on 27 Apr 2020

Using SCF density matrix from file ./SSI/SSI-025LEU-060PRO-1-dimer.test.5350.fchk

                         Distributed Multipole Analysis

Standard DMA

Positions and radii in angstrom
Multipole moments in atomic units, ea_0^k for rank k

C          x =  1.175839  y = -0.826545  z =  1.832846 angstrom
           Maximum rank =  0   Radius =  0.650 angstrom
                   Q00  =  -0.244938

C          x =  1.030839  y = -0.202545  z =  3.251846 angstrom
           Maximum rank =  0   Radius =  0.650 angstrom
                   Q00  =  -0.247519

H          x =  2.159839  y = -1.284545  z =  1.725846 angstrom
           Maximum rank =  0   Radius =  0.325 angstrom
                   Q00  =   0.080560

H          x =  0.402839  y = -1.579545  z =  1.677846 angstrom
           Maximum rank =  0   Radius =  0.325 angstrom
                   Q00  =   0.082137

H          x =  1.058839  y = -0.043545  z =  1.083846 angstrom
           Maximum rank =  0   Radius =  0.325 angstrom
                   Q00  =   0.085144

H          x =  0.043839  y =  0.242455  z =  3.316846 angstrom
           Maximum rank =  0   Radius =  0.325 angstrom
                   Q00  =   0.079184

H          x =  1.781269  y =  0.586330  z =  3.408486 angstrom
           Maximum rank =  0   Radius =  0.325 angstrom
                   Q00  =   0.081142

H          x =  1.115739  y = -0.956528  z =  4.048276 angstrom
           Maximum rank =  0   Radius =  0.325 angstrom
                   Q00  =   0.082229

C          x = -0.821161  y =  0.113455  z = -1.107154 angstrom
           Maximum rank =  0   Radius =  0.650 angstrom
                   Q00  =  -0.105865

C          x = -1.880161  y =  0.326455  z = -2.182154 angstrom
           Maximum rank =  0   Radius =  0.650 angstrom
                   Q00  =  -0.229383

C          x =  0.441839  y =  0.593455  z = -1.855154 angstrom
           Maximum rank =  0   Radius =  0.650 angstrom
                   Q00  =  -0.217071

H          x = -0.736161  y = -0.947545  z = -0.864154 angstrom
           Maximum rank =  0   Radius =  0.325 angstrom
                   Q00  =   0.058216

H          x = -1.019161  y =  0.705455  z = -0.214154 angstrom
           Maximum rank =  0   Radius =  0.325 angstrom
                   Q00  =   0.059677

H          x = -2.725161  y = -0.344545  z = -2.015154 angstrom
           Maximum rank =  0   Radius =  0.325 angstrom
                   Q00  =   0.078653

H          x = -2.212161  y =  1.364455  z = -2.185154 angstrom
           Maximum rank =  0   Radius =  0.325 angstrom
                   Q00  =   0.080073

H          x =  1.354839  y =  0.232455  z = -1.379154 angstrom
           Maximum rank =  0   Radius =  0.325 angstrom
                   Q00  =   0.082031

H          x =  0.453839  y =  1.683455  z = -1.895154 angstrom
           Maximum rank =  0   Radius =  0.325 angstrom
                   Q00  =   0.079194

H          x = -1.362701  y =  0.101011  z = -3.126297 angstrom
           Maximum rank =  0   Radius =  0.325 angstrom
                   Q00  =   0.061835

H          x =  0.313049  y =  0.189732  z = -2.870251 angstrom
           Maximum rank =  0   Radius =  0.325 angstrom
                   Q00  =   0.054701

Total multipoles referred to origin at
           x =   0.000000,  y =    0.000000,  z =    0.000000 angstrom
                   Q00  =  -0.000000

Finished at 13:6:32 on 27 Apr 2020

  DMA results are available in the Python driver through the
	  variable('DMA DISTRIBUTED MULTIPOLES')
  and
	  variable('DMA TOTAL MULTIPOLES')
  commands.

    Psi4 stopped on: Monday, 27 April 2020 01:06PM
    Psi4 wall time for execution: 0:00:26.21

*** Psi4 exiting successfully. Buy a developer a beer!
