                               Psi4 1.3.2 release

  ==> Input File <==

--------------------------------------------------------------------------
import numpy as np
set {scf_type pk
basis cc-pvdz
d_convergence 10
gdma_switch   0
gdma_limit    0
gdma_origin   [ 0.0,  0.0,  0.0 ]
}
molecule test {
    units Angstrom
    0 1
    --
    0 1
    C                0.840360399111485    -2.616048558214358     0.314248902930700
    C                0.570360399111485    -4.047048558214358    -0.037751097069300
    C                1.295360399111485    -2.632048558214358     1.752248902930700
    H               -0.088639600888515    -2.057048558214358     0.231248902930700
    H                1.597360399111485    -2.179048558214358    -0.332751097069300
    H               -0.309639600888515    -4.119048558214358    -0.677751097069300
    H                1.444360399111485    -4.465048558214358    -0.539751097069300
    H                1.041360399111485    -1.707048558214358     2.265248902930700
    H                2.376360399111485    -2.778048558214358     1.777248902930700
    H                0.417900399111485    -4.551498558214359     0.927798902930700
    H                0.810460399111485    -3.509618558214358     2.204728902930700
    C               -2.664639600888515    -0.403048558214358     0.381248902930700
    C               -0.446639600888515     0.603951441785642     0.952248902930700
    C               -1.496639600888515     0.464951441785642     0.055248902930700
    C                0.652360399111485     1.410951441785642     0.636248902930700
    C                0.696360399111485     2.051951441785642    -0.596751097069300
    C               -1.416639600888515     1.112951441785642    -1.182751097069300
    C               -0.323639600888515     1.915951441785642    -1.503751097069300
    O                1.760360399111485     2.827951441785642    -0.941751097069300
    H               -0.456639600888515     0.076951441785642     1.893248902930700
    H                1.468360399111485     1.514951441785642     1.336248902930699
    H               -2.324639600888515    -1.417048558214358     0.581248902930700
    H               -3.289639600888515    -0.456048558214358    -0.508751097069300
    H               -2.205639600888515     0.979951441785642    -1.910751097069300
    H                2.422360399111485     2.857951441785642    -0.241751097069300
    H               -0.268639600888515     2.415951441785642    -2.459751097069300
    H               -3.266169600888515    -0.037218558214358     1.226428902930700

}
e, wfn = energy('scf', return_wfn=True)
gdma(wfn)
dmavals = variable('DMA DISTRIBUTED MULTIPOLES')
charges = np.array(dmavals)
print(charges)
np.save('SSI-050PRO-053TYR-1-dimer.npy', np.array(charges))--------------------------------------------------------------------------

*** tstart() called on ds3
*** at Tue Apr 28 11:59:45 2020

   => Loading Basis Set <=

    Name: CC-PVDZ
    Role: ORBITAL
    Keyword: BASIS
    atoms 1-3, 12-18  entry C          line   138 file /theoryfs2/ds/metcalf/miniconda2/envs/tf2gpu/share/psi4/basis/cc-pvdz.gbs
    atoms 4-11, 20-27 entry H          line    22 file /theoryfs2/ds/metcalf/miniconda2/envs/tf2gpu/share/psi4/basis/cc-pvdz.gbs
    atoms 19          entry O          line   198 file /theoryfs2/ds/metcalf/miniconda2/envs/tf2gpu/share/psi4/basis/cc-pvdz.gbs

         ---------------------------------------------------------
                                   SCF
               by Justin Turney, Rob Parrish, Andy Simmonett
                          and Daniel G. A. Smith
                              RHF Reference
                        1 Threads,    500 MiB Core
         ---------------------------------------------------------

  ==> Geometry <==

    Molecular point group: c1
    Full point group: C1

    Geometry (in Angstrom), charge = 0, multiplicity = 1:

       Center              X                  Y                   Z               Mass
    ------------   -----------------  -----------------  -----------------  -----------------
         C            0.840360399111    -2.616048558214     0.314248902931    12.000000000000
         C            0.570360399111    -4.047048558214    -0.037751097069    12.000000000000
         C            1.295360399111    -2.632048558214     1.752248902931    12.000000000000
         H           -0.088639600889    -2.057048558214     0.231248902931     1.007825032230
         H            1.597360399111    -2.179048558214    -0.332751097069     1.007825032230
         H           -0.309639600889    -4.119048558214    -0.677751097069     1.007825032230
         H            1.444360399111    -4.465048558214    -0.539751097069     1.007825032230
         H            1.041360399111    -1.707048558214     2.265248902931     1.007825032230
         H            2.376360399111    -2.778048558214     1.777248902931     1.007825032230
         H            0.417900399111    -4.551498558214     0.927798902931     1.007825032230
         H            0.810460399111    -3.509618558214     2.204728902931     1.007825032230
         C           -2.664639600889    -0.403048558214     0.381248902931    12.000000000000
         C           -0.446639600889     0.603951441786     0.952248902931    12.000000000000
         C           -1.496639600889     0.464951441786     0.055248902931    12.000000000000
         C            0.652360399111     1.410951441786     0.636248902931    12.000000000000
         C            0.696360399111     2.051951441786    -0.596751097069    12.000000000000
         C           -1.416639600889     1.112951441786    -1.182751097069    12.000000000000
         C           -0.323639600889     1.915951441786    -1.503751097069    12.000000000000
         O            1.760360399111     2.827951441786    -0.941751097069    15.994914619570
         H           -0.456639600889     0.076951441786     1.893248902931     1.007825032230
         H            1.468360399111     1.514951441786     1.336248902931     1.007825032230
         H           -2.324639600889    -1.417048558214     0.581248902931     1.007825032230
         H           -3.289639600889    -0.456048558214    -0.508751097069     1.007825032230
         H           -2.205639600889     0.979951441786    -1.910751097069     1.007825032230
         H            2.422360399111     2.857951441786    -0.241751097069     1.007825032230
         H           -0.268639600889     2.415951441786    -2.459751097069     1.007825032230
         H           -3.266169600889    -0.037218558214     1.226428902931     1.007825032230

  Running in c1 symmetry.

  Rotational constants: A =      0.04374  B =      0.01889  C =      0.01564 [cm^-1]
  Rotational constants: A =   1311.41757  B =    566.16059  C =    468.98473 [MHz]
  Nuclear repulsion =  589.765029714296702

  Charge       = 0
  Multiplicity = 1
  Electrons    = 84
  Nalpha       = 42
  Nbeta        = 42

  ==> Algorithm <==

  SCF Algorithm Type is PK.
  DIIS enabled.
  MOM disabled.
  Fractional occupation disabled.
  Guess Type is SAD.
  Energy threshold   = 1.00e-06
  Density threshold  = 1.00e-10
  Integral threshold = 0.00e+00

  ==> Primary Basis <==

  Basis Set: CC-PVDZ
    Blend: CC-PVDZ
    Number of shells: 114
    Number of basis function: 234
    Number of Cartesian functions: 245
    Spherical Harmonics?: true
    Max angular momentum: 2

  ==> Pre-Iterations <==

   -------------------------------------------------------
    Irrep   Nso     Nmo     Nalpha   Nbeta   Ndocc  Nsocc
   -------------------------------------------------------
     A        234     234       0       0       0       0
   -------------------------------------------------------
    Total     234     234      42      42      42       0
   -------------------------------------------------------

  ==> Integral Setup <==

  Using integral reordering PK algorithm.
  Sizing the integral batches needed.
  Building batch lookup table.
   Calculation information:
      Number of atoms:                  27
      Number of AO shells:             114
      Number of primitives:            322
      Number of atomic orbitals:       245
      Number of basis functions:       234

      Integral cutoff                 1.00e-12
      Number of threads:                 1

	Batch   1 pq = [       0,    9405] index = [             0,44231715] size =     44231715
	Batch   2 pq = [    9405,   13301] index = [      44231715,88464951] size =     44233236
	Batch   3 pq = [   13301,   16290] index = [      88464951,132690195] size =     44225244
	Batch   4 pq = [   16290,   18810] index = [     132690195,176917455] size =     44227260
	Batch   5 pq = [   18810,   21030] index = [     176917455,221140965] size =     44223510
	Batch   6 pq = [   21030,   23037] index = [     221140965,265363203] size =     44222238
	Batch   7 pq = [   23037,   24883] index = [     265363203,309594286] size =     44231083
	Batch   8 pq = [   24883,   26601] index = [     309594286,353819901] size =     44225615
	Batch   9 pq = [   26601,   27495] index = [     353819901,378001260] size =     24181359
  Task number: 35
  Buffer size: 11059200
  Buffer per thread: 2
  We computed 21024688 shell quartets total.
  Whereas there are 21487290 unique shell quartets.

  ==> DiskJK: Disk-Based J/K Matrices <==

    J tasked:                  Yes
    K tasked:                  Yes
    wK tasked:                  No
    Memory [MiB]:              375
    Schwarz Cutoff:          1E-12

    OpenMP threads:              1

  Minimum eigenvalue in the overlap matrix is 3.1577779382E-04.
  Using Symmetric Orthogonalization.

  SCF Guess: Superposition of Atomic Densities via on-the-fly atomic UHF.

  ==> Iterations <==

                        Total Energy        Delta E     RMS |[F,P]|

   @RHF iter SAD:  -461.97635326053239   -4.61976e+02   0.00000e+00
   @RHF iter   1:  -462.57708288314507   -6.00730e-01   2.87335e-03 DIIS
   @RHF iter   2:  -462.82588116559100   -2.48798e-01   1.23179e-03 DIIS
   @RHF iter   3:  -462.86775090400107   -4.18697e-02   2.69883e-04 DIIS
   @RHF iter   4:  -462.87102993969359   -3.27904e-03   1.01248e-04 DIIS
   @RHF iter   5:  -462.87135638318949   -3.26443e-04   2.08587e-05 DIIS
   @RHF iter   6:  -462.87137642071912   -2.00375e-05   6.71162e-06 DIIS
   @RHF iter   7:  -462.87137867514605   -2.25443e-06   2.01391e-06 DIIS
   @RHF iter   8:  -462.87137898762057   -3.12475e-07   8.25206e-07 DIIS
   @RHF iter   9:  -462.87137905038031   -6.27597e-08   3.95026e-07 DIIS
   @RHF iter  10:  -462.87137906639475   -1.60144e-08   1.73951e-07 DIIS
   @RHF iter  11:  -462.87137907135178   -4.95703e-09   6.48199e-08 DIIS
   @RHF iter  12:  -462.87137907194966   -5.97879e-10   2.85387e-08 DIIS
   @RHF iter  13:  -462.87137907201884   -6.91784e-11   8.23666e-09 DIIS
   @RHF iter  14:  -462.87137907202668   -7.84439e-12   1.99287e-09 DIIS
   @RHF iter  15:  -462.87137907202543    1.25056e-12   6.67479e-10 DIIS
   @RHF iter  16:  -462.87137907202407    1.36424e-12   2.00110e-10 DIIS
   @RHF iter  17:  -462.87137907202418   -1.13687e-13   8.44871e-11 DIIS
  Energy and wave function converged.

  ==> Post-Iterations <==

    Orbital Energies [Eh]
    ---------------------

    Doubly Occupied:

       1A    -20.581638     2A    -11.296141     3A    -11.238876
       4A    -11.238691     5A    -11.233967     6A    -11.231671
       7A    -11.226769     8A    -11.226749     9A    -11.211307
      10A    -11.208063    11A    -11.206436    12A     -1.399652
      13A     -1.152779    14A     -1.068418    15A     -1.041951
      16A     -1.018102    17A     -0.927335    18A     -0.916021
      19A     -0.848039    20A     -0.800478    21A     -0.794663
      22A     -0.732122    23A     -0.668146    24A     -0.642617
      25A     -0.634385    26A     -0.618407    27A     -0.607654
      28A     -0.587966    29A     -0.586983    30A     -0.572898
      31A     -0.566068    32A     -0.540964    33A     -0.526388
      34A     -0.515649    35A     -0.499227    36A     -0.486953
      37A     -0.481949    38A     -0.467211    39A     -0.459502
      40A     -0.457730    41A     -0.337624    42A     -0.302714

    Virtual:

      43A      0.129246    44A      0.154898    45A      0.171417
      46A      0.180150    47A      0.200018    48A      0.207436
      49A      0.218642    50A      0.229684    51A      0.237714
      52A      0.255725    53A      0.262994    54A      0.269003
      55A      0.280411    56A      0.293569    57A      0.300274
      58A      0.315631    59A      0.341790    60A      0.351843
      61A      0.372849    62A      0.378865    63A      0.420154
      64A      0.431571    65A      0.449362    66A      0.459183
      67A      0.491173    68A      0.497632    69A      0.515197
      70A      0.570982    71A      0.586412    72A      0.606910
      73A      0.617820    74A      0.635172    75A      0.648362
      76A      0.657469    77A      0.669316    78A      0.673433
      79A      0.694936    80A      0.702993    81A      0.722252
      82A      0.733071    83A      0.742303    84A      0.759768
      85A      0.771977    86A      0.774313    87A      0.778559
      88A      0.792367    89A      0.808245    90A      0.816586
      91A      0.837088    92A      0.843827    93A      0.858020
      94A      0.873075    95A      0.876396    96A      0.885252
      97A      0.892036    98A      0.893583    99A      0.898526
     100A      0.902940   101A      0.912348   102A      0.916910
     103A      0.929699   104A      0.932394   105A      0.937770
     106A      0.942078   107A      0.953932   108A      0.970263
     109A      0.977951   110A      1.005167   111A      1.016130
     112A      1.023067   113A      1.046725   114A      1.066121
     115A      1.098639   116A      1.109001   117A      1.129835
     118A      1.146459   119A      1.163413   120A      1.179321
     121A      1.209998   122A      1.228239   123A      1.243343
     124A      1.259749   125A      1.286174   126A      1.287622
     127A      1.304842   128A      1.317702   129A      1.326909
     130A      1.363912   131A      1.369343   132A      1.387351
     133A      1.434904   134A      1.484445   135A      1.487780
     136A      1.508676   137A      1.512592   138A      1.530465
     139A      1.552763   140A      1.617085   141A      1.618664
     142A      1.627035   143A      1.635739   144A      1.641206
     145A      1.685811   146A      1.696113   147A      1.715416
     148A      1.733067   149A      1.740555   150A      1.751697
     151A      1.790988   152A      1.799204   153A      1.817019
     154A      1.822162   155A      1.867147   156A      1.876821
     157A      1.885497   158A      1.893308   159A      1.894971
     160A      1.906407   161A      1.922464   162A      1.925604
     163A      1.935229   164A      1.945059   165A      1.947948
     166A      1.949675   167A      1.961719   168A      1.971131
     169A      1.988549   170A      1.995630   171A      2.017047
     172A      2.020159   173A      2.034118   174A      2.044622
     175A      2.056600   176A      2.060445   177A      2.067037
     178A      2.068601   179A      2.092455   180A      2.098282
     181A      2.118667   182A      2.154156   183A      2.164868
     184A      2.193631   185A      2.217943   186A      2.220620
     187A      2.255986   188A      2.258935   189A      2.272206
     190A      2.277505   191A      2.314927   192A      2.331774
     193A      2.357258   194A      2.370830   195A      2.376420
     196A      2.401696   197A      2.439252   198A      2.449906
     199A      2.458195   200A      2.491960   201A      2.502958
     202A      2.514797   203A      2.538339   204A      2.546855
     205A      2.570359   206A      2.622725   207A      2.647756
     208A      2.661898   209A      2.720508   210A      2.748592
     211A      2.774015   212A      2.784990   213A      2.795338
     214A      2.800607   215A      2.806365   216A      2.815293
     217A      2.846854   218A      2.859264   219A      2.868338
     220A      2.897794   221A      2.914024   222A      2.966021
     223A      2.977206   224A      3.013801   225A      3.089835
     226A      3.101294   227A      3.126553   228A      3.252161
     229A      3.284305   230A      3.349399   231A      3.579424
     232A      3.691571   233A      3.970256   234A      4.204625

    Final Occupation by Irrep:
              A
    DOCC [    42 ]

  @RHF Final Energy:  -462.87137907202418

   => Energetics <=

    Nuclear Repulsion Energy =            589.7650297142967020
    One-Electron Energy =               -1796.9510123647451110
    Two-Electron Energy =                 744.3146035784241121
    Total Energy =                       -462.8713790720241832

Computation Completed

Properties will be evaluated at   0.000000,   0.000000,   0.000000 [a0]

Properties computed using the SCF density matrix

  Nuclear Dipole Moment: [e a0]
     X:    -0.5832      Y:   -18.2024      Z:     5.4067

  Electronic Dipole Moment: [e a0]
     X:     0.6879      Y:    18.0477      Z:    -4.9664

  Dipole Moment: [e a0]
     X:     0.1047      Y:    -0.1546      Z:     0.4403     Total:     0.4783

  Dipole Moment: [D]
     X:     0.2661      Y:    -0.3930      Z:     1.1191     Total:     1.2156

*** tstop() called on ds3 at Tue Apr 28 12:03:20 2020
Module time:
	user time   =     158.57 seconds =       2.64 minutes
	system time =      62.40 seconds =       1.04 minutes
	total time  =        215 seconds =       3.58 minutes
Total time:
	user time   =     158.57 seconds =       2.64 minutes
	system time =      62.40 seconds =       1.04 minutes
	total time  =        215 seconds =       3.58 minutes
                                     G D M A

                                 by Anthony Stone

                           version 2.2.06, 22 June 2011

               Distributed Multipoles from Gaussian wavefunctions

Starting at 12:3:20 on 28 Apr 2020

Using SCF density matrix from file ./SSI/SSI-050PRO-053TYR-1-dimer.test.26547.fchk

                         Distributed Multipole Analysis

Standard DMA

Positions and radii in angstrom
Multipole moments in atomic units, ea_0^k for rank k

C          x =  0.840360  y = -2.616049  z =  0.314249 angstrom
           Maximum rank =  0   Radius =  0.650 angstrom
                   Q00  =  -0.097445

C          x =  0.570360  y = -4.047049  z = -0.037751 angstrom
           Maximum rank =  0   Radius =  0.650 angstrom
                   Q00  =  -0.232766

C          x =  1.295360  y = -2.632049  z =  1.752249 angstrom
           Maximum rank =  0   Radius =  0.650 angstrom
                   Q00  =  -0.211767

H          x = -0.088640  y = -2.057049  z =  0.231249 angstrom
           Maximum rank =  0   Radius =  0.325 angstrom
                   Q00  =   0.048696

H          x =  1.597360  y = -2.179049  z = -0.332751 angstrom
           Maximum rank =  0   Radius =  0.325 angstrom
                   Q00  =   0.060070

H          x = -0.309640  y = -4.119049  z = -0.677751 angstrom
           Maximum rank =  0   Radius =  0.325 angstrom
                   Q00  =   0.084448

H          x =  1.444360  y = -4.465049  z = -0.539751 angstrom
           Maximum rank =  0   Radius =  0.325 angstrom
                   Q00  =   0.082068

H          x =  1.041360  y = -1.707049  z =  2.265249 angstrom
           Maximum rank =  0   Radius =  0.325 angstrom
                   Q00  =   0.073468

H          x =  2.376360  y = -2.778049  z =  1.777249 angstrom
           Maximum rank =  0   Radius =  0.325 angstrom
                   Q00  =   0.081178

H          x =  0.417900  y = -4.551499  z =  0.927799 angstrom
           Maximum rank =  0   Radius =  0.325 angstrom
                   Q00  =   0.057770

H          x =  0.810460  y = -3.509619  z =  2.204729 angstrom
           Maximum rank =  0   Radius =  0.325 angstrom
                   Q00  =   0.050166

C          x = -2.664640  y = -0.403049  z =  0.381249 angstrom
           Maximum rank =  0   Radius =  0.650 angstrom
                   Q00  =  -0.191895

C          x = -0.446640  y =  0.603951  z =  0.952249 angstrom
           Maximum rank =  0   Radius =  0.650 angstrom
                   Q00  =  -0.057457

C          x = -1.496640  y =  0.464951  z =  0.055249 angstrom
           Maximum rank =  0   Radius =  0.650 angstrom
                   Q00  =  -0.133860

C          x =  0.652360  y =  1.410951  z =  0.636249 angstrom
           Maximum rank =  0   Radius =  0.650 angstrom
                   Q00  =  -0.201945

C          x =  0.696360  y =  2.051951  z = -0.596751 angstrom
           Maximum rank =  0   Radius =  0.650 angstrom
                   Q00  =   0.402530

C          x = -1.416640  y =  1.112951  z = -1.182751 angstrom
           Maximum rank =  0   Radius =  0.650 angstrom
                   Q00  =  -0.006087

C          x = -0.323640  y =  1.915951  z = -1.503751 angstrom
           Maximum rank =  0   Radius =  0.650 angstrom
                   Q00  =  -0.109940

O          x =  1.760360  y =  2.827951  z = -0.941751 angstrom
           Maximum rank =  0   Radius =  0.650 angstrom
                   Q00  =  -0.671882

H          x = -0.456640  y =  0.076951  z =  1.893249 angstrom
           Maximum rank =  0   Radius =  0.325 angstrom
                   Q00  =   0.066530

H          x =  1.468360  y =  1.514951  z =  1.336249 angstrom
           Maximum rank =  0   Radius =  0.325 angstrom
                   Q00  =   0.073625

H          x = -2.324640  y = -1.417049  z =  0.581249 angstrom
           Maximum rank =  0   Radius =  0.325 angstrom
                   Q00  =   0.090275

H          x = -3.289640  y = -0.456049  z = -0.508751 angstrom
           Maximum rank =  0   Radius =  0.325 angstrom
                   Q00  =   0.093631

H          x = -2.205640  y =  0.979951  z = -1.910751 angstrom
           Maximum rank =  0   Radius =  0.325 angstrom
                   Q00  =   0.065060

H          x =  2.422360  y =  2.857951  z = -0.241751 angstrom
           Maximum rank =  0   Radius =  0.325 angstrom
                   Q00  =   0.404006

H          x = -0.268640  y =  2.415951  z = -2.459751 angstrom
           Maximum rank =  0   Radius =  0.325 angstrom
                   Q00  =   0.081567

H          x = -3.266170  y = -0.037219  z =  1.226429 angstrom
           Maximum rank =  0   Radius =  0.325 angstrom
                   Q00  =   0.099955

Total multipoles referred to origin at
           x =   0.000000,  y =    0.000000,  z =    0.000000 angstrom
                   Q00  =  -0.000000

Finished at 12:3:20 on 28 Apr 2020

  DMA results are available in the Python driver through the
	  variable('DMA DISTRIBUTED MULTIPOLES')
  and
	  variable('DMA TOTAL MULTIPOLES')
  commands.

    Psi4 stopped on: Tuesday, 28 April 2020 12:03PM
    Psi4 wall time for execution: 0:03:34.88

*** Psi4 exiting successfully. Buy a developer a beer!
