                               Psi4 1.3.2 release

  ==> Input File <==

--------------------------------------------------------------------------
import numpy as np
set {scf_type pk
basis cc-pvdz
d_convergence 10
gdma_switch   0
gdma_limit    0
gdma_origin   [ 0.0,  0.0,  0.0 ]
}
molecule test {
    units Angstrom
    0 1
    --
    0 1
    C               -0.210951994804511    -0.874662708708112     2.294762162701840
    C               -1.494951994804510    -1.597662708708112     2.709762162701840
    C                0.827048005195489    -1.795662708708112     1.720762162701840
    O                0.502048005195489    -2.752662708708112     1.019762162701841
    N                2.087048005195490    -1.465662708708112     1.936762162701840
    H               -0.400951994804511    -0.082662708708112     1.571762162701840
    H                0.179048005195489    -0.438662708708112     3.212762162701840
    H               -1.798951994804510    -2.263662708708112     1.910762162701840
    H                2.824048005195489    -2.054662708708112     1.576762162701840
    H                2.309048005195490    -0.633662708708112     2.460762162701840
    H               -2.263611994804511    -0.830492708708112     2.884732162701840
    H               -1.280581994804511    -2.242932708708112     3.574442162701840
    C                1.991048005195490     1.161337291291888    -0.561237837298160
    C               -0.228951994804511     0.171337291291888    -1.256237837298160
    C                0.608048005195489     1.285337291291888    -1.196237837298160
    C               -1.532951994804510     0.270337291291888    -1.775237837298160
    C                0.112048005195489     2.507337291291888    -1.676237837298160
    C               -2.022951994804511     1.484337291291888    -2.235237837298160
    C               -1.203951994804511     2.611337291291888    -2.189237837298160
    H                0.139048005195489    -0.778662708708112    -0.895237837298160
    H               -2.169951994804511    -0.600662708708112    -1.820237837298160
    H                2.261048005195490     0.103337291291888    -0.576237837298160
    H                1.893048005195489     1.478337291291888     0.479762162701840
    H                0.747048005195489     3.381337291291888    -1.644237837298160
    H               -3.029951994804511     1.550337291291888    -2.628237837298160
    H               -1.586951994804511     3.559337291291888    -2.547237837298160
    H                2.796718005195489     1.710757291291888    -1.070197837298160

}
e, wfn = energy('scf', return_wfn=True)
gdma(wfn)
dmavals = variable('DMA DISTRIBUTED MULTIPOLES')
charges = np.array(dmavals)
print(charges)
np.save('SSI-038ASN-202PHE-1-dimer.npy', np.array(charges))--------------------------------------------------------------------------

*** tstart() called on ds3
*** at Tue Apr 28 08:54:35 2020

   => Loading Basis Set <=

    Name: CC-PVDZ
    Role: ORBITAL
    Keyword: BASIS
    atoms 1-3, 13-19  entry C          line   138 file /theoryfs2/ds/metcalf/miniconda2/envs/tf2gpu/share/psi4/basis/cc-pvdz.gbs
    atoms 4           entry O          line   198 file /theoryfs2/ds/metcalf/miniconda2/envs/tf2gpu/share/psi4/basis/cc-pvdz.gbs
    atoms 5           entry N          line   168 file /theoryfs2/ds/metcalf/miniconda2/envs/tf2gpu/share/psi4/basis/cc-pvdz.gbs
    atoms 6-12, 20-27 entry H          line    22 file /theoryfs2/ds/metcalf/miniconda2/envs/tf2gpu/share/psi4/basis/cc-pvdz.gbs

         ---------------------------------------------------------
                                   SCF
               by Justin Turney, Rob Parrish, Andy Simmonett
                          and Daniel G. A. Smith
                              RHF Reference
                        1 Threads,    500 MiB Core
         ---------------------------------------------------------

  ==> Geometry <==

    Molecular point group: c1
    Full point group: C1

    Geometry (in Angstrom), charge = 0, multiplicity = 1:

       Center              X                  Y                   Z               Mass
    ------------   -----------------  -----------------  -----------------  -----------------
         C           -0.210951994805    -0.874662708708     2.294762162702    12.000000000000
         C           -1.494951994805    -1.597662708708     2.709762162702    12.000000000000
         C            0.827048005195    -1.795662708708     1.720762162702    12.000000000000
         O            0.502048005195    -2.752662708708     1.019762162702    15.994914619570
         N            2.087048005195    -1.465662708708     1.936762162702    14.003074004430
         H           -0.400951994805    -0.082662708708     1.571762162702     1.007825032230
         H            0.179048005195    -0.438662708708     3.212762162702     1.007825032230
         H           -1.798951994805    -2.263662708708     1.910762162702     1.007825032230
         H            2.824048005195    -2.054662708708     1.576762162702     1.007825032230
         H            2.309048005195    -0.633662708708     2.460762162702     1.007825032230
         H           -2.263611994805    -0.830492708708     2.884732162702     1.007825032230
         H           -1.280581994805    -2.242932708708     3.574442162702     1.007825032230
         C            1.991048005195     1.161337291292    -0.561237837298    12.000000000000
         C           -0.228951994805     0.171337291292    -1.256237837298    12.000000000000
         C            0.608048005195     1.285337291292    -1.196237837298    12.000000000000
         C           -1.532951994805     0.270337291292    -1.775237837298    12.000000000000
         C            0.112048005195     2.507337291292    -1.676237837298    12.000000000000
         C           -2.022951994805     1.484337291292    -2.235237837298    12.000000000000
         C           -1.203951994805     2.611337291292    -2.189237837298    12.000000000000
         H            0.139048005195    -0.778662708708    -0.895237837298     1.007825032230
         H           -2.169951994805    -0.600662708708    -1.820237837298     1.007825032230
         H            2.261048005195     0.103337291292    -0.576237837298     1.007825032230
         H            1.893048005195     1.478337291292     0.479762162702     1.007825032230
         H            0.747048005195     3.381337291292    -1.644237837298     1.007825032230
         H           -3.029951994805     1.550337291292    -2.628237837298     1.007825032230
         H           -1.586951994805     3.559337291292    -2.547237837298     1.007825032230
         H            2.796718005195     1.710757291292    -1.070197837298     1.007825032230

  Running in c1 symmetry.

  Rotational constants: A =      0.04621  B =      0.01554  C =      0.01330 [cm^-1]
  Rotational constants: A =   1385.22192  B =    465.94340  C =    398.82604 [MHz]
  Nuclear repulsion =  662.749500202767194

  Charge       = 0
  Multiplicity = 1
  Electrons    = 90
  Nalpha       = 45
  Nbeta        = 45

  ==> Algorithm <==

  SCF Algorithm Type is PK.
  DIIS enabled.
  MOM disabled.
  Fractional occupation disabled.
  Guess Type is SAD.
  Energy threshold   = 1.00e-06
  Density threshold  = 1.00e-10
  Integral threshold = 0.00e+00

  ==> Primary Basis <==

  Basis Set: CC-PVDZ
    Blend: CC-PVDZ
    Number of shells: 117
    Number of basis function: 243
    Number of Cartesian functions: 255
    Spherical Harmonics?: true
    Max angular momentum: 2

  ==> Pre-Iterations <==

   -------------------------------------------------------
    Irrep   Nso     Nmo     Nalpha   Nbeta   Ndocc  Nsocc
   -------------------------------------------------------
     A        243     243       0       0       0       0
   -------------------------------------------------------
    Total     243     243      45      45      45       0
   -------------------------------------------------------

  ==> Integral Setup <==

  Using integral reordering PK algorithm.
  Sizing the integral batches needed.
  Building batch lookup table.
   Calculation information:
      Number of atoms:                  27
      Number of AO shells:             117
      Number of primitives:            339
      Number of atomic orbitals:       255
      Number of basis functions:       243

      Integral cutoff                 1.00e-12
      Number of threads:                 1

	Batch   1 pq = [       0,    9405] index = [             0,44231715] size =     44231715
	Batch   2 pq = [    9405,   13301] index = [      44231715,88464951] size =     44233236
	Batch   3 pq = [   13301,   16290] index = [      88464951,132690195] size =     44225244
	Batch   4 pq = [   16290,   18810] index = [     132690195,176917455] size =     44227260
	Batch   5 pq = [   18810,   21030] index = [     176917455,221140965] size =     44223510
	Batch   6 pq = [   21030,   23037] index = [     221140965,265363203] size =     44222238
	Batch   7 pq = [   23037,   24883] index = [     265363203,309594286] size =     44231083
	Batch   8 pq = [   24883,   26601] index = [     309594286,353819901] size =     44225615
	Batch   9 pq = [   26601,   28214] index = [     353819901,398029005] size =     44209104
	Batch  10 pq = [   28214,   29646] index = [     398029005,439457481] size =     41428476
  Task number: 40
  Buffer size: 11059200
  Buffer per thread: 2
  We computed 23670146 shell quartets total.
  Whereas there are 23829156 unique shell quartets.

  ==> DiskJK: Disk-Based J/K Matrices <==

    J tasked:                  Yes
    K tasked:                  Yes
    wK tasked:                  No
    Memory [MiB]:              375
    Schwarz Cutoff:          1E-12

    OpenMP threads:              1

  Minimum eigenvalue in the overlap matrix is 3.1237744857E-04.
  Using Symmetric Orthogonalization.

  SCF Guess: Superposition of Atomic Densities via on-the-fly atomic UHF.

  ==> Iterations <==

                        Total Energy        Delta E     RMS |[F,P]|

   @RHF iter SAD:  -515.40039085129320   -5.15400e+02   0.00000e+00
   @RHF iter   1:  -516.47039763085979   -1.07001e+00   2.97442e-03 DIIS
   @RHF iter   2:  -516.72333541012426   -2.52938e-01   1.55884e-03 DIIS
   @RHF iter   3:  -516.78178629995773   -5.84509e-02   3.71120e-04 DIIS
   @RHF iter   4:  -516.78645692891166   -4.67063e-03   1.48645e-04 DIIS
   @RHF iter   5:  -516.78720206951925   -7.45141e-04   2.08434e-05 DIIS
   @RHF iter   6:  -516.78723463245296   -3.25629e-05   9.01112e-06 DIIS
   @RHF iter   7:  -516.78723967250335   -5.04005e-06   3.58667e-06 DIIS
   @RHF iter   8:  -516.78724072311263   -1.05061e-06   1.45263e-06 DIIS
   @RHF iter   9:  -516.78724089175319   -1.68641e-07   5.51365e-07 DIIS
   @RHF iter  10:  -516.78724091033018   -1.85770e-08   1.61179e-07 DIIS
   @RHF iter  11:  -516.78724091236325   -2.03306e-09   4.62310e-08 DIIS
   @RHF iter  12:  -516.78724091254503   -1.81785e-10   1.99571e-08 DIIS
   @RHF iter  13:  -516.78724091257345   -2.84217e-11   8.06784e-09 DIIS
   @RHF iter  14:  -516.78724091258266   -9.20863e-12   3.63683e-09 DIIS
   @RHF iter  15:  -516.78724091258846   -5.79803e-12   1.61871e-09 DIIS
   @RHF iter  16:  -516.78724091259062   -2.16005e-12   4.23883e-10 DIIS
   @RHF iter  17:  -516.78724091258925    1.36424e-12   1.76847e-10 DIIS
   @RHF iter  18:  -516.78724091259221   -2.95586e-12   6.07387e-11 DIIS
  Energy and wave function converged.

  ==> Post-Iterations <==

    Orbital Energies [Eh]
    ---------------------

    Doubly Occupied:

       1A    -20.507244     2A    -15.592802     3A    -11.344733
       4A    -11.243074     5A    -11.237951     6A    -11.235695
       7A    -11.235401     8A    -11.233975     9A    -11.233496
      10A    -11.230342    11A    -11.228019    12A    -11.221874
      13A     -1.371546    14A     -1.222746    15A     -1.145792
      16A     -1.048601    17A     -1.042173    18A     -1.002335
      19A     -0.932055    20A     -0.889889    21A     -0.823680
      22A     -0.790282    23A     -0.787245    24A     -0.725652
      25A     -0.687510    26A     -0.669108    27A     -0.637948
      28A     -0.626596    29A     -0.625329    30A     -0.589658
      31A     -0.582179    32A     -0.574540    33A     -0.562993
      34A     -0.557396    35A     -0.534990    36A     -0.519710
      37A     -0.503034    38A     -0.488191    39A     -0.482407
      40A     -0.480661    41A     -0.479013    42A     -0.411750
      43A     -0.407515    44A     -0.325086    45A     -0.323384

    Virtual:

      46A      0.133736    47A      0.140452    48A      0.159644
      49A      0.183800    50A      0.195293    51A      0.202160
      52A      0.209507    53A      0.223607    54A      0.231623
      55A      0.251414    56A      0.253390    57A      0.264515
      58A      0.269244    59A      0.275712    60A      0.279065
      61A      0.300210    62A      0.314904    63A      0.333668
      64A      0.359005    65A      0.374093    66A      0.389564
      67A      0.416552    68A      0.451613    69A      0.463198
      70A      0.473153    71A      0.483367    72A      0.507565
      73A      0.538342    74A      0.579156    75A      0.599411
      76A      0.610146    77A      0.623107    78A      0.634706
      79A      0.654476    80A      0.673581    81A      0.681511
      82A      0.698421    83A      0.709565    84A      0.714828
      85A      0.728729    86A      0.733754    87A      0.743476
      88A      0.744397    89A      0.748733    90A      0.750135
      91A      0.768583    92A      0.783473    93A      0.791852
      94A      0.831177    95A      0.835831    96A      0.843223
      97A      0.853498    98A      0.863313    99A      0.866291
     100A      0.879059   101A      0.885662   102A      0.890760
     103A      0.894370   104A      0.899818   105A      0.900181
     106A      0.914376   107A      0.920821   108A      0.933884
     109A      0.948326   110A      0.951933   111A      0.968535
     112A      0.980784   113A      0.996944   114A      1.000736
     115A      1.010020   116A      1.041202   117A      1.057211
     118A      1.080233   119A      1.094557   120A      1.116841
     121A      1.124414   122A      1.138595   123A      1.145589
     124A      1.160196   125A      1.165574   126A      1.194073
     127A      1.239902   128A      1.244614   129A      1.250197
     130A      1.256107   131A      1.284633   132A      1.300816
     133A      1.310904   134A      1.319724   135A      1.326728
     136A      1.328444   137A      1.389462   138A      1.401776
     139A      1.410365   140A      1.421160   141A      1.446183
     142A      1.468395   143A      1.500390   144A      1.523907
     145A      1.535737   146A      1.561370   147A      1.606211
     148A      1.611241   149A      1.652915   150A      1.675317
     151A      1.681078   152A      1.705318   153A      1.711016
     154A      1.736414   155A      1.741017   156A      1.760133
     157A      1.781010   158A      1.792647   159A      1.817219
     160A      1.824142   161A      1.854317   162A      1.856020
     163A      1.865665   164A      1.879879   165A      1.885186
     166A      1.908203   167A      1.910152   168A      1.911638
     169A      1.921947   170A      1.924257   171A      1.932022
     172A      1.946024   173A      1.949370   174A      1.963690
     175A      1.970399   176A      1.974650   177A      1.989966
     178A      2.001081   179A      2.001810   180A      2.026118
     181A      2.028831   182A      2.045105   183A      2.069813
     184A      2.073559   185A      2.077330   186A      2.114965
     187A      2.129246   188A      2.135881   189A      2.155487
     190A      2.163838   191A      2.166763   192A      2.181343
     193A      2.219000   194A      2.249080   195A      2.261371
     196A      2.266205   197A      2.281778   198A      2.291573
     199A      2.295825   200A      2.312307   201A      2.318797
     202A      2.345808   203A      2.381453   204A      2.441593
     205A      2.457451   206A      2.474679   207A      2.481858
     208A      2.505073   209A      2.526422   210A      2.557039
     211A      2.568030   212A      2.573024   213A      2.611530
     214A      2.638659   215A      2.645543   216A      2.732983
     217A      2.740161   218A      2.755512   219A      2.773786
     220A      2.775406   221A      2.782040   222A      2.819819
     223A      2.825166   224A      2.842778   225A      2.864986
     226A      2.886933   227A      2.896831   228A      2.969327
     229A      2.974422   230A      2.991977   231A      3.008755
     232A      3.039202   233A      3.108601   234A      3.142686
     235A      3.150848   236A      3.175786   237A      3.290477
     238A      3.294447   239A      3.497455   240A      3.555272
     241A      3.872778   242A      3.910005   243A      3.932591

    Final Occupation by Irrep:
              A
    DOCC [    45 ]

  @RHF Final Energy:  -516.78724091259221

   => Energetics <=

    Nuclear Repulsion Energy =            662.7495002027671944
    One-Electron Energy =               -2016.2822840146789076
    Two-Electron Energy =                 836.7455428993195028
    Total Energy =                       -516.7872409125922104

Computation Completed

Properties will be evaluated at   0.000000,   0.000000,   0.000000 [a0]

Properties computed using the SCF density matrix

  Nuclear Dipole Moment: [e a0]
     X:     0.5758      Y:     1.7323      Z:     6.0836

  Electronic Dipole Moment: [e a0]
     X:     0.2369      Y:    -0.6497      Z:    -5.1932

  Dipole Moment: [e a0]
     X:     0.8127      Y:     1.0826      Z:     0.8903     Total:     1.6202

  Dipole Moment: [D]
     X:     2.0656      Y:     2.7517      Z:     2.2630     Total:     4.1182

*** tstop() called on ds3 at Tue Apr 28 08:58:48 2020
Module time:
	user time   =     190.50 seconds =       3.17 minutes
	system time =      72.93 seconds =       1.22 minutes
	total time  =        253 seconds =       4.22 minutes
Total time:
	user time   =     190.50 seconds =       3.17 minutes
	system time =      72.93 seconds =       1.22 minutes
	total time  =        253 seconds =       4.22 minutes
                                     G D M A

                                 by Anthony Stone

                           version 2.2.06, 22 June 2011

               Distributed Multipoles from Gaussian wavefunctions

Starting at 8:58:48 on 28 Apr 2020

Using SCF density matrix from file ./SSI/SSI-038ASN-202PHE-1-dimer.test.31635.fchk

                         Distributed Multipole Analysis

Standard DMA

Positions and radii in angstrom
Multipole moments in atomic units, ea_0^k for rank k

C          x = -0.210952  y = -0.874663  z =  2.294762 angstrom
           Maximum rank =  0   Radius =  0.650 angstrom
                   Q00  =  -0.166998

C          x = -1.494952  y = -1.597663  z =  2.709762 angstrom
           Maximum rank =  0   Radius =  0.650 angstrom
                   Q00  =  -0.176738

C          x =  0.827048  y = -1.795663  z =  1.720762 angstrom
           Maximum rank =  0   Radius =  0.650 angstrom
                   Q00  =   0.851959

O          x =  0.502048  y = -2.752663  z =  1.019762 angstrom
           Maximum rank =  0   Radius =  0.650 angstrom
                   Q00  =  -0.812632

N          x =  2.087048  y = -1.465663  z =  1.936762 angstrom
           Maximum rank =  0   Radius =  0.650 angstrom
                   Q00  =  -0.541532

H          x = -0.400952  y = -0.082663  z =  1.571762 angstrom
           Maximum rank =  0   Radius =  0.325 angstrom
                   Q00  =   0.124563

H          x =  0.179048  y = -0.438663  z =  3.212762 angstrom
           Maximum rank =  0   Radius =  0.325 angstrom
                   Q00  =   0.043426

H          x = -1.798952  y = -2.263663  z =  1.910762 angstrom
           Maximum rank =  0   Radius =  0.325 angstrom
                   Q00  =   0.114247

H          x =  2.824048  y = -2.054663  z =  1.576762 angstrom
           Maximum rank =  0   Radius =  0.325 angstrom
                   Q00  =   0.219642

H          x =  2.309048  y = -0.633663  z =  2.460762 angstrom
           Maximum rank =  0   Radius =  0.325 angstrom
                   Q00  =   0.208414

H          x = -2.263612  y = -0.830493  z =  2.884732 angstrom
           Maximum rank =  0   Radius =  0.325 angstrom
                   Q00  =   0.072660

H          x = -1.280582  y = -2.242933  z =  3.574442 angstrom
           Maximum rank =  0   Radius =  0.325 angstrom
                   Q00  =   0.067409

C          x =  1.991048  y =  1.161337  z = -0.561238 angstrom
           Maximum rank =  0   Radius =  0.650 angstrom
                   Q00  =  -0.204872

C          x = -0.228952  y =  0.171337  z = -1.256238 angstrom
           Maximum rank =  0   Radius =  0.650 angstrom
                   Q00  =  -0.053351

C          x =  0.608048  y =  1.285337  z = -1.196238 angstrom
           Maximum rank =  0   Radius =  0.650 angstrom
                   Q00  =  -0.115944

C          x = -1.532952  y =  0.270337  z = -1.775238 angstrom
           Maximum rank =  0   Radius =  0.650 angstrom
                   Q00  =  -0.007317

C          x =  0.112048  y =  2.507337  z = -1.676238 angstrom
           Maximum rank =  0   Radius =  0.650 angstrom
                   Q00  =  -0.073341

C          x = -2.022952  y =  1.484337  z = -2.235238 angstrom
           Maximum rank =  0   Radius =  0.650 angstrom
                   Q00  =  -0.090207

C          x = -1.203952  y =  2.611337  z = -2.189238 angstrom
           Maximum rank =  0   Radius =  0.650 angstrom
                   Q00  =  -0.078678

H          x =  0.139048  y = -0.778663  z = -0.895238 angstrom
           Maximum rank =  0   Radius =  0.325 angstrom
                   Q00  =   0.065590

H          x = -2.169952  y = -0.600663  z = -1.820238 angstrom
           Maximum rank =  0   Radius =  0.325 angstrom
                   Q00  =   0.069284

H          x =  2.261048  y =  0.103337  z = -0.576238 angstrom
           Maximum rank =  0   Radius =  0.325 angstrom
                   Q00  =   0.102790

H          x =  1.893048  y =  1.478337  z =  0.479762 angstrom
           Maximum rank =  0   Radius =  0.325 angstrom
                   Q00  =   0.091448

H          x =  0.747048  y =  3.381337  z = -1.644238 angstrom
           Maximum rank =  0   Radius =  0.325 angstrom
                   Q00  =   0.055671

H          x = -3.029952  y =  1.550337  z = -2.628238 angstrom
           Maximum rank =  0   Radius =  0.325 angstrom
                   Q00  =   0.062677

H          x = -1.586952  y =  3.559337  z = -2.547238 angstrom
           Maximum rank =  0   Radius =  0.325 angstrom
                   Q00  =   0.066175

H          x =  2.796718  y =  1.710757  z = -1.070198 angstrom
           Maximum rank =  0   Radius =  0.325 angstrom
                   Q00  =   0.105654

Total multipoles referred to origin at
           x =   0.000000,  y =    0.000000,  z =    0.000000 angstrom
                   Q00  =  -0.000000

Finished at 8:58:48 on 28 Apr 2020

  DMA results are available in the Python driver through the
	  variable('DMA DISTRIBUTED MULTIPOLES')
  and
	  variable('DMA TOTAL MULTIPOLES')
  commands.

    Psi4 stopped on: Tuesday, 28 April 2020 08:58AM
    Psi4 wall time for execution: 0:04:12.51

*** Psi4 exiting successfully. Buy a developer a beer!
