                               Psi4 1.3.2 release

  ==> Input File <==

--------------------------------------------------------------------------
import numpy as np
set {scf_type pk
basis cc-pvdz
d_convergence 10
gdma_switch   0
gdma_limit    0
gdma_origin   [ 0.0,  0.0,  0.0 ]
}
molecule test {
    units Angstrom
    0 1
    --
    0 1
    C               -1.133217693620865    -1.705182957875397    -0.078956149538433
    C               -0.058217693620865    -2.775182957875396    -0.217956149538433
    H               -0.903217693620865    -0.987182957875396     0.699043850461567
    H               -1.281217693620865    -1.193182957875397    -1.028956149538433
    H               -2.068217693620865    -2.197182957875397     0.188043850461567
    H               -0.498217693620865    -3.639182957875397    -0.714956149538433
    H                0.300072306379135    -3.086422957875397     0.774393850461567
    H                0.779642306379135    -2.421721957875397    -0.836871149538433
    C               -0.063217693620865     1.902817042124604     0.004043850461567
    C                1.256782306379135     2.586817042124604     0.297043850461567
    H               -0.892217693620865     2.459817042124604     0.441043850461567
    H               -0.210217693620865     1.822817042124603    -1.073956149538434
    H               -0.033217693620865     0.907817042124603     0.433043850461567
    H                2.037782306379135     2.026817042124604    -0.214956149538433
    H                1.474682306379135     2.581157042124604     1.375230850461566
    H                1.268992306379135     3.616097042124604    -0.090820149538433

}
e, wfn = energy('scf', return_wfn=True)
gdma(wfn)
dmavals = variable('DMA DISTRIBUTED MULTIPOLES')
charges = np.array(dmavals)
print(charges)
np.save('SSI-131LEU-136VAL-1-dimer.npy', np.array(charges))--------------------------------------------------------------------------

*** tstart() called on ds3
*** at Tue Apr 28 09:30:09 2020

   => Loading Basis Set <=

    Name: CC-PVDZ
    Role: ORBITAL
    Keyword: BASIS
    atoms 1-2, 9-10  entry C          line   138 file /theoryfs2/ds/metcalf/miniconda2/envs/tf2gpu/share/psi4/basis/cc-pvdz.gbs
    atoms 3-8, 11-16 entry H          line    22 file /theoryfs2/ds/metcalf/miniconda2/envs/tf2gpu/share/psi4/basis/cc-pvdz.gbs

         ---------------------------------------------------------
                                   SCF
               by Justin Turney, Rob Parrish, Andy Simmonett
                          and Daniel G. A. Smith
                              RHF Reference
                        1 Threads,    500 MiB Core
         ---------------------------------------------------------

  ==> Geometry <==

    Molecular point group: c1
    Full point group: C1

    Geometry (in Angstrom), charge = 0, multiplicity = 1:

       Center              X                  Y                   Z               Mass
    ------------   -----------------  -----------------  -----------------  -----------------
         C           -1.133217693621    -1.705182957875    -0.078956149538    12.000000000000
         C           -0.058217693621    -2.775182957875    -0.217956149538    12.000000000000
         H           -0.903217693621    -0.987182957875     0.699043850462     1.007825032230
         H           -1.281217693621    -1.193182957875    -1.028956149538     1.007825032230
         H           -2.068217693621    -2.197182957875     0.188043850462     1.007825032230
         H           -0.498217693621    -3.639182957875    -0.714956149538     1.007825032230
         H            0.300072306379    -3.086422957875     0.774393850462     1.007825032230
         H            0.779642306379    -2.421721957875    -0.836871149538     1.007825032230
         C           -0.063217693621     1.902817042125     0.004043850462    12.000000000000
         C            1.256782306379     2.586817042125     0.297043850462    12.000000000000
         H           -0.892217693621     2.459817042125     0.441043850462     1.007825032230
         H           -0.210217693621     1.822817042125    -1.073956149538     1.007825032230
         H           -0.033217693621     0.907817042125     0.433043850462     1.007825032230
         H            2.037782306379     2.026817042125    -0.214956149538     1.007825032230
         H            1.474682306379     2.581157042125     1.375230850462     1.007825032230
         H            1.268992306379     3.616097042125    -0.090820149538     1.007825032230

  Running in c1 symmetry.

  Rotational constants: A =      0.45900  B =      0.04798  C =      0.04504 [cm^-1]
  Rotational constants: A =  13760.35642  B =   1438.46861  C =   1350.15565 [MHz]
  Nuclear repulsion =  121.787570656613084

  Charge       = 0
  Multiplicity = 1
  Electrons    = 36
  Nalpha       = 18
  Nbeta        = 18

  ==> Algorithm <==

  SCF Algorithm Type is PK.
  DIIS enabled.
  MOM disabled.
  Fractional occupation disabled.
  Guess Type is SAD.
  Energy threshold   = 1.00e-06
  Density threshold  = 1.00e-10
  Integral threshold = 0.00e+00

  ==> Primary Basis <==

  Basis Set: CC-PVDZ
    Blend: CC-PVDZ
    Number of shells: 60
    Number of basis function: 116
    Number of Cartesian functions: 120
    Spherical Harmonics?: true
    Max angular momentum: 2

  ==> Pre-Iterations <==

   -------------------------------------------------------
    Irrep   Nso     Nmo     Nalpha   Nbeta   Ndocc  Nsocc
   -------------------------------------------------------
     A        116     116       0       0       0       0
   -------------------------------------------------------
    Total     116     116      18      18      18       0
   -------------------------------------------------------

  ==> Integral Setup <==

  Using integral reordering PK algorithm.
  Sizing the integral batches needed.
  Building batch lookup table.
   Calculation information:
      Number of atoms:                  16
      Number of AO shells:              60
      Number of primitives:            148
      Number of atomic orbitals:       120
      Number of basis functions:       116

      Integral cutoff                 1.00e-12
      Number of threads:                 1

	Batch   1 pq = [       0,    6786] index = [             0,23028291] size =     23028291
  Task number: 3
  Buffer size: 11059200
  Buffer per thread: 2
  We computed 1406391 shell quartets total.
  Whereas there are 1675365 unique shell quartets.

  ==> DiskJK: Disk-Based J/K Matrices <==

    J tasked:                  Yes
    K tasked:                  Yes
    wK tasked:                  No
    Memory [MiB]:              375
    Schwarz Cutoff:          1E-12

    OpenMP threads:              1

  Minimum eigenvalue in the overlap matrix is 6.8318229677E-03.
  Using Symmetric Orthogonalization.

  SCF Guess: Superposition of Atomic Densities via on-the-fly atomic UHF.

  ==> Iterations <==

                        Total Energy        Delta E     RMS |[F,P]|

   @RHF iter SAD:  -157.39412762297189   -1.57394e+02   0.00000e+00
   @RHF iter   1:  -158.30315163205722   -9.09024e-01   4.24645e-03 DIIS
   @RHF iter   2:  -158.43798857303972   -1.34837e-01   1.81438e-03 DIIS
   @RHF iter   3:  -158.46181481237980   -2.38262e-02   3.51401e-04 DIIS
   @RHF iter   4:  -158.46365506535855   -1.84025e-03   3.91314e-05 DIIS
   @RHF iter   5:  -158.46367890603088   -2.38407e-05   6.98259e-06 DIIS
   @RHF iter   6:  -158.46367958893734   -6.82906e-07   1.40816e-06 DIIS
   @RHF iter   7:  -158.46367960724660   -1.83093e-08   3.17528e-07 DIIS
   @RHF iter   8:  -158.46367960828070   -1.03410e-09   4.13478e-08 DIIS
   @RHF iter   9:  -158.46367960831125   -3.05533e-11   7.26610e-09 DIIS
   @RHF iter  10:  -158.46367960831236   -1.10845e-12   1.91244e-09 DIIS
   @RHF iter  11:  -158.46367960831248   -1.13687e-13   4.80627e-10 DIIS
   @RHF iter  12:  -158.46367960831304   -5.68434e-13   1.18933e-10 DIIS
   @RHF iter  13:  -158.46367960831282    2.27374e-13   2.60580e-11 DIIS
  Energy and wave function converged.

  ==> Post-Iterations <==

    Orbital Energies [Eh]
    ---------------------

    Doubly Occupied:

       1A    -11.218804     2A    -11.217245     3A    -11.214802
       4A    -11.213999     5A     -1.022039     6A     -1.019239
       7A     -0.839256     8A     -0.832923     9A     -0.606134
      10A     -0.600316    11A     -0.598235    12A     -0.593018
      13A     -0.507102    14A     -0.499263    15A     -0.491232
      16A     -0.485728    17A     -0.482900    18A     -0.474168

    Virtual:

      19A      0.173162    20A      0.200019    21A      0.223772
      22A      0.234640    23A      0.246037    24A      0.255049
      25A      0.264497    26A      0.274627    27A      0.282647
      28A      0.289417    29A      0.304464    30A      0.374147
      31A      0.385587    32A      0.413819    33A      0.572204
      34A      0.591766    35A      0.597819    36A      0.602096
      37A      0.611588    38A      0.628719    39A      0.658038
      40A      0.692104    41A      0.699829    42A      0.802084
      43A      0.842645    44A      0.874688    45A      0.878008
      46A      0.885739    47A      0.892482    48A      0.894336
      49A      0.897343    50A      0.908395    51A      0.913322
      52A      0.921185    53A      0.929321    54A      0.952652
      55A      0.983630    56A      1.013360    57A      1.115684
      58A      1.123202    59A      1.131580    60A      1.145874
      61A      1.222569    62A      1.272689    63A      1.470519
      64A      1.475413    65A      1.481522    66A      1.495253
      67A      1.567670    68A      1.591544    69A      1.682169
      70A      1.685457    71A      1.696509    72A      1.711960
      73A      1.853292    74A      1.859346    75A      1.866141
      76A      1.873528    77A      1.893862    78A      1.905988
      79A      1.930678    80A      1.935590    81A      1.940202
      82A      1.945555    83A      1.948154    84A      1.957579
      85A      1.959858    86A      1.978856    87A      1.985860
      88A      2.025493    89A      2.098898    90A      2.122692
      91A      2.137276    92A      2.162077    93A      2.299134
      94A      2.303235    95A      2.314131    96A      2.319089
      97A      2.428026    98A      2.443286    99A      2.461522
     100A      2.475067   101A      2.560865   102A      2.574189
     103A      2.592025   104A      2.606423   105A      2.760492
     106A      2.761698   107A      2.787668   108A      2.796462
     109A      2.837183   110A      2.851756   111A      2.853874
     112A      2.869930   113A      2.940773   114A      2.965706
     115A      2.969619   116A      2.980038

    Final Occupation by Irrep:
              A
    DOCC [    18 ]

  @RHF Final Energy:  -158.46367960831282

   => Energetics <=

    Nuclear Repulsion Energy =            121.7875706566130845
    One-Electron Energy =                -452.6696927040649143
    Two-Electron Energy =                 172.4184424391390280
    Total Energy =                       -158.4636796083128161

Computation Completed

Properties will be evaluated at   0.000000,   0.000000,   0.000000 [a0]

Properties computed using the SCF density matrix

  Nuclear Dipole Moment: [e a0]
     X:    -0.0238      Y:    -0.1035      Z:    -0.0466

  Electronic Dipole Moment: [e a0]
     X:     0.0023      Y:     0.0762      Z:     0.0408

  Dipole Moment: [e a0]
     X:    -0.0215      Y:    -0.0273      Z:    -0.0058     Total:     0.0352

  Dipole Moment: [D]
     X:    -0.0547      Y:    -0.0693      Z:    -0.0147     Total:     0.0895

*** tstop() called on ds3 at Tue Apr 28 09:30:19 2020
Module time:
	user time   =       7.36 seconds =       0.12 minutes
	system time =       2.75 seconds =       0.05 minutes
	total time  =         10 seconds =       0.17 minutes
Total time:
	user time   =       7.36 seconds =       0.12 minutes
	system time =       2.75 seconds =       0.05 minutes
	total time  =         10 seconds =       0.17 minutes
                                     G D M A

                                 by Anthony Stone

                           version 2.2.06, 22 June 2011

               Distributed Multipoles from Gaussian wavefunctions

Starting at 9:30:19 on 28 Apr 2020

Using SCF density matrix from file ./SSI/SSI-131LEU-136VAL-1-dimer.test.10626.fchk

                         Distributed Multipole Analysis

Standard DMA

Positions and radii in angstrom
Multipole moments in atomic units, ea_0^k for rank k

C          x = -1.133218  y = -1.705183  z = -0.078956 angstrom
           Maximum rank =  0   Radius =  0.650 angstrom
                   Q00  =  -0.237973

C          x = -0.058218  y = -2.775183  z = -0.217956 angstrom
           Maximum rank =  0   Radius =  0.650 angstrom
                   Q00  =  -0.238778

H          x = -0.903218  y = -0.987183  z =  0.699044 angstrom
           Maximum rank =  0   Radius =  0.325 angstrom
                   Q00  =   0.081085

H          x = -1.281218  y = -1.193183  z = -1.028956 angstrom
           Maximum rank =  0   Radius =  0.325 angstrom
                   Q00  =   0.079569

H          x = -2.068218  y = -2.197183  z =  0.188044 angstrom
           Maximum rank =  0   Radius =  0.325 angstrom
                   Q00  =   0.079464

H          x = -0.498218  y = -3.639183  z = -0.714956 angstrom
           Maximum rank =  0   Radius =  0.325 angstrom
                   Q00  =   0.082414

H          x =  0.300072  y = -3.086423  z =  0.774394 angstrom
           Maximum rank =  0   Radius =  0.325 angstrom
                   Q00  =   0.078369

H          x =  0.779642  y = -2.421722  z = -0.836871 angstrom
           Maximum rank =  0   Radius =  0.325 angstrom
                   Q00  =   0.077025

C          x = -0.063218  y =  1.902817  z =  0.004044 angstrom
           Maximum rank =  0   Radius =  0.650 angstrom
                   Q00  =  -0.231073

C          x =  1.256782  y =  2.586817  z =  0.297044 angstrom
           Maximum rank =  0   Radius =  0.650 angstrom
                   Q00  =  -0.236175

H          x = -0.892218  y =  2.459817  z =  0.441044 angstrom
           Maximum rank =  0   Radius =  0.325 angstrom
                   Q00  =   0.077283

H          x = -0.210218  y =  1.822817  z = -1.073956 angstrom
           Maximum rank =  0   Radius =  0.325 angstrom
                   Q00  =   0.077584

H          x = -0.033218  y =  0.907817  z =  0.433044 angstrom
           Maximum rank =  0   Radius =  0.325 angstrom
                   Q00  =   0.081495

H          x =  2.037782  y =  2.026817  z = -0.214956 angstrom
           Maximum rank =  0   Radius =  0.325 angstrom
                   Q00  =   0.074564

H          x =  1.474682  y =  2.581157  z =  1.375231 angstrom
           Maximum rank =  0   Radius =  0.325 angstrom
                   Q00  =   0.077699

H          x =  1.268992  y =  3.616097  z = -0.090820 angstrom
           Maximum rank =  0   Radius =  0.325 angstrom
                   Q00  =   0.077446

Total multipoles referred to origin at
           x =   0.000000,  y =    0.000000,  z =    0.000000 angstrom
                   Q00  =  -0.000000

Finished at 9:30:19 on 28 Apr 2020

  DMA results are available in the Python driver through the
	  variable('DMA DISTRIBUTED MULTIPOLES')
  and
	  variable('DMA TOTAL MULTIPOLES')
  commands.

    Psi4 stopped on: Tuesday, 28 April 2020 09:30AM
    Psi4 wall time for execution: 0:00:10.54

*** Psi4 exiting successfully. Buy a developer a beer!
