                               Psi4 1.3.2 release

  ==> Input File <==

--------------------------------------------------------------------------
import numpy as np
set {scf_type pk
basis cc-pvdz
d_convergence 10
gdma_switch   0
gdma_limit    0
gdma_origin   [ 0.0,  0.0,  0.0 ]
}
molecule test {
    units Angstrom
    0 1
    --
    0 1
    C                0.160602735744834    -1.642024088668808    -0.160787444469739
    C                0.596602735744834    -2.777024088668808     0.732212555530261
    H                0.423602735744834    -1.838024088668808    -1.199787444469739
    H               -0.917397264255166    -1.500024088668808    -0.084787444469739
    H                0.682602735744834    -0.763024088668808     0.194212555530261
    H                0.285602735744834    -3.725024088668808     0.293212555530261
    H                0.072602735744834    -2.657024088668808     1.681212555530261
    H                1.680682735744834    -2.781304088668809     0.918606555530261
    C                0.160602735744834     1.690975911331192    -0.202787444469739
    C               -0.912397264255166     2.725975911331191    -0.378787444469739
    H                1.125602735744834     2.138975911331192    -0.434787444469739
    H                0.168602735744834     1.332975911331192     0.824212555530261
    H               -0.032397264255166     0.882975911331192    -0.903787444469739
    H               -0.567397264255166     3.664975911331192     0.045212555530261
    H               -1.764397264255166     2.402975911331192     0.212212555530261
    H               -1.222137264255166     2.866505911331192    -1.424880444469739

}
e, wfn = energy('scf', return_wfn=True)
gdma(wfn)
dmavals = variable('DMA DISTRIBUTED MULTIPOLES')
charges = np.array(dmavals)
print(charges)
np.save('SSI-030ILE-055ILE-1-dimer.npy', np.array(charges))--------------------------------------------------------------------------

*** tstart() called on ds3
*** at Sun Apr 26 22:15:08 2020

   => Loading Basis Set <=

    Name: CC-PVDZ
    Role: ORBITAL
    Keyword: BASIS
    atoms 1-2, 9-10  entry C          line   138 file /theoryfs2/ds/metcalf/miniconda2/envs/tf2gpu/share/psi4/basis/cc-pvdz.gbs
    atoms 3-8, 11-16 entry H          line    22 file /theoryfs2/ds/metcalf/miniconda2/envs/tf2gpu/share/psi4/basis/cc-pvdz.gbs

         ---------------------------------------------------------
                                   SCF
               by Justin Turney, Rob Parrish, Andy Simmonett
                          and Daniel G. A. Smith
                              RHF Reference
                        1 Threads,    500 MiB Core
         ---------------------------------------------------------

  ==> Geometry <==

    Molecular point group: c1
    Full point group: C1

    Geometry (in Angstrom), charge = 0, multiplicity = 1:

       Center              X                  Y                   Z               Mass
    ------------   -----------------  -----------------  -----------------  -----------------
         C            0.160602735745    -1.642024088669    -0.160787444470    12.000000000000
         C            0.596602735745    -2.777024088669     0.732212555530    12.000000000000
         H            0.423602735745    -1.838024088669    -1.199787444470     1.007825032230
         H           -0.917397264255    -1.500024088669    -0.084787444470     1.007825032230
         H            0.682602735745    -0.763024088669     0.194212555530     1.007825032230
         H            0.285602735745    -3.725024088669     0.293212555530     1.007825032230
         H            0.072602735745    -2.657024088669     1.681212555530     1.007825032230
         H            1.680682735745    -2.781304088669     0.918606555530     1.007825032230
         C            0.160602735745     1.690975911331    -0.202787444470    12.000000000000
         C           -0.912397264255     2.725975911331    -0.378787444470    12.000000000000
         H            1.125602735745     2.138975911331    -0.434787444470     1.007825032230
         H            0.168602735745     1.332975911331     0.824212555530     1.007825032230
         H           -0.032397264255     0.882975911331    -0.903787444470     1.007825032230
         H           -0.567397264255     3.664975911331     0.045212555530     1.007825032230
         H           -1.764397264255     2.402975911331     0.212212555530     1.007825032230
         H           -1.222137264255     2.866505911331    -1.424880444470     1.007825032230

  Running in c1 symmetry.

  Rotational constants: A =      0.72629  B =      0.04835  C =      0.04788 [cm^-1]
  Rotational constants: A =  21773.48105  B =   1449.43163  C =   1435.42114 [MHz]
  Nuclear repulsion =  124.517583799072540

  Charge       = 0
  Multiplicity = 1
  Electrons    = 36
  Nalpha       = 18
  Nbeta        = 18

  ==> Algorithm <==

  SCF Algorithm Type is PK.
  DIIS enabled.
  MOM disabled.
  Fractional occupation disabled.
  Guess Type is SAD.
  Energy threshold   = 1.00e-06
  Density threshold  = 1.00e-10
  Integral threshold = 0.00e+00

  ==> Primary Basis <==

  Basis Set: CC-PVDZ
    Blend: CC-PVDZ
    Number of shells: 60
    Number of basis function: 116
    Number of Cartesian functions: 120
    Spherical Harmonics?: true
    Max angular momentum: 2

  ==> Pre-Iterations <==

   -------------------------------------------------------
    Irrep   Nso     Nmo     Nalpha   Nbeta   Ndocc  Nsocc
   -------------------------------------------------------
     A        116     116       0       0       0       0
   -------------------------------------------------------
    Total     116     116      18      18      18       0
   -------------------------------------------------------

  ==> Integral Setup <==

  Using integral reordering PK algorithm.
  Sizing the integral batches needed.
  Building batch lookup table.
   Calculation information:
      Number of atoms:                  16
      Number of AO shells:              60
      Number of primitives:            148
      Number of atomic orbitals:       120
      Number of basis functions:       116

      Integral cutoff                 1.00e-12
      Number of threads:                 1

	Batch   1 pq = [       0,    6786] index = [             0,23028291] size =     23028291
  Task number: 3
  Buffer size: 11059200
  Buffer per thread: 2
  We computed 1466333 shell quartets total.
  Whereas there are 1675365 unique shell quartets.

  ==> DiskJK: Disk-Based J/K Matrices <==

    J tasked:                  Yes
    K tasked:                  Yes
    wK tasked:                  No
    Memory [MiB]:              375
    Schwarz Cutoff:          1E-12

    OpenMP threads:              1

  Minimum eigenvalue in the overlap matrix is 5.6090236036E-03.
  Using Symmetric Orthogonalization.

  SCF Guess: Superposition of Atomic Densities via on-the-fly atomic UHF.

  ==> Iterations <==

                        Total Energy        Delta E     RMS |[F,P]|

   @RHF iter SAD:  -157.50820064457426   -1.57508e+02   0.00000e+00
   @RHF iter   1:  -158.29110225761480   -7.82902e-01   4.30827e-03 DIIS
   @RHF iter   2:  -158.42973346303310   -1.38631e-01   1.82401e-03 DIIS
   @RHF iter   3:  -158.45382396629913   -2.40905e-02   3.56666e-04 DIIS
   @RHF iter   4:  -158.45572824897840   -1.90428e-03   4.07506e-05 DIIS
   @RHF iter   5:  -158.45575493027377   -2.66813e-05   7.83025e-06 DIIS
   @RHF iter   6:  -158.45575580331624   -8.73042e-07   1.68365e-06 DIIS
   @RHF iter   7:  -158.45575583353303   -3.02168e-08   4.07141e-07 DIIS
   @RHF iter   8:  -158.45575583571087   -2.17784e-09   7.57638e-08 DIIS
   @RHF iter   9:  -158.45575583582837   -1.17495e-10   1.64428e-08 DIIS
   @RHF iter  10:  -158.45575583583354   -5.17275e-12   3.86191e-09 DIIS
   @RHF iter  11:  -158.45575583583337    1.70530e-13   1.13949e-09 DIIS
   @RHF iter  12:  -158.45575583583317    1.98952e-13   2.58222e-10 DIIS
   @RHF iter  13:  -158.45575583583386   -6.82121e-13   4.19104e-11 DIIS
  Energy and wave function converged.

  ==> Post-Iterations <==

    Orbital Energies [Eh]
    ---------------------

    Doubly Occupied:

       1A    -11.214089     2A    -11.212834     3A    -11.211146
       4A    -11.210782     5A     -1.027660     6A     -1.021886
       7A     -0.840517     8A     -0.826724     9A     -0.607721
      10A     -0.605250    11A     -0.600098    12A     -0.596874
      13A     -0.511708    14A     -0.502838    15A     -0.487636
      16A     -0.482458    17A     -0.479492    18A     -0.465504

    Virtual:

      19A      0.177346    20A      0.193463    21A      0.232137
      22A      0.238174    23A      0.241540    24A      0.253796
      25A      0.260828    26A      0.274548    27A      0.288846
      28A      0.301196    29A      0.307330    30A      0.337709
      31A      0.410211    32A      0.436053    33A      0.578726
      34A      0.595812    35A      0.601738    36A      0.611188
      37A      0.614899    38A      0.637862    39A      0.671138
      40A      0.700243    41A      0.720049    42A      0.805106
      43A      0.875174    44A      0.881702    45A      0.886881
      46A      0.887904    47A      0.897049    48A      0.899839
      49A      0.910597    50A      0.912054    51A      0.920207
      52A      0.925337    53A      0.946711    54A      0.962637
      55A      0.980049    56A      0.998085    57A      1.110523
      58A      1.118787    59A      1.135097    60A      1.186759
      61A      1.222831    62A      1.266476    63A      1.483208
      64A      1.494599    65A      1.501638    66A      1.513594
      67A      1.573423    68A      1.609558    69A      1.680596
      70A      1.687869    71A      1.694215    72A      1.702366
      73A      1.838130    74A      1.856943    75A      1.870321
      76A      1.889378    77A      1.906306    78A      1.912268
      79A      1.933193    80A      1.940159    81A      1.946156
      82A      1.951205    83A      1.959344    84A      1.968315
      85A      1.972235    86A      1.993473    87A      2.041988
      88A      2.081200    89A      2.124346    90A      2.141851
      91A      2.175658    92A      2.218297    93A      2.293042
      94A      2.303268    95A      2.317827    96A      2.348716
      97A      2.435857    98A      2.453821    99A      2.472233
     100A      2.473240   101A      2.574297   102A      2.588062
     103A      2.619091   104A      2.634142   105A      2.768660
     106A      2.777551   107A      2.781426   108A      2.826538
     109A      2.840533   110A      2.844059   111A      2.860566
     112A      2.868726   113A      2.951742   114A      2.957826
     115A      2.976566   116A      2.984658

    Final Occupation by Irrep:
              A
    DOCC [    18 ]

  @RHF Final Energy:  -158.45575583583386

   => Energetics <=

    Nuclear Repulsion Energy =            124.5175837990725398
    One-Electron Energy =                -458.1362478797798872
    Two-Electron Energy =                 175.1629082448734778
    Total Energy =                       -158.4557558358338554

Computation Completed

Properties will be evaluated at   0.000000,   0.000000,   0.000000 [a0]

Properties computed using the SCF density matrix

  Nuclear Dipole Moment: [e a0]
     X:    -0.0604      Y:     0.0234      Z:     0.1133

  Electronic Dipole Moment: [e a0]
     X:     0.0596      Y:    -0.0044      Z:    -0.1081

  Dipole Moment: [e a0]
     X:    -0.0008      Y:     0.0190      Z:     0.0052     Total:     0.0198

  Dipole Moment: [D]
     X:    -0.0021      Y:     0.0484      Z:     0.0132     Total:     0.0502

*** tstop() called on ds3 at Sun Apr 26 22:15:19 2020
Module time:
	user time   =       7.90 seconds =       0.13 minutes
	system time =       2.99 seconds =       0.05 minutes
	total time  =         11 seconds =       0.18 minutes
Total time:
	user time   =       7.90 seconds =       0.13 minutes
	system time =       2.99 seconds =       0.05 minutes
	total time  =         11 seconds =       0.18 minutes
                                     G D M A

                                 by Anthony Stone

                           version 2.2.06, 22 June 2011

               Distributed Multipoles from Gaussian wavefunctions

Starting at 22:15:19 on 26 Apr 2020

Using SCF density matrix from file ./SSI/SSI-030ILE-055ILE-1-dimer.test.9604.fchk

                         Distributed Multipole Analysis

Standard DMA

Positions and radii in angstrom
Multipole moments in atomic units, ea_0^k for rank k

C          x =  0.160603  y = -1.642024  z = -0.160787 angstrom
           Maximum rank =  0   Radius =  0.650 angstrom
                   Q00  =  -0.227027

C          x =  0.596603  y = -2.777024  z =  0.732213 angstrom
           Maximum rank =  0   Radius =  0.650 angstrom
                   Q00  =  -0.236188

H          x =  0.423603  y = -1.838024  z = -1.199787 angstrom
           Maximum rank =  0   Radius =  0.325 angstrom
                   Q00  =   0.075160

H          x = -0.917397  y = -1.500024  z = -0.084787 angstrom
           Maximum rank =  0   Radius =  0.325 angstrom
                   Q00  =   0.074675

H          x =  0.682603  y = -0.763024  z =  0.194213 angstrom
           Maximum rank =  0   Radius =  0.325 angstrom
                   Q00  =   0.081770

H          x =  0.285603  y = -3.725024  z =  0.293213 angstrom
           Maximum rank =  0   Radius =  0.325 angstrom
                   Q00  =   0.074904

H          x =  0.072603  y = -2.657024  z =  1.681213 angstrom
           Maximum rank =  0   Radius =  0.325 angstrom
                   Q00  =   0.073203

H          x =  1.680683  y = -2.781304  z =  0.918607 angstrom
           Maximum rank =  0   Radius =  0.325 angstrom
                   Q00  =   0.077965

C          x =  0.160603  y =  1.690976  z = -0.202787 angstrom
           Maximum rank =  0   Radius =  0.650 angstrom
                   Q00  =  -0.214275

C          x = -0.912397  y =  2.725976  z = -0.378787 angstrom
           Maximum rank =  0   Radius =  0.650 angstrom
                   Q00  =  -0.241429

H          x =  1.125603  y =  2.138976  z = -0.434787 angstrom
           Maximum rank =  0   Radius =  0.325 angstrom
                   Q00  =   0.072490

H          x =  0.168603  y =  1.332976  z =  0.824213 angstrom
           Maximum rank =  0   Radius =  0.325 angstrom
                   Q00  =   0.078433

H          x = -0.032397  y =  0.882976  z = -0.903787 angstrom
           Maximum rank =  0   Radius =  0.325 angstrom
                   Q00  =   0.080739

H          x = -0.567397  y =  3.664976  z =  0.045213 angstrom
           Maximum rank =  0   Radius =  0.325 angstrom
                   Q00  =   0.073980

H          x = -1.764397  y =  2.402976  z =  0.212213 angstrom
           Maximum rank =  0   Radius =  0.325 angstrom
                   Q00  =   0.076532

H          x = -1.222137  y =  2.866506  z = -1.424880 angstrom
           Maximum rank =  0   Radius =  0.325 angstrom
                   Q00  =   0.079067

Total multipoles referred to origin at
           x =   0.000000,  y =    0.000000,  z =    0.000000 angstrom
                   Q00  =  -0.000000

Finished at 22:15:19 on 26 Apr 2020

  DMA results are available in the Python driver through the
	  variable('DMA DISTRIBUTED MULTIPOLES')
  and
	  variable('DMA TOTAL MULTIPOLES')
  commands.

    Psi4 stopped on: Sunday, 26 April 2020 10:15PM
    Psi4 wall time for execution: 0:00:10.75

*** Psi4 exiting successfully. Buy a developer a beer!
