                               Psi4 1.3.2 release

  ==> Input File <==

--------------------------------------------------------------------------
import numpy as np
set {scf_type pk
basis cc-pvdz
d_convergence 10
gdma_switch   0
gdma_limit    0
gdma_origin   [ 0.0,  0.0,  0.0 ]
}
molecule test {
    units Angstrom
    0 1
    --
    0 1
    C               -1.244489291347509    -2.012459898620527    -0.568242338717166
    C               -2.210489291347509    -2.579459898620528     0.437757661282834
    H               -0.337489291347509    -1.684459898620527    -0.066242338717166
    H               -0.972489291347509    -2.784459898620527    -1.284242338717166
    H               -1.698489291347508    -1.184459898620527    -1.115242338717165
    H               -3.111489291347509    -2.882459898620527    -0.095242338717166
    H               -2.472359291347508    -1.859309898620527     1.226937661282834
    H               -1.754179291347508    -3.469529898620528     0.895527661282834
    C                1.059510708652492     0.950540101379473    -0.076242338717166
    C                0.505510708652491     2.066540101379473    -0.945242338717166
    O                1.712510708652492     1.450540101379473     1.082757661282834
    H                0.235510708652491     0.323540101379473     0.253757661282834
    H                1.760510708652491     0.344540101379473    -0.652242338717166
    H                1.343510708652492     2.653540101379473    -1.321242338717166
    H                2.512510708652491     1.961540101379473     0.836757661282834
    H               -0.167229291347509     2.692730101379473    -0.340832338717166
    H               -0.013709291347509     1.619010101379473    -1.805542338717166

}
e, wfn = energy('scf', return_wfn=True)
gdma(wfn)
dmavals = variable('DMA DISTRIBUTED MULTIPOLES')
charges = np.array(dmavals)
print(charges)
np.save('SSI-052VAL-057SER-1-dimer.npy', np.array(charges))--------------------------------------------------------------------------

*** tstart() called on ds3
*** at Tue Apr 28 12:04:16 2020

   => Loading Basis Set <=

    Name: CC-PVDZ
    Role: ORBITAL
    Keyword: BASIS
    atoms 1-2, 9-10  entry C          line   138 file /theoryfs2/ds/metcalf/miniconda2/envs/tf2gpu/share/psi4/basis/cc-pvdz.gbs
    atoms 3-8, 12-17 entry H          line    22 file /theoryfs2/ds/metcalf/miniconda2/envs/tf2gpu/share/psi4/basis/cc-pvdz.gbs
    atoms 11         entry O          line   198 file /theoryfs2/ds/metcalf/miniconda2/envs/tf2gpu/share/psi4/basis/cc-pvdz.gbs

         ---------------------------------------------------------
                                   SCF
               by Justin Turney, Rob Parrish, Andy Simmonett
                          and Daniel G. A. Smith
                              RHF Reference
                        1 Threads,    500 MiB Core
         ---------------------------------------------------------

  ==> Geometry <==

    Molecular point group: c1
    Full point group: C1

    Geometry (in Angstrom), charge = 0, multiplicity = 1:

       Center              X                  Y                   Z               Mass
    ------------   -----------------  -----------------  -----------------  -----------------
         C           -1.244489291348    -2.012459898621    -0.568242338717    12.000000000000
         C           -2.210489291348    -2.579459898621     0.437757661283    12.000000000000
         H           -0.337489291348    -1.684459898621    -0.066242338717     1.007825032230
         H           -0.972489291348    -2.784459898621    -1.284242338717     1.007825032230
         H           -1.698489291348    -1.184459898621    -1.115242338717     1.007825032230
         H           -3.111489291348    -2.882459898621    -0.095242338717     1.007825032230
         H           -2.472359291348    -1.859309898621     1.226937661283     1.007825032230
         H           -1.754179291348    -3.469529898621     0.895527661283     1.007825032230
         C            1.059510708652     0.950540101379    -0.076242338717    12.000000000000
         C            0.505510708652     2.066540101379    -0.945242338717    12.000000000000
         O            1.712510708652     1.450540101379     1.082757661283    15.994914619570
         H            0.235510708652     0.323540101379     0.253757661283     1.007825032230
         H            1.760510708652     0.344540101379    -0.652242338717     1.007825032230
         H            1.343510708652     2.653540101379    -1.321242338717     1.007825032230
         H            2.512510708652     1.961540101379     0.836757661283     1.007825032230
         H           -0.167229291348     2.692730101379    -0.340832338717     1.007825032230
         H           -0.013709291348     1.619010101379    -1.805542338717     1.007825032230

  Running in c1 symmetry.

  Rotational constants: A =      0.23531  B =      0.03769  C =      0.03449 [cm^-1]
  Rotational constants: A =   7054.39355  B =   1130.00690  C =   1034.09902 [MHz]
  Nuclear repulsion =  176.092649579208882

  Charge       = 0
  Multiplicity = 1
  Electrons    = 44
  Nalpha       = 22
  Nbeta        = 22

  ==> Algorithm <==

  SCF Algorithm Type is PK.
  DIIS enabled.
  MOM disabled.
  Fractional occupation disabled.
  Guess Type is SAD.
  Energy threshold   = 1.00e-06
  Density threshold  = 1.00e-10
  Integral threshold = 0.00e+00

  ==> Primary Basis <==

  Basis Set: CC-PVDZ
    Blend: CC-PVDZ
    Number of shells: 66
    Number of basis function: 130
    Number of Cartesian functions: 135
    Spherical Harmonics?: true
    Max angular momentum: 2

  ==> Pre-Iterations <==

   -------------------------------------------------------
    Irrep   Nso     Nmo     Nalpha   Nbeta   Ndocc  Nsocc
   -------------------------------------------------------
     A        130     130       0       0       0       0
   -------------------------------------------------------
    Total     130     130      22      22      22       0
   -------------------------------------------------------

  ==> Integral Setup <==

  Using integral reordering PK algorithm.
  Sizing the integral batches needed.
  Building batch lookup table.
   Calculation information:
      Number of atoms:                  17
      Number of AO shells:              66
      Number of primitives:            170
      Number of atomic orbitals:       135
      Number of basis functions:       130

      Integral cutoff                 1.00e-12
      Number of threads:                 1

	Batch   1 pq = [       0,    8515] index = [             0,36256870] size =     36256870
  Task number: 4
  Buffer size: 11059200
  Buffer per thread: 2
  We computed 1897301 shell quartets total.
  Whereas there are 2445366 unique shell quartets.

  ==> DiskJK: Disk-Based J/K Matrices <==

    J tasked:                  Yes
    K tasked:                  Yes
    wK tasked:                  No
    Memory [MiB]:              375
    Schwarz Cutoff:          1E-12

    OpenMP threads:              1

  Minimum eigenvalue in the overlap matrix is 5.9072837859E-03.
  Using Symmetric Orthogonalization.

  SCF Guess: Superposition of Atomic Densities via on-the-fly atomic UHF.

  ==> Iterations <==

                        Total Energy        Delta E     RMS |[F,P]|

   @RHF iter SAD:  -232.11878992598565   -2.32119e+02   0.00000e+00
   @RHF iter   1:  -233.13776890216232   -1.01898e+00   4.24157e-03 DIIS
   @RHF iter   2:  -233.28967211121346   -1.51903e-01   1.96626e-03 DIIS
   @RHF iter   3:  -233.31878279782023   -2.91107e-02   3.84859e-04 DIIS
   @RHF iter   4:  -233.32090387325772   -2.12108e-03   1.26483e-04 DIIS
   @RHF iter   5:  -233.32105213325957   -1.48260e-04   2.54159e-05 DIIS
   @RHF iter   6:  -233.32106104273930   -8.90948e-06   4.82328e-06 DIIS
   @RHF iter   7:  -233.32106150330424   -4.60565e-07   1.19859e-06 DIIS
   @RHF iter   8:  -233.32106153235287   -2.90486e-08   4.15260e-07 DIIS
   @RHF iter   9:  -233.32106153591585   -3.56297e-09   1.08084e-07 DIIS
   @RHF iter  10:  -233.32106153620319   -2.87343e-10   2.22131e-08 DIIS
   @RHF iter  11:  -233.32106153621430   -1.11129e-11   5.76046e-09 DIIS
   @RHF iter  12:  -233.32106153621535   -1.05160e-12   1.70774e-09 DIIS
   @RHF iter  13:  -233.32106153621567   -3.12639e-13   4.84249e-10 DIIS
   @RHF iter  14:  -233.32106153621592   -2.55795e-13   1.64667e-10 DIIS
   @RHF iter  15:  -233.32106153621527    6.53699e-13   4.79667e-11 DIIS
  Energy and wave function converged.

  ==> Post-Iterations <==

    Orbital Energies [Eh]
    ---------------------

    Doubly Occupied:

       1A    -20.546421     2A    -11.272120     3A    -11.222577
       4A    -11.218152     5A    -11.216268     6A     -1.343890
       7A     -1.026093     8A     -1.009891     9A     -0.841021
      10A     -0.834398    11A     -0.678394    12A     -0.623459
      13A     -0.603935    14A     -0.599684    15A     -0.596129
      16A     -0.540160    17A     -0.520022    18A     -0.506836
      19A     -0.487271    20A     -0.484280    21A     -0.468743
      22A     -0.431687

    Virtual:

      23A      0.170748    24A      0.186715    25A      0.212951
      26A      0.227157    27A      0.239736    28A      0.250122
      29A      0.258665    30A      0.268058    31A      0.275033
      32A      0.292902    33A      0.306564    34A      0.321709
      35A      0.379463    36A      0.399747    37A      0.415828
      38A      0.593700    39A      0.603338    40A      0.609688
      41A      0.613487    42A      0.640842    43A      0.663617
      44A      0.678857    45A      0.713337    46A      0.724557
      47A      0.808043    48A      0.810316    49A      0.858120
      50A      0.860088    51A      0.884384    52A      0.887262
      53A      0.891737    54A      0.895382    55A      0.900241
      56A      0.906526    57A      0.913018    58A      0.921185
      59A      0.958507    60A      0.967160    61A      0.998878
      62A      1.120712    63A      1.121514    64A      1.142149
      65A      1.162064    66A      1.222655    67A      1.243659
      68A      1.277223    69A      1.332812    70A      1.383052
      71A      1.479144    72A      1.485992    73A      1.487369
      74A      1.527176    75A      1.572521    76A      1.607389
      77A      1.635499    78A      1.672633    79A      1.681822
      80A      1.698979    81A      1.745965    82A      1.841730
      83A      1.855291    84A      1.873975    85A      1.886875
      86A      1.893293    87A      1.911908    88A      1.935543
      89A      1.947111    90A      1.954145    91A      1.958027
      92A      1.960981    93A      1.968699    94A      1.976336
      95A      1.987210    96A      2.000024    97A      2.062403
      98A      2.087330    99A      2.112826   100A      2.120078
     101A      2.178034   102A      2.258246   103A      2.266935
     104A      2.304849   105A      2.316174   106A      2.366727
     107A      2.412774   108A      2.457216   109A      2.485391
     110A      2.516683   111A      2.535361   112A      2.554288
     113A      2.567382   114A      2.581430   115A      2.752760
     116A      2.764358   117A      2.772496   118A      2.791855
     119A      2.808420   120A      2.855071   121A      2.860726
     122A      2.877204   123A      2.930576   124A      2.974099
     125A      2.979191   126A      3.304977   127A      3.400495
     128A      3.448476   129A      3.652243   130A      4.086174

    Final Occupation by Irrep:
              A
    DOCC [    22 ]

  @RHF Final Energy:  -233.32106153621527

   => Energetics <=

    Nuclear Repulsion Energy =            176.0926495792088815
    One-Electron Energy =                -664.6845635964623398
    Two-Electron Energy =                 255.2708524810381618
    Total Energy =                       -233.3210615362152680

Computation Completed

Properties will be evaluated at   0.000000,   0.000000,   0.000000 [a0]

Properties computed using the SCF density matrix

  Nuclear Dipole Moment: [e a0]
     X:    -4.3748      Y:    -3.9958      Z:    -3.2458

  Electronic Dipole Moment: [e a0]
     X:     4.5701      Y:     4.0730      Z:     2.6144

  Dipole Moment: [e a0]
     X:     0.1953      Y:     0.0772      Z:    -0.6314     Total:     0.6654

  Dipole Moment: [D]
     X:     0.4963      Y:     0.1961      Z:    -1.6049     Total:     1.6913

*** tstop() called on ds3 at Tue Apr 28 12:04:37 2020
Module time:
	user time   =      10.66 seconds =       0.18 minutes
	system time =       4.53 seconds =       0.08 minutes
	total time  =         21 seconds =       0.35 minutes
Total time:
	user time   =      10.66 seconds =       0.18 minutes
	system time =       4.53 seconds =       0.08 minutes
	total time  =         21 seconds =       0.35 minutes
                                     G D M A

                                 by Anthony Stone

                           version 2.2.06, 22 June 2011

               Distributed Multipoles from Gaussian wavefunctions

Starting at 12:4:37 on 28 Apr 2020

Using SCF density matrix from file ./SSI/SSI-052VAL-057SER-1-dimer.test.794.fchk

                         Distributed Multipole Analysis

Standard DMA

Positions and radii in angstrom
Multipole moments in atomic units, ea_0^k for rank k

C          x = -1.244489  y = -2.012460  z = -0.568242 angstrom
           Maximum rank =  0   Radius =  0.650 angstrom
                   Q00  =  -0.232924

C          x = -2.210489  y = -2.579460  z =  0.437758 angstrom
           Maximum rank =  0   Radius =  0.650 angstrom
                   Q00  =  -0.229786

H          x = -0.337489  y = -1.684460  z = -0.066242 angstrom
           Maximum rank =  0   Radius =  0.325 angstrom
                   Q00  =   0.079509

H          x = -0.972489  y = -2.784460  z = -1.284242 angstrom
           Maximum rank =  0   Radius =  0.325 angstrom
                   Q00  =   0.077755

H          x = -1.698489  y = -1.184460  z = -1.115242 angstrom
           Maximum rank =  0   Radius =  0.325 angstrom
                   Q00  =   0.073939

H          x = -3.111489  y = -2.882460  z = -0.095242 angstrom
           Maximum rank =  0   Radius =  0.325 angstrom
                   Q00  =   0.075450

H          x = -2.472359  y = -1.859310  z =  1.226938 angstrom
           Maximum rank =  0   Radius =  0.325 angstrom
                   Q00  =   0.080489

H          x = -1.754179  y = -3.469530  z =  0.895528 angstrom
           Maximum rank =  0   Radius =  0.325 angstrom
                   Q00  =   0.075631

C          x =  1.059511  y =  0.950540  z = -0.076242 angstrom
           Maximum rank =  0   Radius =  0.650 angstrom
                   Q00  =   0.110883

C          x =  0.505511  y =  2.066540  z = -0.945242 angstrom
           Maximum rank =  0   Radius =  0.650 angstrom
                   Q00  =  -0.242166

O          x =  1.712511  y =  1.450540  z =  1.082758 angstrom
           Maximum rank =  0   Radius =  0.650 angstrom
                   Q00  =  -0.619843

H          x =  0.235511  y =  0.323540  z =  0.253758 angstrom
           Maximum rank =  0   Radius =  0.325 angstrom
                   Q00  =   0.088887

H          x =  1.760511  y =  0.344540  z = -0.652242 angstrom
           Maximum rank =  0   Radius =  0.325 angstrom
                   Q00  =   0.031888

H          x =  1.343511  y =  2.653540  z = -1.321242 angstrom
           Maximum rank =  0   Radius =  0.325 angstrom
                   Q00  =   0.072417

H          x =  2.512511  y =  1.961540  z =  0.836758 angstrom
           Maximum rank =  0   Radius =  0.325 angstrom
                   Q00  =   0.383001

H          x = -0.167229  y =  2.692730  z = -0.340832 angstrom
           Maximum rank =  0   Radius =  0.325 angstrom
                   Q00  =   0.091350

H          x = -0.013709  y =  1.619010  z = -1.805542 angstrom
           Maximum rank =  0   Radius =  0.325 angstrom
                   Q00  =   0.083520

Total multipoles referred to origin at
           x =   0.000000,  y =    0.000000,  z =    0.000000 angstrom
                   Q00  =  -0.000000

Finished at 12:4:37 on 28 Apr 2020

  DMA results are available in the Python driver through the
	  variable('DMA DISTRIBUTED MULTIPOLES')
  and
	  variable('DMA TOTAL MULTIPOLES')
  commands.

    Psi4 stopped on: Tuesday, 28 April 2020 12:04PM
    Psi4 wall time for execution: 0:00:21.35

*** Psi4 exiting successfully. Buy a developer a beer!
