                               Psi4 1.3.2 release

  ==> Input File <==

--------------------------------------------------------------------------
import numpy as np
set {scf_type pk
basis cc-pvdz
d_convergence 10
gdma_switch   0
gdma_limit    0
gdma_origin   [ 0.0,  0.0,  0.0 ]
}
molecule test {
    units Angstrom
    0 1
    --
    0 1
    C                0.919031041175866     1.860520009651434     1.586849881749381
    C               -0.378968958824134     1.990520009651434     0.812849881749381
    O               -0.762968958824134     3.079520009651434     0.388849881749381
    N               -1.068968958824134     0.880520009651434     0.608849881749381
    H               -1.966968958824134     0.954520009651434     0.154849881749381
    H               -0.722968958824134    -0.033479990348566     0.887849881749381
    H                1.733031041175866     1.959520009651434     0.870849881749381
    H                0.984031041175866     0.870520009651434     2.040849881749381
    H                0.997501041175866     2.619990009651434     2.378709881749381
    C                1.728031041175866    -2.311479990348566    -0.693150118250619
    C                0.268031041175866    -1.921479990348566    -0.799150118250619
    O               -0.410968958824134    -1.731479990348566     0.208849881749381
    N               -0.227968958824134    -1.782479990348566    -2.022150118250619
    H                2.352031041175866    -1.427479990348566    -0.749150118250619
    H                1.967031041175867    -2.959479990348566    -1.533150118250619
    H               -1.214968958824134    -1.593479990348566    -2.103150118250619
    H                0.369031041175866    -1.874479990348566    -2.850150118250619
    H                1.956411041175866    -2.830919990348566     0.249199881749381

}
e, wfn = energy('scf', return_wfn=True)
gdma(wfn)
dmavals = variable('DMA DISTRIBUTED MULTIPOLES')
charges = np.array(dmavals)
print(charges)
np.save('SSI-142GLN-154GLN-1-dimer.npy', np.array(charges))--------------------------------------------------------------------------

*** tstart() called on ds3
*** at Tue Apr 28 12:30:35 2020

   => Loading Basis Set <=

    Name: CC-PVDZ
    Role: ORBITAL
    Keyword: BASIS
    atoms 1-2, 10-11 entry C          line   138 file /theoryfs2/ds/metcalf/miniconda2/envs/tf2gpu/share/psi4/basis/cc-pvdz.gbs
    atoms 3, 12      entry O          line   198 file /theoryfs2/ds/metcalf/miniconda2/envs/tf2gpu/share/psi4/basis/cc-pvdz.gbs
    atoms 4, 13      entry N          line   168 file /theoryfs2/ds/metcalf/miniconda2/envs/tf2gpu/share/psi4/basis/cc-pvdz.gbs
    atoms 5-9, 14-18 entry H          line    22 file /theoryfs2/ds/metcalf/miniconda2/envs/tf2gpu/share/psi4/basis/cc-pvdz.gbs

         ---------------------------------------------------------
                                   SCF
               by Justin Turney, Rob Parrish, Andy Simmonett
                          and Daniel G. A. Smith
                              RHF Reference
                        1 Threads,    500 MiB Core
         ---------------------------------------------------------

  ==> Geometry <==

    Molecular point group: c1
    Full point group: C1

    Geometry (in Angstrom), charge = 0, multiplicity = 1:

       Center              X                  Y                   Z               Mass
    ------------   -----------------  -----------------  -----------------  -----------------
         C            0.919031041176     1.860520009651     1.586849881749    12.000000000000
         C           -0.378968958824     1.990520009651     0.812849881749    12.000000000000
         O           -0.762968958824     3.079520009651     0.388849881749    15.994914619570
         N           -1.068968958824     0.880520009651     0.608849881749    14.003074004430
         H           -1.966968958824     0.954520009651     0.154849881749     1.007825032230
         H           -0.722968958824    -0.033479990349     0.887849881749     1.007825032230
         H            1.733031041176     1.959520009651     0.870849881749     1.007825032230
         H            0.984031041176     0.870520009651     2.040849881749     1.007825032230
         H            0.997501041176     2.619990009651     2.378709881749     1.007825032230
         C            1.728031041176    -2.311479990349    -0.693150118251    12.000000000000
         C            0.268031041176    -1.921479990349    -0.799150118251    12.000000000000
         O           -0.410968958824    -1.731479990349     0.208849881749    15.994914619570
         N           -0.227968958824    -1.782479990349    -2.022150118251    14.003074004430
         H            2.352031041176    -1.427479990349    -0.749150118251     1.007825032230
         H            1.967031041176    -2.959479990349    -1.533150118251     1.007825032230
         H           -1.214968958824    -1.593479990349    -2.103150118251     1.007825032230
         H            0.369031041176    -1.874479990349    -2.850150118251     1.007825032230
         H            1.956411041176    -2.830919990349     0.249199881749     1.007825032230

  Running in c1 symmetry.

  Rotational constants: A =      0.11236  B =      0.02663  C =      0.02447 [cm^-1]
  Rotational constants: A =   3368.60156  B =    798.36196  C =    733.60412 [MHz]
  Nuclear repulsion =  368.333089954743969

  Charge       = 0
  Multiplicity = 1
  Electrons    = 64
  Nalpha       = 32
  Nbeta        = 32

  ==> Algorithm <==

  SCF Algorithm Type is PK.
  DIIS enabled.
  MOM disabled.
  Fractional occupation disabled.
  Guess Type is SAD.
  Energy threshold   = 1.00e-06
  Density threshold  = 1.00e-10
  Integral threshold = 0.00e+00

  ==> Primary Basis <==

  Basis Set: CC-PVDZ
    Blend: CC-PVDZ
    Number of shells: 78
    Number of basis function: 162
    Number of Cartesian functions: 170
    Spherical Harmonics?: true
    Max angular momentum: 2

  ==> Pre-Iterations <==

   -------------------------------------------------------
    Irrep   Nso     Nmo     Nalpha   Nbeta   Ndocc  Nsocc
   -------------------------------------------------------
     A        162     162       0       0       0       0
   -------------------------------------------------------
    Total     162     162      32      32      32       0
   -------------------------------------------------------

  ==> Integral Setup <==

  Using integral reordering PK algorithm.
  Sizing the integral batches needed.
  Building batch lookup table.
   Calculation information:
      Number of atoms:                  18
      Number of AO shells:              78
      Number of primitives:            226
      Number of atomic orbitals:       170
      Number of basis functions:       162

      Integral cutoff                 1.00e-12
      Number of threads:                 1

	Batch   1 pq = [       0,    9405] index = [             0,44231715] size =     44231715
	Batch   2 pq = [    9405,   13203] index = [      44231715,87166206] size =     42934491
  Task number: 8
  Buffer size: 11059200
  Buffer per thread: 2
  We computed 3915108 shell quartets total.
  Whereas there are 4747821 unique shell quartets.

  ==> DiskJK: Disk-Based J/K Matrices <==

    J tasked:                  Yes
    K tasked:                  Yes
    wK tasked:                  No
    Memory [MiB]:              375
    Schwarz Cutoff:          1E-12

    OpenMP threads:              1

  Minimum eigenvalue in the overlap matrix is 4.5736963341E-03.
  Using Symmetric Orthogonalization.

  SCF Guess: Superposition of Atomic Densities via on-the-fly atomic UHF.

  ==> Iterations <==

                        Total Energy        Delta E     RMS |[F,P]|

   @RHF iter SAD:  -414.57015474563389   -4.14570e+02   0.00000e+00
   @RHF iter   1:  -415.70899677245120   -1.13884e+00   4.62284e-03 DIIS
   @RHF iter   2:  -415.92027864056905   -2.11282e-01   2.65868e-03 DIIS
   @RHF iter   3:  -415.98627946446067   -6.60008e-02   5.04374e-04 DIIS
   @RHF iter   4:  -415.99034240201047   -4.06294e-03   1.95219e-04 DIIS
   @RHF iter   5:  -415.99104059790386   -6.98196e-04   3.59154e-05 DIIS
   @RHF iter   6:  -415.99108828845232   -4.76905e-05   1.84210e-05 DIIS
   @RHF iter   7:  -415.99109734177898   -9.05333e-06   6.81603e-06 DIIS
   @RHF iter   8:  -415.99109925331277   -1.91153e-06   2.05549e-06 DIIS
   @RHF iter   9:  -415.99109942394983   -1.70637e-07   6.52263e-07 DIIS
   @RHF iter  10:  -415.99109943308127   -9.13144e-09   2.80610e-07 DIIS
   @RHF iter  11:  -415.99109943474548   -1.66420e-09   4.56963e-08 DIIS
   @RHF iter  12:  -415.99109943481255   -6.70752e-11   1.24497e-08 DIIS
   @RHF iter  13:  -415.99109943481710   -4.54747e-12   3.37765e-09 DIIS
   @RHF iter  14:  -415.99109943481852   -1.42109e-12   1.34343e-09 DIIS
   @RHF iter  15:  -415.99109943481875   -2.27374e-13   4.11258e-10 DIIS
   @RHF iter  16:  -415.99109943481824    5.11591e-13   1.43302e-10 DIIS
   @RHF iter  17:  -415.99109943481818    5.68434e-14   6.22773e-11 DIIS
  Energy and wave function converged.

  ==> Post-Iterations <==

    Orbital Energies [Eh]
    ---------------------

    Doubly Occupied:

       1A    -20.530051     2A    -20.477062     3A    -15.611729
       4A    -15.552002     5A    -11.374105     6A    -11.322901
       7A    -11.258920     8A    -11.226115     9A     -1.395845
      10A     -1.342261    11A     -1.237904    12A     -1.184940
      13A     -1.020076    14A     -0.981205    15A     -0.820074
      16A     -0.773451    17A     -0.747106    18A     -0.704885
      19A     -0.672179    20A     -0.633369    21A     -0.631419
      22A     -0.595508    23A     -0.594264    24A     -0.577335
      25A     -0.550438    26A     -0.538324    27A     -0.535891
      28A     -0.499810    29A     -0.438006    30A     -0.430120
      31A     -0.385750    32A     -0.373030

    Virtual:

      33A      0.145376    34A      0.170008    35A      0.190341
      36A      0.199251    37A      0.216445    38A      0.224791
      39A      0.243371    40A      0.251421    41A      0.262368
      42A      0.274465    43A      0.303948    44A      0.348403
      45A      0.364142    46A      0.408893    47A      0.475790
      48A      0.482776    49A      0.529931    50A      0.592719
      51A      0.618979    52A      0.622961    53A      0.656357
      54A      0.672456    55A      0.685962    56A      0.705130
      57A      0.713247    58A      0.720207    59A      0.725503
      60A      0.738996    61A      0.762009    62A      0.789951
      63A      0.821281    64A      0.840813    65A      0.864610
      66A      0.867829    67A      0.879034    68A      0.893961
      69A      0.907265    70A      0.921732    71A      0.939688
      72A      0.968128    73A      0.979217    74A      0.994263
      75A      1.028951    76A      1.037549    77A      1.057572
      78A      1.079915    79A      1.124331    80A      1.134213
      81A      1.144449    82A      1.209941    83A      1.307781
      84A      1.335588    85A      1.337629    86A      1.373107
      87A      1.381503    88A      1.392869    89A      1.399848
      90A      1.427892    91A      1.433732    92A      1.446272
      93A      1.449755    94A      1.478430    95A      1.547801
      96A      1.611321    97A      1.624245    98A      1.643163
      99A      1.665202   100A      1.679554   101A      1.707100
     102A      1.735817   103A      1.796510   104A      1.826516
     105A      1.860630   106A      1.865538   107A      1.874459
     108A      1.880509   109A      1.888209   110A      1.900114
     111A      1.931767   112A      1.943667   113A      1.948190
     114A      1.959440   115A      1.984328   116A      2.017580
     117A      2.021840   118A      2.056417   119A      2.086695
     120A      2.128841   121A      2.160829   122A      2.166779
     123A      2.204964   124A      2.245742   125A      2.258874
     126A      2.319688   127A      2.387754   128A      2.425684
     129A      2.432893   130A      2.461696   131A      2.471124
     132A      2.485765   133A      2.522372   134A      2.533792
     135A      2.589031   136A      2.596568   137A      2.613231
     138A      2.699590   139A      2.708195   140A      2.742844
     141A      2.766520   142A      2.781240   143A      2.795015
     144A      2.824547   145A      2.845334   146A      2.865379
     147A      2.958749   148A      3.015000   149A      3.073103
     150A      3.110863   151A      3.122561   152A      3.161137
     153A      3.252235   154A      3.342418   155A      3.463502
     156A      3.519627   157A      3.526644   158A      3.561555
     159A      3.837683   160A      3.889425   161A      3.910185
     162A      3.930073

    Final Occupation by Irrep:
              A
    DOCC [    32 ]

  @RHF Final Energy:  -415.99109943481818

   => Energetics <=

    Nuclear Repulsion Energy =            368.3330899547439685
    One-Electron Energy =               -1298.6162288448231266
    Two-Electron Energy =                 514.2920394552610333
    Total Energy =                       -415.9910994348181248

Computation Completed

Properties will be evaluated at   0.000000,   0.000000,   0.000000 [a0]

Properties computed using the SCF density matrix

  Nuclear Dipole Moment: [e a0]
     X:     6.0487      Y:    -4.0359      Z:    -0.6055

  Electronic Dipole Moment: [e a0]
     X:    -5.0270      Y:     1.8596      Z:    -0.6966

  Dipole Moment: [e a0]
     X:     1.0217      Y:    -2.1763      Z:    -1.3021     Total:     2.7341

  Dipole Moment: [D]
     X:     2.5969      Y:    -5.5315      Z:    -3.3095     Total:     6.9494

*** tstop() called on ds3 at Tue Apr 28 12:31:48 2020
Module time:
	user time   =      30.63 seconds =       0.51 minutes
	system time =      12.76 seconds =       0.21 minutes
	total time  =         73 seconds =       1.22 minutes
Total time:
	user time   =      30.63 seconds =       0.51 minutes
	system time =      12.76 seconds =       0.21 minutes
	total time  =         73 seconds =       1.22 minutes
                                     G D M A

                                 by Anthony Stone

                           version 2.2.06, 22 June 2011

               Distributed Multipoles from Gaussian wavefunctions

Starting at 12:31:48 on 28 Apr 2020

Using SCF density matrix from file ./SSI/SSI-142GLN-154GLN-1-dimer.test.15012.fchk

                         Distributed Multipole Analysis

Standard DMA

Positions and radii in angstrom
Multipole moments in atomic units, ea_0^k for rank k

C          x =  0.919031  y =  1.860520  z =  1.586850 angstrom
           Maximum rank =  0   Radius =  0.650 angstrom
                   Q00  =  -0.262842

C          x = -0.378969  y =  1.990520  z =  0.812850 angstrom
           Maximum rank =  0   Radius =  0.650 angstrom
                   Q00  =   0.823926

O          x = -0.762969  y =  3.079520  z =  0.388850 angstrom
           Maximum rank =  0   Radius =  0.650 angstrom
                   Q00  =  -0.821807

N          x = -1.068969  y =  0.880520  z =  0.608850 angstrom
           Maximum rank =  0   Radius =  0.650 angstrom
                   Q00  =  -0.559005

H          x = -1.966969  y =  0.954520  z =  0.154850 angstrom
           Maximum rank =  0   Radius =  0.325 angstrom
                   Q00  =   0.201824

H          x = -0.722969  y = -0.033480  z =  0.887850 angstrom
           Maximum rank =  0   Radius =  0.325 angstrom
                   Q00  =   0.250229

H          x =  1.733031  y =  1.959520  z =  0.870850 angstrom
           Maximum rank =  0   Radius =  0.325 angstrom
                   Q00  =   0.119664

H          x =  0.984031  y =  0.870520  z =  2.040850 angstrom
           Maximum rank =  0   Radius =  0.325 angstrom
                   Q00  =   0.082234

H          x =  0.997501  y =  2.619990  z =  2.378710 angstrom
           Maximum rank =  0   Radius =  0.325 angstrom
                   Q00  =   0.127454

C          x =  1.728031  y = -2.311480  z = -0.693150 angstrom
           Maximum rank =  0   Radius =  0.650 angstrom
                   Q00  =  -0.262322

C          x =  0.268031  y = -1.921480  z = -0.799150 angstrom
           Maximum rank =  0   Radius =  0.650 angstrom
                   Q00  =   0.819486

O          x = -0.410969  y = -1.731480  z =  0.208850 angstrom
           Maximum rank =  0   Radius =  0.650 angstrom
                   Q00  =  -0.782312

N          x = -0.227969  y = -1.782480  z = -2.022150 angstrom
           Maximum rank =  0   Radius =  0.650 angstrom
                   Q00  =  -0.540553

H          x =  2.352031  y = -1.427480  z = -0.749150 angstrom
           Maximum rank =  0   Radius =  0.325 angstrom
                   Q00  =   0.129139

H          x =  1.967031  y = -2.959480  z = -1.533150 angstrom
           Maximum rank =  0   Radius =  0.325 angstrom
                   Q00  =   0.088880

H          x = -1.214969  y = -1.593480  z = -2.103150 angstrom
           Maximum rank =  0   Radius =  0.325 angstrom
                   Q00  =   0.227584

H          x =  0.369031  y = -1.874480  z = -2.850150 angstrom
           Maximum rank =  0   Radius =  0.325 angstrom
                   Q00  =   0.223318

H          x =  1.956411  y = -2.830920  z =  0.249200 angstrom
           Maximum rank =  0   Radius =  0.325 angstrom
                   Q00  =   0.135103

Total multipoles referred to origin at
           x =   0.000000,  y =    0.000000,  z =    0.000000 angstrom
                   Q00  =  -0.000000

Finished at 12:31:48 on 28 Apr 2020

  DMA results are available in the Python driver through the
	  variable('DMA DISTRIBUTED MULTIPOLES')
  and
	  variable('DMA TOTAL MULTIPOLES')
  commands.

    Psi4 stopped on: Tuesday, 28 April 2020 12:31PM
    Psi4 wall time for execution: 0:01:13.22

*** Psi4 exiting successfully. Buy a developer a beer!
