                               Psi4 1.3.2 release

  ==> Input File <==

--------------------------------------------------------------------------
import numpy as np
set {scf_type pk
basis cc-pvdz
d_convergence 10
gdma_switch   0
gdma_limit    0
gdma_origin   [ 0.0,  0.0,  0.0 ]
}
molecule test {
    units Angstrom
    0 1
    --
    0 1
    C                1.257885447335178    -0.475787353682582    -2.115704639254625
    C                1.459885447335178    -1.949787353682582    -1.794704639254626
    H                1.590885447335178    -0.262787353682582    -3.128704639254625
    H                0.195885447335178    -0.231787353682582    -2.062704639254625
    H                1.804885447335178     0.146212646317418    -1.405704639254626
    H                0.954885447335178    -2.524787353682583    -2.570704639254625
    H                2.531495447335177    -2.198078353682582    -1.791824639254625
    H                0.996575447335178    -2.197705353682582    -0.828334639254625
    C               -0.023114552664822     0.387212646317418     2.261295360745375
    C               -0.747114552664822     0.581212646317418     0.949295360745375
    O               -1.637114552664822    -0.189787353682582     0.598295360745374
    N               -0.379114552664822     1.621212646317418     0.215295360745375
    H                0.254885447335178     1.365212646317418     2.661295360745374
    H                0.893885447335178    -0.168787353682582     2.065295360745375
    H               -0.867114552664822     1.801212646317418    -0.647704639254626
    H                0.336885447335178     2.251212646317418     0.547295360745375
    H               -0.632454552664822    -0.143522353682582     3.007645360745375

}
e, wfn = energy('scf', return_wfn=True)
gdma(wfn)
dmavals = variable('DMA DISTRIBUTED MULTIPOLES')
charges = np.array(dmavals)
print(charges)
np.save('SSI-013VAL-154ASN-2-dimer.npy', np.array(charges))--------------------------------------------------------------------------

*** tstart() called on ds3
*** at Mon Apr 27 10:03:28 2020

   => Loading Basis Set <=

    Name: CC-PVDZ
    Role: ORBITAL
    Keyword: BASIS
    atoms 1-2, 9-10  entry C          line   138 file /theoryfs2/ds/metcalf/miniconda2/envs/tf2gpu/share/psi4/basis/cc-pvdz.gbs
    atoms 3-8, 13-17 entry H          line    22 file /theoryfs2/ds/metcalf/miniconda2/envs/tf2gpu/share/psi4/basis/cc-pvdz.gbs
    atoms 11         entry O          line   198 file /theoryfs2/ds/metcalf/miniconda2/envs/tf2gpu/share/psi4/basis/cc-pvdz.gbs
    atoms 12         entry N          line   168 file /theoryfs2/ds/metcalf/miniconda2/envs/tf2gpu/share/psi4/basis/cc-pvdz.gbs

         ---------------------------------------------------------
                                   SCF
               by Justin Turney, Rob Parrish, Andy Simmonett
                          and Daniel G. A. Smith
                              RHF Reference
                        1 Threads,    500 MiB Core
         ---------------------------------------------------------

  ==> Geometry <==

    Molecular point group: c1
    Full point group: C1

    Geometry (in Angstrom), charge = 0, multiplicity = 1:

       Center              X                  Y                   Z               Mass
    ------------   -----------------  -----------------  -----------------  -----------------
         C            1.257885447335    -0.475787353683    -2.115704639255    12.000000000000
         C            1.459885447335    -1.949787353683    -1.794704639255    12.000000000000
         H            1.590885447335    -0.262787353683    -3.128704639255     1.007825032230
         H            0.195885447335    -0.231787353683    -2.062704639255     1.007825032230
         H            1.804885447335     0.146212646317    -1.405704639255     1.007825032230
         H            0.954885447335    -2.524787353683    -2.570704639255     1.007825032230
         H            2.531495447335    -2.198078353683    -1.791824639255     1.007825032230
         H            0.996575447335    -2.197705353683    -0.828334639255     1.007825032230
         C           -0.023114552665     0.387212646317     2.261295360745    12.000000000000
         C           -0.747114552665     0.581212646317     0.949295360745    12.000000000000
         O           -1.637114552665    -0.189787353683     0.598295360745    15.994914619570
         N           -0.379114552665     1.621212646317     0.215295360745    14.003074004430
         H            0.254885447335     1.365212646317     2.661295360745     1.007825032230
         H            0.893885447335    -0.168787353683     2.065295360745     1.007825032230
         H           -0.867114552665     1.801212646317    -0.647704639255     1.007825032230
         H            0.336885447335     2.251212646317     0.547295360745     1.007825032230
         H           -0.632454552665    -0.143522353683     3.007645360745     1.007825032230

  Running in c1 symmetry.

  Rotational constants: A =      0.14963  B =      0.04381  C =      0.04195 [cm^-1]
  Rotational constants: A =   4485.92687  B =   1313.31038  C =   1257.67276 [MHz]
  Nuclear repulsion =  236.377767942222675

  Charge       = 0
  Multiplicity = 1
  Electrons    = 50
  Nalpha       = 25
  Nbeta        = 25

  ==> Algorithm <==

  SCF Algorithm Type is PK.
  DIIS enabled.
  MOM disabled.
  Fractional occupation disabled.
  Guess Type is SAD.
  Energy threshold   = 1.00e-06
  Density threshold  = 1.00e-10
  Integral threshold = 0.00e+00

  ==> Primary Basis <==

  Basis Set: CC-PVDZ
    Blend: CC-PVDZ
    Number of shells: 69
    Number of basis function: 139
    Number of Cartesian functions: 145
    Spherical Harmonics?: true
    Max angular momentum: 2

  ==> Pre-Iterations <==

   -------------------------------------------------------
    Irrep   Nso     Nmo     Nalpha   Nbeta   Ndocc  Nsocc
   -------------------------------------------------------
     A        139     139       0       0       0       0
   -------------------------------------------------------
    Total     139     139      25      25      25       0
   -------------------------------------------------------

  ==> Integral Setup <==

  Using integral reordering PK algorithm.
  Sizing the integral batches needed.
  Building batch lookup table.
   Calculation information:
      Number of atoms:                  17
      Number of AO shells:              69
      Number of primitives:            187
      Number of atomic orbitals:       145
      Number of basis functions:       139

      Integral cutoff                 1.00e-12
      Number of threads:                 1

	Batch   1 pq = [       0,    9730] index = [             0,47341315] size =     47341315
  Task number: 5
  Buffer size: 11059200
  Buffer per thread: 2
  We computed 2629825 shell quartets total.
  Whereas there are 2917320 unique shell quartets.

  ==> DiskJK: Disk-Based J/K Matrices <==

    J tasked:                  Yes
    K tasked:                  Yes
    wK tasked:                  No
    Memory [MiB]:              375
    Schwarz Cutoff:          1E-12

    OpenMP threads:              1

  Minimum eigenvalue in the overlap matrix is 4.5481739891E-03.
  Using Symmetric Orthogonalization.

  SCF Guess: Superposition of Atomic Densities via on-the-fly atomic UHF.

  ==> Iterations <==

                        Total Energy        Delta E     RMS |[F,P]|

   @RHF iter SAD:  -285.95212210392197   -2.85952e+02   0.00000e+00
   @RHF iter   1:  -286.99554171679023   -1.04342e+00   4.64928e-03 DIIS
   @RHF iter   2:  -287.17181570777558   -1.76274e-01   2.61084e-03 DIIS
   @RHF iter   3:  -287.22246315865971   -5.06475e-02   5.40164e-04 DIIS
   @RHF iter   4:  -287.22581841784836   -3.35526e-03   2.20667e-04 DIIS
   @RHF iter   5:  -287.22642303552703   -6.04618e-04   3.39172e-05 DIIS
   @RHF iter   6:  -287.22645315822763   -3.01227e-05   1.51345e-05 DIIS
   @RHF iter   7:  -287.22645783594788   -4.67772e-06   6.14703e-06 DIIS
   @RHF iter   8:  -287.22645888526267   -1.04931e-06   2.11125e-06 DIIS
   @RHF iter   9:  -287.22645901393849   -1.28676e-07   5.36247e-07 DIIS
   @RHF iter  10:  -287.22645901987386   -5.93536e-09   1.65278e-07 DIIS
   @RHF iter  11:  -287.22645902051647   -6.42615e-10   3.65446e-08 DIIS
   @RHF iter  12:  -287.22645902054779   -3.13207e-11   7.93698e-09 DIIS
   @RHF iter  13:  -287.22645902055194   -4.14957e-12   1.52122e-09 DIIS
   @RHF iter  14:  -287.22645902055200   -5.68434e-14   5.62655e-10 DIIS
   @RHF iter  15:  -287.22645902055240   -3.97904e-13   2.07870e-10 DIIS
   @RHF iter  16:  -287.22645902055206    3.41061e-13   5.16929e-11 DIIS
  Energy and wave function converged.

  ==> Post-Iterations <==

    Orbital Energies [Eh]
    ---------------------

    Doubly Occupied:

       1A    -20.503237     2A    -15.589393     3A    -11.347198
       4A    -11.242962     5A    -11.213812     6A    -11.212445
       7A     -1.367533     8A     -1.218287     9A     -1.015888
      10A     -1.001450    11A     -0.831550    12A     -0.799970
      13A     -0.729216    14A     -0.654643    15A     -0.615749
      16A     -0.596296    17A     -0.592540    18A     -0.570296
      19A     -0.558442    20A     -0.522781    21A     -0.496432
      22A     -0.481818    23A     -0.479842    24A     -0.409239
      25A     -0.403439

    Virtual:

      26A      0.153792    27A      0.186824    28A      0.205105
      29A      0.209618    30A      0.227236    31A      0.248285
      32A      0.253536    33A      0.262823    34A      0.271663
      35A      0.290985    36A      0.296656    37A      0.332986
      38A      0.384137    39A      0.398236    40A      0.468895
      41A      0.538701    42A      0.595259    43A      0.602581
      44A      0.606982    45A      0.646388    46A      0.649855
      47A      0.669329    48A      0.683871    49A      0.703977
      50A      0.727726    51A      0.745832    52A      0.831068
      53A      0.839458    54A      0.851212    55A      0.866785
      56A      0.878238    57A      0.897111    58A      0.898733
      59A      0.910855    60A      0.917564    61A      0.925281
      62A      0.942983    63A      0.958917    64A      0.975963
      65A      1.006948    66A      1.053435    67A      1.058595
      68A      1.114356    69A      1.126536    70A      1.137986
      71A      1.164647    72A      1.239003    73A      1.327698
      74A      1.352790    75A      1.378906    76A      1.399626
      77A      1.425795    78A      1.463320    79A      1.480698
      80A      1.492061    81A      1.496965    82A      1.573008
      83A      1.648161    84A      1.655776    85A      1.682038
      86A      1.694155    87A      1.752605    88A      1.812366
      89A      1.854810    90A      1.860336    91A      1.868028
      92A      1.882053    93A      1.902472    94A      1.909049
      95A      1.927102    96A      1.950468    97A      1.954050
      98A      1.959162    99A      1.965294   100A      1.969090
     101A      1.979045   102A      2.005853   103A      2.044465
     104A      2.075262   105A      2.107577   106A      2.128927
     107A      2.195633   108A      2.212604   109A      2.264750
     110A      2.297580   111A      2.319224   112A      2.422912
     113A      2.451402   114A      2.462742   115A      2.469867
     116A      2.483149   117A      2.550312   118A      2.566326
     119A      2.568295   120A      2.588856   121A      2.620220
     122A      2.717913   123A      2.743880   124A      2.768033
     125A      2.792590   126A      2.803367   127A      2.855446
     128A      2.858503   129A      2.864633   130A      2.954444
     131A      2.962419   132A      2.990031   133A      3.092595
     134A      3.138287   135A      3.284313   136A      3.504504
     137A      3.538675   138A      3.867230   139A      3.904745

    Final Occupation by Irrep:
              A
    DOCC [    25 ]

  @RHF Final Energy:  -287.22645902055206

   => Energetics <=

    Nuclear Repulsion Energy =            236.3777679422226754
    One-Electron Energy =                -858.2995370317739798
    Two-Electron Energy =                 334.6953100689992198
    Total Energy =                       -287.2264590205520562

Computation Completed

Properties will be evaluated at   0.000000,   0.000000,   0.000000 [a0]

Properties computed using the SCF density matrix

  Nuclear Dipole Moment: [e a0]
     X:     7.5499      Y:    -2.0339      Z:    -3.8921

  Electronic Dipole Moment: [e a0]
     X:    -6.4682      Y:     3.2565      Z:     4.1381

  Dipole Moment: [e a0]
     X:     1.0817      Y:     1.2225      Z:     0.2460     Total:     1.6508

  Dipole Moment: [D]
     X:     2.7494      Y:     3.1074      Z:     0.6252     Total:     4.1960

*** tstop() called on ds3 at Mon Apr 27 10:03:53 2020
Module time:
	user time   =      17.59 seconds =       0.29 minutes
	system time =       6.64 seconds =       0.11 minutes
	total time  =         25 seconds =       0.42 minutes
Total time:
	user time   =      17.59 seconds =       0.29 minutes
	system time =       6.64 seconds =       0.11 minutes
	total time  =         25 seconds =       0.42 minutes
                                     G D M A

                                 by Anthony Stone

                           version 2.2.06, 22 June 2011

               Distributed Multipoles from Gaussian wavefunctions

Starting at 10:3:53 on 27 Apr 2020

Using SCF density matrix from file ./SSI/SSI-013VAL-154ASN-2-dimer.test.2275.fchk

                         Distributed Multipole Analysis

Standard DMA

Positions and radii in angstrom
Multipole moments in atomic units, ea_0^k for rank k

C          x =  1.257885  y = -0.475787  z = -2.115705 angstrom
           Maximum rank =  0   Radius =  0.650 angstrom
                   Q00  =  -0.234946

C          x =  1.459885  y = -1.949787  z = -1.794705 angstrom
           Maximum rank =  0   Radius =  0.650 angstrom
                   Q00  =  -0.227797

H          x =  1.590885  y = -0.262787  z = -3.128705 angstrom
           Maximum rank =  0   Radius =  0.325 angstrom
                   Q00  =   0.073916

H          x =  0.195885  y = -0.231787  z = -2.062705 angstrom
           Maximum rank =  0   Radius =  0.325 angstrom
                   Q00  =   0.084487

H          x =  1.804885  y =  0.146213  z = -1.405705 angstrom
           Maximum rank =  0   Radius =  0.325 angstrom
                   Q00  =   0.064389

H          x =  0.954885  y = -2.524787  z = -2.570705 angstrom
           Maximum rank =  0   Radius =  0.325 angstrom
                   Q00  =   0.079943

H          x =  2.531495  y = -2.198078  z = -1.791825 angstrom
           Maximum rank =  0   Radius =  0.325 angstrom
                   Q00  =   0.072032

H          x =  0.996575  y = -2.197705  z = -0.828335 angstrom
           Maximum rank =  0   Radius =  0.325 angstrom
                   Q00  =   0.085413

C          x = -0.023115  y =  0.387213  z =  2.261295 angstrom
           Maximum rank =  0   Radius =  0.650 angstrom
                   Q00  =  -0.259057

C          x = -0.747115  y =  0.581213  z =  0.949295 angstrom
           Maximum rank =  0   Radius =  0.650 angstrom
                   Q00  =   0.813378

O          x = -1.637115  y = -0.189787  z =  0.598295 angstrom
           Maximum rank =  0   Radius =  0.650 angstrom
                   Q00  =  -0.792194

N          x = -0.379115  y =  1.621213  z =  0.215295 angstrom
           Maximum rank =  0   Radius =  0.650 angstrom
                   Q00  =  -0.527004

H          x =  0.254885  y =  1.365213  z =  2.661295 angstrom
           Maximum rank =  0   Radius =  0.325 angstrom
                   Q00  =   0.079327

H          x =  0.893885  y = -0.168787  z =  2.065295 angstrom
           Maximum rank =  0   Radius =  0.325 angstrom
                   Q00  =   0.124511

H          x = -0.867115  y =  1.801213  z = -0.647705 angstrom
           Maximum rank =  0   Radius =  0.325 angstrom
                   Q00  =   0.225547

H          x =  0.336885  y =  2.251213  z =  0.547295 angstrom
           Maximum rank =  0   Radius =  0.325 angstrom
                   Q00  =   0.205458

H          x = -0.632455  y = -0.143522  z =  3.007645 angstrom
           Maximum rank =  0   Radius =  0.325 angstrom
                   Q00  =   0.132598

Total multipoles referred to origin at
           x =   0.000000,  y =    0.000000,  z =    0.000000 angstrom
                   Q00  =  -0.000000

Finished at 10:3:53 on 27 Apr 2020

  DMA results are available in the Python driver through the
	  variable('DMA DISTRIBUTED MULTIPOLES')
  and
	  variable('DMA TOTAL MULTIPOLES')
  commands.

    Psi4 stopped on: Monday, 27 April 2020 10:03AM
    Psi4 wall time for execution: 0:00:25.65

*** Psi4 exiting successfully. Buy a developer a beer!
