                               Psi4 1.3.2 release

  ==> Input File <==

--------------------------------------------------------------------------
import numpy as np
set {scf_type pk
basis cc-pvdz
d_convergence 10
gdma_switch   0
gdma_limit    0
gdma_origin   [ 0.0,  0.0,  0.0 ]
}
molecule test {
    units Angstrom
    0 1
    --
    0 1
    C               -2.931222230143570     0.968730835982238     0.868741542786766
    C                0.214777769856430    -1.056269164017762     0.252741542786766
    C               -0.711222230143570    -0.200269164017762     0.849741542786766
    C               -0.055222230143570    -1.611269164017762    -0.982258457213234
    C               -1.905222230143570     0.085730835982238     0.214741542786766
    C               -1.229222230143570    -1.311269164017763    -1.634258457213234
    C               -2.162222230143570    -0.491269164017762    -1.034258457213234
    H                1.135777769856430    -1.303269164017762     0.763741542786766
    H               -0.497222230143570     0.226730835982238     1.819741542786766
    H                0.642777769856430    -2.307269164017762    -1.421258457213234
    H               -1.438222230143570    -1.756269164017762    -2.596258457213235
    H               -3.564222230143570     1.428730835982237     0.107741542786766
    H               -2.400222230143570     1.762730835982238     1.381741542786766
    H               -3.102222230143570    -0.298269164017762    -1.531258457213234
    H               -3.555932230143570     0.436680835982238     1.601311542786766
    C                3.514777769856430     0.948730835982238     0.285741542786766
    C                4.353777769856431     2.061730835982237     0.878741542786766
    H                2.451777769856430     1.191730835982237     0.358741542786766
    H                3.784777769856431     0.814730835982238    -0.761258457213234
    H                3.703777769856430     0.017730835982238     0.821741542786766
    H                5.403777769856430     1.822730835982238     0.706741542786766
    H                4.150743769856430     2.160970835982237     1.955281542786766
    H                4.131754769856430     3.010970835982238     0.369181542786766

}
e, wfn = energy('scf', return_wfn=True)
gdma(wfn)
dmavals = variable('DMA DISTRIBUTED MULTIPOLES')
charges = np.array(dmavals)
print(charges)
np.save('SSI-095PHE-118ALA-1-dimer.npy', np.array(charges))--------------------------------------------------------------------------

*** tstart() called on ds3
*** at Mon Apr 27 16:48:00 2020

   => Loading Basis Set <=

    Name: CC-PVDZ
    Role: ORBITAL
    Keyword: BASIS
    atoms 1-7, 16-17  entry C          line   138 file /theoryfs2/ds/metcalf/miniconda2/envs/tf2gpu/share/psi4/basis/cc-pvdz.gbs
    atoms 8-15, 18-23 entry H          line    22 file /theoryfs2/ds/metcalf/miniconda2/envs/tf2gpu/share/psi4/basis/cc-pvdz.gbs

         ---------------------------------------------------------
                                   SCF
               by Justin Turney, Rob Parrish, Andy Simmonett
                          and Daniel G. A. Smith
                              RHF Reference
                        1 Threads,    500 MiB Core
         ---------------------------------------------------------

  ==> Geometry <==

    Molecular point group: c1
    Full point group: C1

    Geometry (in Angstrom), charge = 0, multiplicity = 1:

       Center              X                  Y                   Z               Mass
    ------------   -----------------  -----------------  -----------------  -----------------
         C           -2.931222230144     0.968730835982     0.868741542787    12.000000000000
         C            0.214777769856    -1.056269164018     0.252741542787    12.000000000000
         C           -0.711222230144    -0.200269164018     0.849741542787    12.000000000000
         C           -0.055222230144    -1.611269164018    -0.982258457213    12.000000000000
         C           -1.905222230144     0.085730835982     0.214741542787    12.000000000000
         C           -1.229222230144    -1.311269164018    -1.634258457213    12.000000000000
         C           -2.162222230144    -0.491269164018    -1.034258457213    12.000000000000
         H            1.135777769856    -1.303269164018     0.763741542787     1.007825032230
         H           -0.497222230144     0.226730835982     1.819741542787     1.007825032230
         H            0.642777769856    -2.307269164018    -1.421258457213     1.007825032230
         H           -1.438222230144    -1.756269164018    -2.596258457213     1.007825032230
         H           -3.564222230144     1.428730835982     0.107741542787     1.007825032230
         H           -2.400222230144     1.762730835982     1.381741542787     1.007825032230
         H           -3.102222230144    -0.298269164018    -1.531258457213     1.007825032230
         H           -3.555932230144     0.436680835982     1.601311542787     1.007825032230
         C            3.514777769856     0.948730835982     0.285741542787    12.000000000000
         C            4.353777769856     2.061730835982     0.878741542787    12.000000000000
         H            2.451777769856     1.191730835982     0.358741542787     1.007825032230
         H            3.784777769856     0.814730835982    -0.761258457213     1.007825032230
         H            3.703777769856     0.017730835982     0.821741542787     1.007825032230
         H            5.403777769856     1.822730835982     0.706741542787     1.007825032230
         H            4.150743769856     2.160970835982     1.955281542787     1.007825032230
         H            4.131754769856     3.010970835982     0.369181542787     1.007825032230

  Running in c1 symmetry.

  Rotational constants: A =      0.07488  B =      0.01989  C =      0.01691 [cm^-1]
  Rotational constants: A =   2244.71666  B =    596.29037  C =    507.06653 [MHz]
  Nuclear repulsion =  397.508724918033863

  Charge       = 0
  Multiplicity = 1
  Electrons    = 68
  Nalpha       = 34
  Nbeta        = 34

  ==> Algorithm <==

  SCF Algorithm Type is PK.
  DIIS enabled.
  MOM disabled.
  Fractional occupation disabled.
  Guess Type is SAD.
  Energy threshold   = 1.00e-06
  Density threshold  = 1.00e-10
  Integral threshold = 0.00e+00

  ==> Primary Basis <==

  Basis Set: CC-PVDZ
    Blend: CC-PVDZ
    Number of shells: 96
    Number of basis function: 196
    Number of Cartesian functions: 205
    Spherical Harmonics?: true
    Max angular momentum: 2

  ==> Pre-Iterations <==

   -------------------------------------------------------
    Irrep   Nso     Nmo     Nalpha   Nbeta   Ndocc  Nsocc
   -------------------------------------------------------
     A        196     196       0       0       0       0
   -------------------------------------------------------
    Total     196     196      34      34      34       0
   -------------------------------------------------------

  ==> Integral Setup <==

  Using integral reordering PK algorithm.
  Sizing the integral batches needed.
  Building batch lookup table.
   Calculation information:
      Number of atoms:                  23
      Number of AO shells:              96
      Number of primitives:            268
      Number of atomic orbitals:       205
      Number of basis functions:       196

      Integral cutoff                 1.00e-12
      Number of threads:                 1

	Batch   1 pq = [       0,    9405] index = [             0,44231715] size =     44231715
	Batch   2 pq = [    9405,   13301] index = [      44231715,88464951] size =     44233236
	Batch   3 pq = [   13301,   16290] index = [      88464951,132690195] size =     44225244
	Batch   4 pq = [   16290,   18810] index = [     132690195,176917455] size =     44227260
	Batch   5 pq = [   18810,   19306] index = [     176917455,186370471] size =      9453016
  Task number: 17
  Buffer size: 11059200
  Buffer per thread: 2
  We computed 8372788 shell quartets total.
  Whereas there are 10841496 unique shell quartets.

  ==> DiskJK: Disk-Based J/K Matrices <==

    J tasked:                  Yes
    K tasked:                  Yes
    wK tasked:                  No
    Memory [MiB]:              375
    Schwarz Cutoff:          1E-12

    OpenMP threads:              1

  Minimum eigenvalue in the overlap matrix is 2.9872286458E-04.
  Using Symmetric Orthogonalization.

  SCF Guess: Superposition of Atomic Densities via on-the-fly atomic UHF.

  ==> Iterations <==

                        Total Energy        Delta E     RMS |[F,P]|

   @RHF iter SAD:  -347.96003081748160   -3.47960e+02   0.00000e+00
   @RHF iter   1:  -348.76330940357394   -8.03279e-01   2.93321e-03 DIIS
   @RHF iter   2:  -348.95927660394585   -1.95967e-01   1.22773e-03 DIIS
   @RHF iter   3:  -348.99063018674843   -3.13536e-02   2.59557e-04 DIIS
   @RHF iter   4:  -348.99312752092578   -2.49733e-03   5.15812e-05 DIIS
   @RHF iter   5:  -348.99319898388507   -7.14630e-05   1.67538e-05 DIIS
   @RHF iter   6:  -348.99320598261994   -6.99873e-06   4.60937e-06 DIIS
   @RHF iter   7:  -348.99320658612089   -6.03501e-07   1.29629e-06 DIIS
   @RHF iter   8:  -348.99320664096058   -5.48397e-08   3.15248e-07 DIIS
   @RHF iter   9:  -348.99320664832322   -7.36264e-09   1.38130e-07 DIIS
   @RHF iter  10:  -348.99320665007156   -1.74833e-09   6.50303e-08 DIIS
   @RHF iter  11:  -348.99320665065977   -5.88216e-10   2.49902e-08 DIIS
   @RHF iter  12:  -348.99320665073407   -7.42943e-11   1.13849e-08 DIIS
   @RHF iter  13:  -348.99320665074464   -1.05729e-11   3.73428e-09 DIIS
   @RHF iter  14:  -348.99320665074430    3.41061e-13   9.51575e-10 DIIS
   @RHF iter  15:  -348.99320665074197    2.33058e-12   2.75754e-10 DIIS
   @RHF iter  16:  -348.99320665074367   -1.70530e-12   6.33183e-11 DIIS
  Energy and wave function converged.

  ==> Post-Iterations <==

    Orbital Energies [Eh]
    ---------------------

    Doubly Occupied:

       1A    -11.238555     2A    -11.233099     3A    -11.230979
       4A    -11.228556     5A    -11.228152     6A    -11.228075
       7A    -11.226291     8A    -11.216523     9A    -11.213153
      10A     -1.156060    11A     -1.046601    12A     -1.019882
      13A     -1.012486    14A     -0.932051    15A     -0.832192
      16A     -0.825546    17A     -0.794826    18A     -0.692158
      19A     -0.633267    20A     -0.627829    21A     -0.599989
      22A     -0.596290    23A     -0.582344    24A     -0.577130
      25A     -0.561858    26A     -0.536333    27A     -0.500041
      28A     -0.489989    29A     -0.485552    30A     -0.482195
      31A     -0.480521    32A     -0.479281    33A     -0.332491
      34A     -0.322545

    Virtual:

      35A      0.137847    36A      0.142232    37A      0.175892
      38A      0.192553    39A      0.201895    40A      0.215426
      41A      0.238931    42A      0.243772    43A      0.251703
      44A      0.260473    45A      0.263765    46A      0.277463
      47A      0.280509    48A      0.289673    49A      0.295949
      50A      0.316013    51A      0.367501    52A      0.378046
      53A      0.404001    54A      0.458840    55A      0.467105
      56A      0.484124    57A      0.492628    58A      0.563343
      59A      0.587707    60A      0.601581    61A      0.603588
      62A      0.613482    63A      0.638211    64A      0.672198
      65A      0.679612    66A      0.687021    67A      0.694330
      68A      0.703308    69A      0.716599    70A      0.740900
      71A      0.742034    72A      0.750639    73A      0.761635
      74A      0.772503    75A      0.777019    76A      0.794271
      77A      0.828195    78A      0.848610    79A      0.862321
      80A      0.873292    81A      0.874990    82A      0.891243
      83A      0.891440    84A      0.896388    85A      0.899557
      86A      0.900938    87A      0.911633    88A      0.919232
      89A      0.927353    90A      0.936181    91A      0.941662
      92A      0.959107    93A      0.985486    94A      1.002761
      95A      1.031052    96A      1.047974    97A      1.127466
      98A      1.128063    99A      1.138719   100A      1.145012
     101A      1.153157   102A      1.160584   103A      1.186997
     104A      1.222161   105A      1.244394   106A      1.252455
     107A      1.255344   108A      1.265682   109A      1.300153
     110A      1.314267   111A      1.328605   112A      1.336782
     113A      1.414347   114A      1.480333   115A      1.487054
     116A      1.514344   117A      1.519214   118A      1.561034
     119A      1.577201   120A      1.606088   121A      1.673159
     122A      1.679128   123A      1.694291   124A      1.701634
     125A      1.736333   126A      1.750925   127A      1.767874
     128A      1.794072   129A      1.812942   130A      1.854711
     131A      1.862792   132A      1.866592   133A      1.892371
     134A      1.898131   135A      1.908848   136A      1.918311
     137A      1.919772   138A      1.925061   139A      1.938427
     140A      1.949289   141A      1.950734   142A      1.954664
     143A      1.962542   144A      1.970028   145A      1.977945
     146A      1.986943   147A      1.998111   148A      2.001660
     149A      2.042520   150A      2.072439   151A      2.079120
     152A      2.106559   153A      2.114697   154A      2.117260
     155A      2.147604   156A      2.168585   157A      2.171546
     158A      2.181539   159A      2.187727   160A      2.258231
     161A      2.281942   162A      2.294815   163A      2.299470
     164A      2.306685   165A      2.316500   166A      2.323847
     167A      2.335387   168A      2.456116   169A      2.469245
     170A      2.470353   171A      2.480772   172A      2.505484
     173A      2.550047   174A      2.567486   175A      2.575815
     176A      2.627948   177A      2.742633   178A      2.760609
     179A      2.765349   180A      2.772198   181A      2.790629
     182A      2.798757   183A      2.815499   184A      2.847078
     185A      2.850089   186A      2.856824   187A      2.881961
     188A      2.946731   189A      2.966794   190A      2.994521
     191A      3.022518   192A      3.033202   193A      3.166886
     194A      3.214949   195A      3.313673   196A      3.994797

    Final Occupation by Irrep:
              A
    DOCC [    34 ]

  @RHF Final Energy:  -348.99320665074367

   => Energetics <=

    Nuclear Repulsion Energy =            397.5087249180338631
    One-Electron Energy =               -1257.7181813653353402
    Two-Electron Energy =                 511.2162497965578041
    Total Energy =                       -348.9932066507436730

Computation Completed

Properties will be evaluated at   0.000000,   0.000000,   0.000000 [a0]

Properties computed using the SCF density matrix

  Nuclear Dipole Moment: [e a0]
     X:    10.1688      Y:     6.7579      Z:     3.3523

  Electronic Dipole Moment: [e a0]
     X:   -10.2848      Y:    -6.7278      Z:    -3.3024

  Dipole Moment: [e a0]
     X:    -0.1160      Y:     0.0301      Z:     0.0499     Total:     0.1298

  Dipole Moment: [D]
     X:    -0.2948      Y:     0.0766      Z:     0.1268     Total:     0.3299

*** tstop() called on ds3 at Mon Apr 27 16:49:32 2020
Module time:
	user time   =      62.60 seconds =       1.04 minutes
	system time =      33.97 seconds =       0.57 minutes
	total time  =         92 seconds =       1.53 minutes
Total time:
	user time   =      62.60 seconds =       1.04 minutes
	system time =      33.97 seconds =       0.57 minutes
	total time  =         92 seconds =       1.53 minutes
                                     G D M A

                                 by Anthony Stone

                           version 2.2.06, 22 June 2011

               Distributed Multipoles from Gaussian wavefunctions

Starting at 16:49:32 on 27 Apr 2020

Using SCF density matrix from file ./SSI/SSI-095PHE-118ALA-1-dimer.test.28111.fchk

                         Distributed Multipole Analysis

Standard DMA

Positions and radii in angstrom
Multipole moments in atomic units, ea_0^k for rank k

C          x = -2.931222  y =  0.968731  z =  0.868742 angstrom
           Maximum rank =  0   Radius =  0.650 angstrom
                   Q00  =  -0.197875

C          x =  0.214778  y = -1.056269  z =  0.252742 angstrom
           Maximum rank =  0   Radius =  0.650 angstrom
                   Q00  =  -0.066869

C          x = -0.711222  y = -0.200269  z =  0.849742 angstrom
           Maximum rank =  0   Radius =  0.650 angstrom
                   Q00  =  -0.096988

C          x = -0.055222  y = -1.611269  z = -0.982258 angstrom
           Maximum rank =  0   Radius =  0.650 angstrom
                   Q00  =  -0.048859

C          x = -1.905222  y =  0.085731  z =  0.214742 angstrom
           Maximum rank =  0   Radius =  0.650 angstrom
                   Q00  =  -0.102145

C          x = -1.229222  y = -1.311269  z = -1.634258 angstrom
           Maximum rank =  0   Radius =  0.650 angstrom
                   Q00  =  -0.072286

C          x = -2.162222  y = -0.491269  z = -1.034258 angstrom
           Maximum rank =  0   Radius =  0.650 angstrom
                   Q00  =  -0.010239

H          x =  1.135778  y = -1.303269  z =  0.763742 angstrom
           Maximum rank =  0   Radius =  0.325 angstrom
                   Q00  =   0.065859

H          x = -0.497222  y =  0.226731  z =  1.819742 angstrom
           Maximum rank =  0   Radius =  0.325 angstrom
                   Q00  =   0.054210

H          x =  0.642778  y = -2.307269  z = -1.421258 angstrom
           Maximum rank =  0   Radius =  0.325 angstrom
                   Q00  =   0.057513

H          x = -1.438222  y = -1.756269  z = -2.596258 angstrom
           Maximum rank =  0   Radius =  0.325 angstrom
                   Q00  =   0.061494

H          x = -3.564222  y =  1.428731  z =  0.107742 angstrom
           Maximum rank =  0   Radius =  0.325 angstrom
                   Q00  =   0.098332

H          x = -2.400222  y =  1.762731  z =  1.381742 angstrom
           Maximum rank =  0   Radius =  0.325 angstrom
                   Q00  =   0.098264

H          x = -3.102222  y = -0.298269  z = -1.531258 angstrom
           Maximum rank =  0   Radius =  0.325 angstrom
                   Q00  =   0.055304

H          x = -3.555932  y =  0.436681  z =  1.601312 angstrom
           Maximum rank =  0   Radius =  0.325 angstrom
                   Q00  =   0.104703

C          x =  3.514778  y =  0.948731  z =  0.285742 angstrom
           Maximum rank =  0   Radius =  0.650 angstrom
                   Q00  =  -0.226279

C          x =  4.353778  y =  2.061731  z =  0.878742 angstrom
           Maximum rank =  0   Radius =  0.650 angstrom
                   Q00  =  -0.237751

H          x =  2.451778  y =  1.191731  z =  0.358742 angstrom
           Maximum rank =  0   Radius =  0.325 angstrom
                   Q00  =   0.083737

H          x =  3.784778  y =  0.814731  z = -0.761258 angstrom
           Maximum rank =  0   Radius =  0.325 angstrom
                   Q00  =   0.078758

H          x =  3.703778  y =  0.017731  z =  0.821742 angstrom
           Maximum rank =  0   Radius =  0.325 angstrom
                   Q00  =   0.071575

H          x =  5.403778  y =  1.822731  z =  0.706742 angstrom
           Maximum rank =  0   Radius =  0.325 angstrom
                   Q00  =   0.075831

H          x =  4.150744  y =  2.160971  z =  1.955282 angstrom
           Maximum rank =  0   Radius =  0.325 angstrom
                   Q00  =   0.076505

H          x =  4.131755  y =  3.010971  z =  0.369182 angstrom
           Maximum rank =  0   Radius =  0.325 angstrom
                   Q00  =   0.077207

Total multipoles referred to origin at
           x =   0.000000,  y =    0.000000,  z =    0.000000 angstrom
                   Q00  =  -0.000000

Finished at 16:49:32 on 27 Apr 2020

  DMA results are available in the Python driver through the
	  variable('DMA DISTRIBUTED MULTIPOLES')
  and
	  variable('DMA TOTAL MULTIPOLES')
  commands.

    Psi4 stopped on: Monday, 27 April 2020 04:49PM
    Psi4 wall time for execution: 0:01:31.98

*** Psi4 exiting successfully. Buy a developer a beer!
