                               Psi4 1.3.2 release

  ==> Input File <==

--------------------------------------------------------------------------
import numpy as np
set {scf_type pk
basis cc-pvdz
d_convergence 10
gdma_switch   0
gdma_limit    0
gdma_origin   [ 0.0,  0.0,  0.0 ]
}
molecule test {
    units Angstrom
    0 1
    --
    0 1
    C                1.691709407606181    -2.313693298371301    -0.850869178980433
    O                1.951709407606181    -0.938693298371301    -0.624869178980433
    H                2.895709407606181    -0.738693298371301    -0.798869178980433
    H                0.770709407606181    -2.575693298371301    -0.326869178980433
    H                2.503709407606181    -2.918693298371301    -0.442869178980433
    H                1.571859407606181    -2.521093298371301    -1.924469178980433
    C               -0.669290592393819    -0.096693298371301     1.436130821019567
    C               -0.979290592393819     0.897306701628699     0.333130821019567
    O               -0.302290592393819     0.937306701628699    -0.691869178980433
    N               -2.007290592393819     1.712306701628699     0.521130821019567
    H                0.410709407606181    -0.197693298371301     1.535130821019567
    H               -1.073290592393819    -1.058693298371301     1.117130821019567
    H               -2.218290592393819     2.377306701628699    -0.209869178980433
    H               -2.545290592393819     1.707306701628699     1.368130821019567
    H               -1.116820592393819     0.172546701628699     2.404230821019567

}
e, wfn = energy('scf', return_wfn=True)
gdma(wfn)
dmavals = variable('DMA DISTRIBUTED MULTIPOLES')
charges = np.array(dmavals)
print(charges)
np.save('SSI-100SER-148ASN-1-dimer.npy', np.array(charges))--------------------------------------------------------------------------

*** tstart() called on ds3
*** at Mon Apr 27 12:42:39 2020

   => Loading Basis Set <=

    Name: CC-PVDZ
    Role: ORBITAL
    Keyword: BASIS
    atoms 1, 7-8     entry C          line   138 file /theoryfs2/ds/metcalf/miniconda2/envs/tf2gpu/share/psi4/basis/cc-pvdz.gbs
    atoms 2, 9       entry O          line   198 file /theoryfs2/ds/metcalf/miniconda2/envs/tf2gpu/share/psi4/basis/cc-pvdz.gbs
    atoms 3-6, 11-15 entry H          line    22 file /theoryfs2/ds/metcalf/miniconda2/envs/tf2gpu/share/psi4/basis/cc-pvdz.gbs
    atoms 10         entry N          line   168 file /theoryfs2/ds/metcalf/miniconda2/envs/tf2gpu/share/psi4/basis/cc-pvdz.gbs

         ---------------------------------------------------------
                                   SCF
               by Justin Turney, Rob Parrish, Andy Simmonett
                          and Daniel G. A. Smith
                              RHF Reference
                        1 Threads,    500 MiB Core
         ---------------------------------------------------------

  ==> Geometry <==

    Molecular point group: c1
    Full point group: C1

    Geometry (in Angstrom), charge = 0, multiplicity = 1:

       Center              X                  Y                   Z               Mass
    ------------   -----------------  -----------------  -----------------  -----------------
         C            1.691709407606    -2.313693298371    -0.850869178980    12.000000000000
         O            1.951709407606    -0.938693298371    -0.624869178980    15.994914619570
         H            2.895709407606    -0.738693298371    -0.798869178980     1.007825032230
         H            0.770709407606    -2.575693298371    -0.326869178980     1.007825032230
         H            2.503709407606    -2.918693298371    -0.442869178980     1.007825032230
         H            1.571859407606    -2.521093298371    -1.924469178980     1.007825032230
         C           -0.669290592394    -0.096693298371     1.436130821020    12.000000000000
         C           -0.979290592394     0.897306701629     0.333130821020    12.000000000000
         O           -0.302290592394     0.937306701629    -0.691869178980    15.994914619570
         N           -2.007290592394     1.712306701629     0.521130821020    14.003074004430
         H            0.410709407606    -0.197693298371     1.535130821020     1.007825032230
         H           -1.073290592394    -1.058693298371     1.117130821020     1.007825032230
         H           -2.218290592394     2.377306701629    -0.209869178980     1.007825032230
         H           -2.545290592394     1.707306701629     1.368130821020     1.007825032230
         H           -1.116820592394     0.172546701629     2.404230821020     1.007825032230

  Running in c1 symmetry.

  Rotational constants: A =      0.24475  B =      0.04309  C =      0.03907 [cm^-1]
  Rotational constants: A =   7337.28967  B =   1291.86949  C =   1171.21340 [MHz]
  Nuclear repulsion =  237.946415798967763

  Charge       = 0
  Multiplicity = 1
  Electrons    = 50
  Nalpha       = 25
  Nbeta        = 25

  ==> Algorithm <==

  SCF Algorithm Type is PK.
  DIIS enabled.
  MOM disabled.
  Fractional occupation disabled.
  Guess Type is SAD.
  Energy threshold   = 1.00e-06
  Density threshold  = 1.00e-10
  Integral threshold = 0.00e+00

  ==> Primary Basis <==

  Basis Set: CC-PVDZ
    Blend: CC-PVDZ
    Number of shells: 63
    Number of basis function: 129
    Number of Cartesian functions: 135
    Spherical Harmonics?: true
    Max angular momentum: 2

  ==> Pre-Iterations <==

   -------------------------------------------------------
    Irrep   Nso     Nmo     Nalpha   Nbeta   Ndocc  Nsocc
   -------------------------------------------------------
     A        129     129       0       0       0       0
   -------------------------------------------------------
    Total     129     129      25      25      25       0
   -------------------------------------------------------

  ==> Integral Setup <==

  Using integral reordering PK algorithm.
  Sizing the integral batches needed.
  Building batch lookup table.
   Calculation information:
      Number of atoms:                  15
      Number of AO shells:              63
      Number of primitives:            177
      Number of atomic orbitals:       135
      Number of basis functions:       129

      Integral cutoff                 1.00e-12
      Number of threads:                 1

	Batch   1 pq = [       0,    8385] index = [             0,35158305] size =     35158305
  Task number: 4
  Buffer size: 11059200
  Buffer per thread: 2
  We computed 1755538 shell quartets total.
  Whereas there are 2033136 unique shell quartets.

  ==> DiskJK: Disk-Based J/K Matrices <==

    J tasked:                  Yes
    K tasked:                  Yes
    wK tasked:                  No
    Memory [MiB]:              375
    Schwarz Cutoff:          1E-12

    OpenMP threads:              1

  Minimum eigenvalue in the overlap matrix is 4.6280825600E-03.
  Using Symmetric Orthogonalization.

  SCF Guess: Superposition of Atomic Densities via on-the-fly atomic UHF.

  ==> Iterations <==

                        Total Energy        Delta E     RMS |[F,P]|

   @RHF iter SAD:  -321.64789104546389   -3.21648e+02   0.00000e+00
   @RHF iter   1:  -322.81286378938222   -1.16497e+00   5.12323e-03 DIIS
   @RHF iter   2:  -322.97625865020154   -1.63395e-01   3.06503e-03 DIIS
   @RHF iter   3:  -323.03246837086243   -5.62097e-02   5.64746e-04 DIIS
   @RHF iter   4:  -323.03558718759604   -3.11882e-03   2.23687e-04 DIIS
   @RHF iter   5:  -323.03611293212180   -5.25745e-04   4.77023e-05 DIIS
   @RHF iter   6:  -323.03614896562232   -3.60335e-05   2.12493e-05 DIIS
   @RHF iter   7:  -323.03615670778862   -7.74217e-06   7.83755e-06 DIIS
   @RHF iter   8:  -323.03615818312716   -1.47534e-06   2.75649e-06 DIIS
   @RHF iter   9:  -323.03615836318693   -1.80060e-07   8.60867e-07 DIIS
   @RHF iter  10:  -323.03615837797690   -1.47900e-08   2.87261e-07 DIIS
   @RHF iter  11:  -323.03615837944494   -1.46804e-09   5.09039e-08 DIIS
   @RHF iter  12:  -323.03615837950042   -5.54792e-11   1.36725e-08 DIIS
   @RHF iter  13:  -323.03615837950377   -3.35376e-12   4.02547e-09 DIIS
   @RHF iter  14:  -323.03615837950542   -1.64846e-12   1.42246e-09 DIIS
   @RHF iter  15:  -323.03615837950383    1.59162e-12   4.26514e-10 DIIS
   @RHF iter  16:  -323.03615837950440   -5.68434e-13   1.65778e-10 DIIS
   @RHF iter  17:  -323.03615837950497   -5.68434e-13   5.63392e-11 DIIS
  Energy and wave function converged.

  ==> Post-Iterations <==

    Orbital Energies [Eh]
    ---------------------

    Doubly Occupied:

       1A    -20.533007     2A    -20.485564     3A    -15.577057
       4A    -11.333019     5A    -11.263966     6A    -11.228309
       7A     -1.351510     8A     -1.328388     9A     -1.203906
      10A     -0.985707    11A     -0.906861    12A     -0.788817
      13A     -0.716758    14A     -0.663164    15A     -0.639257
      16A     -0.602256    17A     -0.597660    18A     -0.576244
      19A     -0.552478    20A     -0.542104    21A     -0.508295
      22A     -0.474801    23A     -0.425464    24A     -0.391130
      25A     -0.388737

    Virtual:

      26A      0.172107    27A      0.193212    28A      0.206269
      29A      0.227919    30A      0.237079    31A      0.244281
      32A      0.276698    33A      0.279006    34A      0.297022
      35A      0.326856    36A      0.373671    37A      0.395688
      38A      0.475244    39A      0.577497    40A      0.632442
      41A      0.637093    42A      0.654048    43A      0.688277
      44A      0.708268    45A      0.727214    46A      0.748183
      47A      0.750751    48A      0.794792    49A      0.818323
      50A      0.849138    51A      0.867561    52A      0.895659
      53A      0.904385    54A      0.910311    55A      0.927136
      56A      0.941429    57A      0.955230    58A      1.017596
      59A      1.018745    60A      1.055388    61A      1.118172
      62A      1.143841    63A      1.162497    64A      1.175597
      65A      1.194786    66A      1.276914    67A      1.337859
      68A      1.350841    69A      1.381204    70A      1.384788
      71A      1.410951    72A      1.429024    73A      1.476012
      74A      1.485441    75A      1.611383    76A      1.641908
      77A      1.660731    78A      1.677436    79A      1.686000
      80A      1.697516    81A      1.741759    82A      1.837601
      83A      1.864207    84A      1.870708    85A      1.896658
      86A      1.910731    87A      1.922286    88A      1.929720
      89A      1.940227    90A      1.964755    91A      1.969085
      92A      1.998448    93A      2.052125    94A      2.062739
      95A      2.103335    96A      2.135941    97A      2.159110
      98A      2.234162    99A      2.296768   100A      2.319256
     101A      2.385032   102A      2.402416   103A      2.415191
     104A      2.467152   105A      2.475219   106A      2.500738
     107A      2.564949   108A      2.576803   109A      2.646412
     110A      2.754765   111A      2.763873   112A      2.770331
     113A      2.772973   114A      2.791892   115A      2.827257
     116A      2.874358   117A      2.994791   118A      3.105659
     119A      3.150221   120A      3.290014   121A      3.308459
     122A      3.409539   123A      3.454849   124A      3.520534
     125A      3.544883   126A      3.620815   127A      3.892911
     128A      3.921893   129A      4.101181

    Final Occupation by Irrep:
              A
    DOCC [    25 ]

  @RHF Final Energy:  -323.03615837950497

   => Energetics <=

    Nuclear Repulsion Energy =            237.9464157989677631
    One-Electron Energy =                -913.8362270123096778
    Two-Electron Energy =                 352.8536528338369180
    Total Energy =                       -323.0361583795049683

Computation Completed

Properties will be evaluated at   0.000000,   0.000000,   0.000000 [a0]

Properties computed using the SCF density matrix

  Nuclear Dipole Moment: [e a0]
     X:     1.1378      Y:    -5.3986      Z:     2.5436

  Electronic Dipole Moment: [e a0]
     X:    -1.6412      Y:     5.1428      Z:    -1.5542

  Dipole Moment: [e a0]
     X:    -0.5035      Y:    -0.2558      Z:     0.9895     Total:     1.1393

  Dipole Moment: [D]
     X:    -1.2797      Y:    -0.6502      Z:     2.5149     Total:     2.8957

*** tstop() called on ds3 at Mon Apr 27 12:43:05 2020
Module time:
	user time   =      20.04 seconds =       0.33 minutes
	system time =       6.77 seconds =       0.11 minutes
	total time  =         26 seconds =       0.43 minutes
Total time:
	user time   =      20.04 seconds =       0.33 minutes
	system time =       6.77 seconds =       0.11 minutes
	total time  =         26 seconds =       0.43 minutes
                                     G D M A

                                 by Anthony Stone

                           version 2.2.06, 22 June 2011

               Distributed Multipoles from Gaussian wavefunctions

Starting at 12:43:5 on 27 Apr 2020

Using SCF density matrix from file ./SSI/SSI-100SER-148ASN-1-dimer.test.3820.fchk

                         Distributed Multipole Analysis

Standard DMA

Positions and radii in angstrom
Multipole moments in atomic units, ea_0^k for rank k

C          x =  1.691709  y = -2.313693  z = -0.850869 angstrom
           Maximum rank =  0   Radius =  0.650 angstrom
                   Q00  =  -0.030365

O          x =  1.951709  y = -0.938693  z = -0.624869 angstrom
           Maximum rank =  0   Radius =  0.650 angstrom
                   Q00  =  -0.569296

H          x =  2.895709  y = -0.738693  z = -0.798869 angstrom
           Maximum rank =  0   Radius =  0.325 angstrom
                   Q00  =   0.378732

H          x =  0.770709  y = -2.575693  z = -0.326869 angstrom
           Maximum rank =  0   Radius =  0.325 angstrom
                   Q00  =   0.099495

H          x =  2.503709  y = -2.918693  z = -0.442869 angstrom
           Maximum rank =  0   Radius =  0.325 angstrom
                   Q00  =   0.054438

H          x =  1.571859  y = -2.521093  z = -1.924469 angstrom
           Maximum rank =  0   Radius =  0.325 angstrom
                   Q00  =   0.072762

C          x = -0.669291  y = -0.096693  z =  1.436131 angstrom
           Maximum rank =  0   Radius =  0.650 angstrom
                   Q00  =  -0.271771

C          x = -0.979291  y =  0.897307  z =  0.333131 angstrom
           Maximum rank =  0   Radius =  0.650 angstrom
                   Q00  =   0.819106

O          x = -0.302291  y =  0.937307  z = -0.691869 angstrom
           Maximum rank =  0   Radius =  0.650 angstrom
                   Q00  =  -0.781711

N          x = -2.007291  y =  1.712307  z =  0.521131 angstrom
           Maximum rank =  0   Radius =  0.650 angstrom
                   Q00  =  -0.524209

H          x =  0.410709  y = -0.197693  z =  1.535131 angstrom
           Maximum rank =  0   Radius =  0.325 angstrom
                   Q00  =   0.142336

H          x = -1.073291  y = -1.058693  z =  1.117131 angstrom
           Maximum rank =  0   Radius =  0.325 angstrom
                   Q00  =   0.125408

H          x = -2.218291  y =  2.377307  z = -0.209869 angstrom
           Maximum rank =  0   Radius =  0.325 angstrom
                   Q00  =   0.213570

H          x = -2.545291  y =  1.707307  z =  1.368131 angstrom
           Maximum rank =  0   Radius =  0.325 angstrom
                   Q00  =   0.200885

H          x = -1.116821  y =  0.172547  z =  2.404231 angstrom
           Maximum rank =  0   Radius =  0.325 angstrom
                   Q00  =   0.070619

Total multipoles referred to origin at
           x =   0.000000,  y =    0.000000,  z =    0.000000 angstrom
                   Q00  =  -0.000000

Finished at 12:43:5 on 27 Apr 2020

  DMA results are available in the Python driver through the
	  variable('DMA DISTRIBUTED MULTIPOLES')
  and
	  variable('DMA TOTAL MULTIPOLES')
  commands.

    Psi4 stopped on: Monday, 27 April 2020 12:43PM
    Psi4 wall time for execution: 0:00:26.32

*** Psi4 exiting successfully. Buy a developer a beer!
