                               Psi4 1.3.2 release

  ==> Input File <==

--------------------------------------------------------------------------
import numpy as np
set {scf_type pk
basis cc-pvdz
d_convergence 10
gdma_switch   0
gdma_limit    0
gdma_origin   [ 0.0,  0.0,  0.0 ]
}
molecule test {
    units Angstrom
    2 1
    --
    2 1
    C               -0.964129451723153    -1.010152949247116     2.736145795077282
    C                0.407870548276847     0.575847050752884     1.419145795077282
    N               -0.753129451723153     0.166847050752884     1.911145795077282
    N                1.516870548276847    -0.098152949247116     1.597145795077282
    N                0.422870548276847     1.670847050752884     0.708145795077282
    H               -1.575129451723153     0.718847050752884     1.652145795077282
    H                1.499870548276847    -0.955152949247116     2.128145795077282
    H                2.381870548276847     0.222847050752884     1.190145795077282
    H               -0.436129451723153     2.224847050752884     0.647145795077282
    H                1.302870548276847     2.093847050752884     0.438145795077282
    H               -0.388129451723153    -0.925152949247116     3.661145795077282
    H               -0.629129451723153    -1.897152949247116     2.193145795077282
    H               -2.025669451723153    -1.146802949247116     2.990024195077282
    C               -0.183129451723153    -0.277152949247116    -2.126854204922718
    C               -1.065129451723153     0.549847050752884    -3.053854204922718
    N                0.497870548276847    -1.404152949247116    -2.835854204922718
    H                0.578870548276847     0.383847050752884    -1.698854204922718
    H               -0.798129451723153    -0.656152949247116    -1.301854204922718
    H               -2.006129451723154     0.021847050752884    -3.215854204922718
    H               -0.569129451723153     0.692847050752884    -4.016854204922718
    H                1.098870548276847    -1.067152949247116    -3.577854204922718
    H                1.075870548276847    -1.943152949247116    -2.201854204922717
    H               -0.172129451723153    -2.042152949247116    -3.248854204922718
    H               -1.257219451723153     1.538227050752884    -2.610909204922718

}
e, wfn = energy('scf', return_wfn=True)
gdma(wfn)
dmavals = variable('DMA DISTRIBUTED MULTIPOLES')
charges = np.array(dmavals)
print(charges)
np.save('SSI-173ARG-296LYS-1-dimer.npy', np.array(charges))--------------------------------------------------------------------------

*** tstart() called on ds3
*** at Tue Apr 28 04:01:26 2020

   => Loading Basis Set <=

    Name: CC-PVDZ
    Role: ORBITAL
    Keyword: BASIS
    atoms 1-2, 14-15  entry C          line   138 file /theoryfs2/ds/metcalf/miniconda2/envs/tf2gpu/share/psi4/basis/cc-pvdz.gbs
    atoms 3-5, 16     entry N          line   168 file /theoryfs2/ds/metcalf/miniconda2/envs/tf2gpu/share/psi4/basis/cc-pvdz.gbs
    atoms 6-13, 17-24 entry H          line    22 file /theoryfs2/ds/metcalf/miniconda2/envs/tf2gpu/share/psi4/basis/cc-pvdz.gbs

         ---------------------------------------------------------
                                   SCF
               by Justin Turney, Rob Parrish, Andy Simmonett
                          and Daniel G. A. Smith
                              RHF Reference
                        1 Threads,    500 MiB Core
         ---------------------------------------------------------

  ==> Geometry <==

    Molecular point group: c1
    Full point group: C1

    Geometry (in Angstrom), charge = 2, multiplicity = 1:

       Center              X                  Y                   Z               Mass
    ------------   -----------------  -----------------  -----------------  -----------------
         C           -0.964129451723    -1.010152949247     2.736145795077    12.000000000000
         C            0.407870548277     0.575847050753     1.419145795077    12.000000000000
         N           -0.753129451723     0.166847050753     1.911145795077    14.003074004430
         N            1.516870548277    -0.098152949247     1.597145795077    14.003074004430
         N            0.422870548277     1.670847050753     0.708145795077    14.003074004430
         H           -1.575129451723     0.718847050753     1.652145795077     1.007825032230
         H            1.499870548277    -0.955152949247     2.128145795077     1.007825032230
         H            2.381870548277     0.222847050753     1.190145795077     1.007825032230
         H           -0.436129451723     2.224847050753     0.647145795077     1.007825032230
         H            1.302870548277     2.093847050753     0.438145795077     1.007825032230
         H           -0.388129451723    -0.925152949247     3.661145795077     1.007825032230
         H           -0.629129451723    -1.897152949247     2.193145795077     1.007825032230
         H           -2.025669451723    -1.146802949247     2.990024195077     1.007825032230
         C           -0.183129451723    -0.277152949247    -2.126854204923    12.000000000000
         C           -1.065129451723     0.549847050753    -3.053854204923    12.000000000000
         N            0.497870548277    -1.404152949247    -2.835854204923    14.003074004430
         H            0.578870548277     0.383847050753    -1.698854204923     1.007825032230
         H           -0.798129451723    -0.656152949247    -1.301854204923     1.007825032230
         H           -2.006129451723     0.021847050753    -3.215854204923     1.007825032230
         H           -0.569129451723     0.692847050753    -4.016854204923     1.007825032230
         H            1.098870548277    -1.067152949247    -3.577854204923     1.007825032230
         H            1.075870548277    -1.943152949247    -2.201854204923     1.007825032230
         H           -0.172129451723    -2.042152949247    -3.248854204923     1.007825032230
         H           -1.257219451723     1.538227050753    -2.610909204923     1.007825032230

  Running in c1 symmetry.

  Rotational constants: A =      0.07896  B =      0.02435  C =      0.02380 [cm^-1]
  Rotational constants: A =   2367.26553  B =    729.88932  C =    713.51975 [MHz]
  Nuclear repulsion =  409.464026997963401

  Charge       = 2
  Multiplicity = 1
  Electrons    = 66
  Nalpha       = 33
  Nbeta        = 33

  ==> Algorithm <==

  SCF Algorithm Type is PK.
  DIIS enabled.
  MOM disabled.
  Fractional occupation disabled.
  Guess Type is SAD.
  Energy threshold   = 1.00e-06
  Density threshold  = 1.00e-10
  Integral threshold = 0.00e+00

  ==> Primary Basis <==

  Basis Set: CC-PVDZ
    Blend: CC-PVDZ
    Number of shells: 96
    Number of basis function: 192
    Number of Cartesian functions: 200
    Spherical Harmonics?: true
    Max angular momentum: 2

  ==> Pre-Iterations <==

   -------------------------------------------------------
    Irrep   Nso     Nmo     Nalpha   Nbeta   Ndocc  Nsocc
   -------------------------------------------------------
     A        192     192       0       0       0       0
   -------------------------------------------------------
    Total     192     192      33      33      33       0
   -------------------------------------------------------

  ==> Integral Setup <==

  Using integral reordering PK algorithm.
  Sizing the integral batches needed.
  Building batch lookup table.
   Calculation information:
      Number of atoms:                  24
      Number of AO shells:              96
      Number of primitives:            256
      Number of atomic orbitals:       200
      Number of basis functions:       192

      Integral cutoff                 1.00e-12
      Number of threads:                 1

	Batch   1 pq = [       0,    9405] index = [             0,44231715] size =     44231715
	Batch   2 pq = [    9405,   13301] index = [      44231715,88464951] size =     44233236
	Batch   3 pq = [   13301,   16290] index = [      88464951,132690195] size =     44225244
	Batch   4 pq = [   16290,   18528] index = [     132690195,171652656] size =     38962461
  Task number: 16
  Buffer size: 11059200
  Buffer per thread: 2
  We computed 9247633 shell quartets total.
  Whereas there are 10841496 unique shell quartets.

  ==> DiskJK: Disk-Based J/K Matrices <==

    J tasked:                  Yes
    K tasked:                  Yes
    wK tasked:                  No
    Memory [MiB]:              375
    Schwarz Cutoff:          1E-12

    OpenMP threads:              1

  Minimum eigenvalue in the overlap matrix is 3.3924600215E-03.
  Using Symmetric Orthogonalization.

  SCF Guess: Superposition of Atomic Densities via on-the-fly atomic UHF.

  ==> Iterations <==

                        Total Energy        Delta E     RMS |[F,P]|

   @RHF iter SAD:  -377.97896537448571   -3.77979e+02   0.00000e+00
   @RHF iter   1:  -377.90230451570898    7.66609e-02   3.01672e-03 DIIS
   @RHF iter   2:  -378.08843294463543   -1.86128e-01   1.07451e-03 DIIS
   @RHF iter   3:  -378.11004783845516   -2.16149e-02   3.15097e-04 DIIS
   @RHF iter   4:  -378.11269660707109   -2.64877e-03   4.86083e-05 DIIS
   @RHF iter   5:  -378.11277319262712   -7.65856e-05   1.92557e-05 DIIS
   @RHF iter   6:  -378.11278316355254   -9.97093e-06   4.09338e-06 DIIS
   @RHF iter   7:  -378.11278388371232   -7.20160e-07   1.29293e-06 DIIS
   @RHF iter   8:  -378.11278393313131   -4.94190e-08   4.00692e-07 DIIS
   @RHF iter   9:  -378.11278393753656   -4.40525e-09   7.98920e-08 DIIS
   @RHF iter  10:  -378.11278393775888   -2.22315e-10   2.72824e-08 DIIS
   @RHF iter  11:  -378.11278393778008   -2.12026e-11   7.00608e-09 DIIS
   @RHF iter  12:  -378.11278393778326   -3.18323e-12   2.89477e-09 DIIS
   @RHF iter  13:  -378.11278393778616   -2.89901e-12   8.92996e-10 DIIS
   @RHF iter  14:  -378.11278393778662   -4.54747e-13   3.23667e-10 DIIS
   @RHF iter  15:  -378.11278393778525    1.36424e-12   7.02492e-11 DIIS
  Energy and wave function converged.

  ==> Post-Iterations <==

    Orbital Energies [Eh]
    ---------------------

    Doubly Occupied:

       1A    -16.007076     2A    -15.900967     3A    -15.900117
       4A    -15.892355     5A    -11.696504     6A    -11.593899
       7A    -11.535838     8A    -11.507441     9A     -1.661853
      10A     -1.626513    11A     -1.511840    12A     -1.506164
      13A     -1.327873    14A     -1.243124    15A     -1.161241
      16A     -1.145964    17A     -1.085883    18A     -1.082737
      19A     -1.070312    20A     -1.050724    21A     -0.971731
      22A     -0.970485    23A     -0.964351    24A     -0.936268
      25A     -0.907711    26A     -0.898268    27A     -0.847482
      28A     -0.826217    29A     -0.815708    30A     -0.806603
      31A     -0.790324    32A     -0.732437    33A     -0.688882

    Virtual:

      34A     -0.152619    35A     -0.125065    36A     -0.095471
      37A     -0.093837    38A     -0.085371    39A     -0.067195
      40A     -0.066115    41A     -0.060724    42A     -0.046939
      43A     -0.021346    44A     -0.009093    45A     -0.004394
      46A      0.013367    47A      0.017332    48A      0.030719
      49A      0.036153    50A      0.047137    51A      0.066348
      52A      0.092545    53A      0.104136    54A      0.171574
      55A      0.219147    56A      0.231306    57A      0.272401
      58A      0.282674    59A      0.291864    60A      0.327360
      61A      0.343151    62A      0.364960    63A      0.385300
      64A      0.402947    65A      0.422081    66A      0.423312
      67A      0.442365    68A      0.451803    69A      0.478336
      70A      0.513070    71A      0.521744    72A      0.547049
      73A      0.565636    74A      0.568762    75A      0.585308
      76A      0.595586    77A      0.601033    78A      0.608506
      79A      0.613630    80A      0.614428    81A      0.620798
      82A      0.637614    83A      0.648933    84A      0.669151
      85A      0.678680    86A      0.697003    87A      0.700934
      88A      0.720572    89A      0.729712    90A      0.752374
      91A      0.775657    92A      0.803321    93A      0.811979
      94A      0.819235    95A      0.827251    96A      0.853785
      97A      0.884735    98A      0.917727    99A      0.943609
     100A      0.976456   101A      1.031052   102A      1.049063
     103A      1.081993   104A      1.093490   105A      1.102753
     106A      1.118497   107A      1.163919   108A      1.191788
     109A      1.197571   110A      1.281866   111A      1.306512
     112A      1.344452   113A      1.366457   114A      1.395205
     115A      1.403378   116A      1.408978   117A      1.415942
     118A      1.428954   119A      1.453549   120A      1.506082
     121A      1.513144   122A      1.537984   123A      1.554342
     124A      1.564629   125A      1.583579   126A      1.608816
     127A      1.619188   128A      1.629129   129A      1.636375
     130A      1.651025   131A      1.655747   132A      1.661204
     133A      1.670520   134A      1.681784   135A      1.687850
     136A      1.714395   137A      1.724958   138A      1.743512
     139A      1.759696   140A      1.768243   141A      1.785159
     142A      1.800386   143A      1.828033   144A      1.866419
     145A      1.899256   146A      1.905220   147A      1.924743
     148A      1.933002   149A      1.977510   150A      1.992925
     151A      2.018422   152A      2.023325   153A      2.047466
     154A      2.061286   155A      2.087980   156A      2.127964
     157A      2.144230   158A      2.154484   159A      2.166873
     160A      2.201229   161A      2.224651   162A      2.230357
     163A      2.250617   164A      2.276729   165A      2.320545
     166A      2.334511   167A      2.382607   168A      2.400870
     169A      2.436786   170A      2.442282   171A      2.486209
     172A      2.492475   173A      2.501434   174A      2.516885
     175A      2.546869   176A      2.572351   177A      2.595044
     178A      2.630531   179A      2.662449   180A      2.680634
     181A      2.698476   182A      2.713391   183A      2.746463
     184A      2.752749   185A      2.783314   186A      2.952931
     187A      2.971002   188A      2.992643   189A      3.011079
     190A      3.025963   191A      3.457453   192A      3.546228

    Final Occupation by Irrep:
              A
    DOCC [    33 ]

  @RHF Final Energy:  -378.11278393778525

   => Energetics <=

    Nuclear Repulsion Energy =            409.4640269979634013
    One-Electron Energy =               -1301.8238407988496874
    Two-Electron Energy =                 514.2470298631010337
    Total Energy =                       -378.1127839377852524

Computation Completed

Properties will be evaluated at   0.000000,   0.000000,   0.000000 [a0]

Properties computed using the SCF density matrix

  Nuclear Dipole Moment: [e a0]
     X:    -1.8036      Y:    -2.5656      Z:    -6.5408

  Electronic Dipole Moment: [e a0]
     X:     2.8595      Y:     1.3961      Z:     4.3509

  Dipole Moment: [e a0]
     X:     1.0559      Y:    -1.1695      Z:    -2.1900     Total:     2.6979

  Dipole Moment: [D]
     X:     2.6837      Y:    -2.9727      Z:    -5.5663     Total:     6.8573

*** tstop() called on ds3 at Tue Apr 28 04:04:09 2020
Module time:
	user time   =      54.39 seconds =       0.91 minutes
	system time =      21.25 seconds =       0.35 minutes
	total time  =        163 seconds =       2.72 minutes
Total time:
	user time   =      54.39 seconds =       0.91 minutes
	system time =      21.25 seconds =       0.35 minutes
	total time  =        163 seconds =       2.72 minutes
                                     G D M A

                                 by Anthony Stone

                           version 2.2.06, 22 June 2011

               Distributed Multipoles from Gaussian wavefunctions

Starting at 4:4:9 on 28 Apr 2020

Using SCF density matrix from file ./SSI/SSI-173ARG-296LYS-1-dimer.test.27182.fchk

                         Distributed Multipole Analysis

Standard DMA

Positions and radii in angstrom
Multipole moments in atomic units, ea_0^k for rank k

C          x = -0.964129  y = -1.010153  z =  2.736146 angstrom
           Maximum rank =  0   Radius =  0.650 angstrom
                   Q00  =  -0.132653

C          x =  0.407871  y =  0.575847  z =  1.419146 angstrom
           Maximum rank =  0   Radius =  0.650 angstrom
                   Q00  =   1.085066

N          x = -0.753129  y =  0.166847  z =  1.911146 angstrom
           Maximum rank =  0   Radius =  0.650 angstrom
                   Q00  =  -0.497693

N          x =  1.516871  y = -0.098153  z =  1.597146 angstrom
           Maximum rank =  0   Radius =  0.650 angstrom
                   Q00  =  -0.594040

N          x =  0.422871  y =  1.670847  z =  0.708146 angstrom
           Maximum rank =  0   Radius =  0.650 angstrom
                   Q00  =  -0.607611

H          x = -1.575129  y =  0.718847  z =  1.652146 angstrom
           Maximum rank =  0   Radius =  0.325 angstrom
                   Q00  =   0.237949

H          x =  1.499871  y = -0.955153  z =  2.128146 angstrom
           Maximum rank =  0   Radius =  0.325 angstrom
                   Q00  =   0.283287

H          x =  2.381871  y =  0.222847  z =  1.190146 angstrom
           Maximum rank =  0   Radius =  0.325 angstrom
                   Q00  =   0.273327

H          x = -0.436129  y =  2.224847  z =  0.647146 angstrom
           Maximum rank =  0   Radius =  0.325 angstrom
                   Q00  =   0.273657

H          x =  1.302871  y =  2.093847  z =  0.438146 angstrom
           Maximum rank =  0   Radius =  0.325 angstrom
                   Q00  =   0.272905

H          x = -0.388129  y = -0.925153  z =  3.661146 angstrom
           Maximum rank =  0   Radius =  0.325 angstrom
                   Q00  =   0.133953

H          x = -0.629129  y = -1.897153  z =  2.193146 angstrom
           Maximum rank =  0   Radius =  0.325 angstrom
                   Q00  =   0.097622

H          x = -2.025669  y = -1.146803  z =  2.990024 angstrom
           Maximum rank =  0   Radius =  0.325 angstrom
                   Q00  =   0.179235

C          x = -0.183129  y = -0.277153  z = -2.126854 angstrom
           Maximum rank =  0   Radius =  0.650 angstrom
                   Q00  =  -0.044642

C          x = -1.065129  y =  0.549847  z = -3.053854 angstrom
           Maximum rank =  0   Radius =  0.650 angstrom
                   Q00  =  -0.214426

N          x =  0.497871  y = -1.404153  z = -2.835854 angstrom
           Maximum rank =  0   Radius =  0.650 angstrom
                   Q00  =  -0.143568

H          x =  0.578871  y =  0.383847  z = -1.698854 angstrom
           Maximum rank =  0   Radius =  0.325 angstrom
                   Q00  =   0.102409

H          x = -0.798129  y = -0.656153  z = -1.301854 angstrom
           Maximum rank =  0   Radius =  0.325 angstrom
                   Q00  =   0.116208

H          x = -2.006129  y =  0.021847  z = -3.215854 angstrom
           Maximum rank =  0   Radius =  0.325 angstrom
                   Q00  =   0.128185

H          x = -0.569129  y =  0.692847  z = -4.016854 angstrom
           Maximum rank =  0   Radius =  0.325 angstrom
                   Q00  =   0.114145

H          x =  1.098871  y = -1.067153  z = -3.577854 angstrom
           Maximum rank =  0   Radius =  0.325 angstrom
                   Q00  =   0.270175

H          x =  1.075871  y = -1.943153  z = -2.201854 angstrom
           Maximum rank =  0   Radius =  0.325 angstrom
                   Q00  =   0.255796

H          x = -0.172129  y = -2.042153  z = -3.248854 angstrom
           Maximum rank =  0   Radius =  0.325 angstrom
                   Q00  =   0.270536

H          x = -1.257219  y =  1.538227  z = -2.610909 angstrom
           Maximum rank =  0   Radius =  0.325 angstrom
                   Q00  =   0.140178

Total multipoles referred to origin at
           x =   0.000000,  y =    0.000000,  z =    0.000000 angstrom
                   Q00  =   2.000000

Finished at 4:4:9 on 28 Apr 2020

  DMA results are available in the Python driver through the
	  variable('DMA DISTRIBUTED MULTIPOLES')
  and
	  variable('DMA TOTAL MULTIPOLES')
  commands.

    Psi4 stopped on: Tuesday, 28 April 2020 04:04AM
    Psi4 wall time for execution: 0:02:43.61

*** Psi4 exiting successfully. Buy a developer a beer!
