                               Psi4 1.3.2 release

  ==> Input File <==

--------------------------------------------------------------------------
import numpy as np
set {scf_type pk
basis cc-pvdz
d_convergence 10
gdma_switch   0
gdma_limit    0
gdma_origin   [ 0.0,  0.0,  0.0 ]
}
molecule test {
    units Angstrom
    0 1
    --
    0 1
    C               -2.950064832719201     0.668978086771789     2.773306817958799
    C                0.114935167280800     2.310978086771789     1.254306817958799
    C                1.143935167280800     1.685978086771790     1.949306817958799
    C               -1.208064832719200     1.972978086771789     1.513306817958799
    C               -1.518064832719200     1.024978086771789     2.483306817958799
    C                0.840935167280800     0.721978086771790     2.904306817958799
    C               -0.484064832719200     0.396978086771789     3.170306817958799
    H                0.346935167280800     3.050978086771789     0.501306817958799
    H                2.172935167280800     1.943978086771790     1.742306817958799
    H               -1.996064832719200     2.432978086771790     0.945306817958799
    H                1.633935167280800     0.216978086771789     3.433306817958798
    H               -3.001064832719201    -0.349021913228211     3.163306817958799
    H               -3.495064832719200     0.679978086771789     1.828306817958799
    H               -0.708064832719200    -0.349021913228211     3.919306817958799
    H               -3.449388832719200     1.354831086771789     3.473506817958799
    C                1.194935167280800    -0.081021913228211    -4.363693182041202
    C                0.669935167280800    -0.832021913228211    -0.676693182041201
    C                0.989935167280800    -0.160021913228211    -1.860693182041201
    C                0.191935167280800    -2.130021913228211    -0.734693182041201
    C                0.833935167280800    -0.790021913228211    -3.095693182041201
    C                0.037935167280800    -2.755021913228211    -1.965693182041201
    C                0.358935167280800    -2.096021913228210    -3.140693182041201
    H                0.784935167280800    -0.344021913228211     0.277306817958799
    H                1.355935167280800     0.854978086771790    -1.815693182041201
    H               -0.073064832719200    -2.649021913228211     0.174306817958799
    H               -0.351064832719200    -3.763021913228211    -2.000693182041201
    H                1.512935167280800    -0.825021913228211    -5.093693182041202
    H                2.063935167280800     0.543978086771789    -4.171693182041201
    H                0.231935167280800    -2.598021913228211    -4.088693182041202
    H                0.385415167280800     0.528445086771789    -4.791754182041203

}
e, wfn = energy('scf', return_wfn=True)
gdma(wfn)
dmavals = variable('DMA DISTRIBUTED MULTIPOLES')
charges = np.array(dmavals)
print(charges)
np.save('SSI-020PHE-135PHE-1-dimer.npy', np.array(charges))--------------------------------------------------------------------------

*** tstart() called on ds3
*** at Mon Apr 27 13:29:04 2020

   => Loading Basis Set <=

    Name: CC-PVDZ
    Role: ORBITAL
    Keyword: BASIS
    atoms 1-7, 16-22  entry C          line   138 file /theoryfs2/ds/metcalf/miniconda2/envs/tf2gpu/share/psi4/basis/cc-pvdz.gbs
    atoms 8-15, 23-30 entry H          line    22 file /theoryfs2/ds/metcalf/miniconda2/envs/tf2gpu/share/psi4/basis/cc-pvdz.gbs

         ---------------------------------------------------------
                                   SCF
               by Justin Turney, Rob Parrish, Andy Simmonett
                          and Daniel G. A. Smith
                              RHF Reference
                        1 Threads,    500 MiB Core
         ---------------------------------------------------------

  ==> Geometry <==

    Molecular point group: c1
    Full point group: C1

    Geometry (in Angstrom), charge = 0, multiplicity = 1:

       Center              X                  Y                   Z               Mass
    ------------   -----------------  -----------------  -----------------  -----------------
         C           -2.950064832719     0.668978086772     2.773306817959    12.000000000000
         C            0.114935167281     2.310978086772     1.254306817959    12.000000000000
         C            1.143935167281     1.685978086772     1.949306817959    12.000000000000
         C           -1.208064832719     1.972978086772     1.513306817959    12.000000000000
         C           -1.518064832719     1.024978086772     2.483306817959    12.000000000000
         C            0.840935167281     0.721978086772     2.904306817959    12.000000000000
         C           -0.484064832719     0.396978086772     3.170306817959    12.000000000000
         H            0.346935167281     3.050978086772     0.501306817959     1.007825032230
         H            2.172935167281     1.943978086772     1.742306817959     1.007825032230
         H           -1.996064832719     2.432978086772     0.945306817959     1.007825032230
         H            1.633935167281     0.216978086772     3.433306817959     1.007825032230
         H           -3.001064832719    -0.349021913228     3.163306817959     1.007825032230
         H           -3.495064832719     0.679978086772     1.828306817959     1.007825032230
         H           -0.708064832719    -0.349021913228     3.919306817959     1.007825032230
         H           -3.449388832719     1.354831086772     3.473506817959     1.007825032230
         C            1.194935167281    -0.081021913228    -4.363693182041    12.000000000000
         C            0.669935167281    -0.832021913228    -0.676693182041    12.000000000000
         C            0.989935167281    -0.160021913228    -1.860693182041    12.000000000000
         C            0.191935167281    -2.130021913228    -0.734693182041    12.000000000000
         C            0.833935167281    -0.790021913228    -3.095693182041    12.000000000000
         C            0.037935167281    -2.755021913228    -1.965693182041    12.000000000000
         C            0.358935167281    -2.096021913228    -3.140693182041    12.000000000000
         H            0.784935167281    -0.344021913228     0.277306817959     1.007825032230
         H            1.355935167281     0.854978086772    -1.815693182041     1.007825032230
         H           -0.073064832719    -2.649021913228     0.174306817959     1.007825032230
         H           -0.351064832719    -3.763021913228    -2.000693182041     1.007825032230
         H            1.512935167281    -0.825021913228    -5.093693182041     1.007825032230
         H            2.063935167281     0.543978086772    -4.171693182041     1.007825032230
         H            0.231935167281    -2.598021913228    -4.088693182041     1.007825032230
         H            0.385415167281     0.528445086772    -4.791754182041     1.007825032230

  Running in c1 symmetry.

  Rotational constants: A =      0.03898  B =      0.01036  C =      0.00964 [cm^-1]
  Rotational constants: A =   1168.51779  B =    310.68118  C =    289.00477 [MHz]
  Nuclear repulsion =  777.776991368966264

  Charge       = 0
  Multiplicity = 1
  Electrons    = 100
  Nalpha       = 50
  Nbeta        = 50

  ==> Algorithm <==

  SCF Algorithm Type is PK.
  DIIS enabled.
  MOM disabled.
  Fractional occupation disabled.
  Guess Type is SAD.
  Energy threshold   = 1.00e-06
  Density threshold  = 1.00e-10
  Integral threshold = 0.00e+00

  ==> Primary Basis <==

  Basis Set: CC-PVDZ
    Blend: CC-PVDZ
    Number of shells: 132
    Number of basis function: 276
    Number of Cartesian functions: 290
    Spherical Harmonics?: true
    Max angular momentum: 2

  ==> Pre-Iterations <==

   -------------------------------------------------------
    Irrep   Nso     Nmo     Nalpha   Nbeta   Ndocc  Nsocc
   -------------------------------------------------------
     A        276     276       0       0       0       0
   -------------------------------------------------------
    Total     276     276      50      50      50       0
   -------------------------------------------------------

  ==> Integral Setup <==

  Using integral reordering PK algorithm.
  Sizing the integral batches needed.
  Building batch lookup table.
   Calculation information:
      Number of atoms:                  30
      Number of AO shells:             132
      Number of primitives:            388
      Number of atomic orbitals:       290
      Number of basis functions:       276

      Integral cutoff                 1.00e-12
      Number of threads:                 1

	Batch   1 pq = [       0,    9405] index = [             0,44231715] size =     44231715
	Batch   2 pq = [    9405,   13301] index = [      44231715,88464951] size =     44233236
	Batch   3 pq = [   13301,   16290] index = [      88464951,132690195] size =     44225244
	Batch   4 pq = [   16290,   18810] index = [     132690195,176917455] size =     44227260
	Batch   5 pq = [   18810,   21030] index = [     176917455,221140965] size =     44223510
	Batch   6 pq = [   21030,   23037] index = [     221140965,265363203] size =     44222238
	Batch   7 pq = [   23037,   24883] index = [     265363203,309594286] size =     44231083
	Batch   8 pq = [   24883,   26601] index = [     309594286,353819901] size =     44225615
	Batch   9 pq = [   26601,   28214] index = [     353819901,398029005] size =     44209104
	Batch  10 pq = [   28214,   29740] index = [     398029005,442248670] size =     44219665
	Batch  11 pq = [   29740,   31191] index = [     442248670,486454836] size =     44206166
	Batch  12 pq = [   31191,   32578] index = [     486454836,530679331] size =     44224495
	Batch  13 pq = [   32578,   33908] index = [     530679331,574893186] size =     44213855
	Batch  14 pq = [   33908,   35188] index = [     574893186,619115266] size =     44222080
	Batch  15 pq = [   35188,   36423] index = [     619115266,663335676] size =     44220410
	Batch  16 pq = [   36423,   37617] index = [     663335676,707538153] size =     44202477
	Batch  17 pq = [   37617,   38226] index = [     707538153,730632651] size =     23094498
  Task number: 67
  Buffer size: 11059200
  Buffer per thread: 2
  We computed 36902802 shell quartets total.
  Whereas there are 38531031 unique shell quartets.

  ==> DiskJK: Disk-Based J/K Matrices <==

    J tasked:                  Yes
    K tasked:                  Yes
    wK tasked:                  No
    Memory [MiB]:              375
    Schwarz Cutoff:          1E-12

    OpenMP threads:              1

  Minimum eigenvalue in the overlap matrix is 2.9404657015E-04.
  Using Symmetric Orthogonalization.

  SCF Guess: Superposition of Atomic Densities via on-the-fly atomic UHF.

  ==> Iterations <==

                        Total Energy        Delta E     RMS |[F,P]|

   @RHF iter SAD:  -538.47283225850447   -5.38473e+02   0.00000e+00
   @RHF iter   1:  -539.22653465018823   -7.53702e-01   2.31118e-03 DIIS
   @RHF iter   2:  -539.47934818614385   -2.52814e-01   9.39444e-04 DIIS
   @RHF iter   3:  -539.51616580740279   -3.68176e-02   2.15511e-04 DIIS
   @RHF iter   4:  -539.51928932180999   -3.12351e-03   5.20663e-05 DIIS
   @RHF iter   5:  -539.51942052977108   -1.31208e-04   1.56317e-05 DIIS
   @RHF iter   6:  -539.51943230661573   -1.17768e-05   4.38860e-06 DIIS
   @RHF iter   7:  -539.51943340481307   -1.09820e-06   1.05471e-06 DIIS
   @RHF iter   8:  -539.51943349650753   -9.16945e-08   3.41138e-07 DIIS
   @RHF iter   9:  -539.51943351302145   -1.65139e-08   1.64711e-07 DIIS
   @RHF iter  10:  -539.51943351711725   -4.09580e-09   8.75074e-08 DIIS
   @RHF iter  11:  -539.51943351869795   -1.58070e-09   3.17985e-08 DIIS
   @RHF iter  12:  -539.51943351890077   -2.02817e-10   1.20770e-08 DIIS
   @RHF iter  13:  -539.51943351892294   -2.21689e-11   4.03388e-09 DIIS
   @RHF iter  14:  -539.51943351892169    1.25056e-12   1.17761e-09 DIIS
   @RHF iter  15:  -539.51943351892271   -1.02318e-12   4.29204e-10 DIIS
   @RHF iter  16:  -539.51943351892260    1.13687e-13   1.47808e-10 DIIS
   @RHF iter  17:  -539.51943351891668    5.91172e-12   7.45309e-11 DIIS
  Energy and wave function converged.

  ==> Post-Iterations <==

    Orbital Energies [Eh]
    ---------------------

    Doubly Occupied:

       1A    -11.242425     2A    -11.237729     3A    -11.237558
       4A    -11.233543     5A    -11.232930     6A    -11.232711
       7A    -11.231672     8A    -11.230252     9A    -11.227024
      10A    -11.223647    11A    -11.223461    12A    -11.222338
      13A    -11.222131    14A    -11.220782    15A     -1.157249
      16A     -1.146628    17A     -1.047584    18A     -1.039678
      19A     -1.015440    20A     -1.004038    21A     -0.933405
      22A     -0.925720    23A     -0.828247    24A     -0.818254
      25A     -0.798592    26A     -0.787424    27A     -0.694604
      28A     -0.684478    29A     -0.634470    30A     -0.632569
      31A     -0.624908    32A     -0.622827    33A     -0.585775
      34A     -0.579562    35A     -0.574894    36A     -0.574702
      37A     -0.564945    38A     -0.556323    39A     -0.536124
      40A     -0.527799    41A     -0.494019    42A     -0.486765
      43A     -0.484648    44A     -0.480598    45A     -0.475259
      46A     -0.471510    47A     -0.336814    48A     -0.325957
      49A     -0.322980    50A     -0.315452

    Virtual:

      51A      0.132601    52A      0.136567    53A      0.143806
      54A      0.150147    55A      0.175125    56A      0.192580
      57A      0.199490    58A      0.208797    59A      0.215845
      60A      0.235512    61A      0.242411    62A      0.248870
      63A      0.259138    64A      0.263083    65A      0.266816
      66A      0.278843    67A      0.286050    68A      0.289424
      69A      0.300772    70A      0.320364    71A      0.364320
      72A      0.374204    73A      0.375214    74A      0.382927
      75A      0.448721    76A      0.459872    77A      0.465990
      78A      0.468036    79A      0.479893    80A      0.486482
      81A      0.489869    82A      0.496912    83A      0.561396
      84A      0.567202    85A      0.588031    86A      0.605415
      87A      0.636432    88A      0.646768    89A      0.669138
      90A      0.671444    91A      0.681312    92A      0.686760
      93A      0.694744    94A      0.709190    95A      0.716140
      96A      0.721224    97A      0.734576    98A      0.736156
      99A      0.739620   100A      0.747316   101A      0.748724
     102A      0.754538   103A      0.759090   104A      0.766015
     105A      0.771280   106A      0.779938   107A      0.785524
     108A      0.795816   109A      0.805867   110A      0.836405
     111A      0.839775   112A      0.849336   113A      0.851958
     114A      0.861488   115A      0.865975   116A      0.872930
     117A      0.879338   118A      0.881075   119A      0.892308
     120A      0.895361   121A      0.897184   122A      0.907749
     123A      0.916319   124A      0.924612   125A      0.927890
     126A      0.936608   127A      0.939007   128A      0.940337
     129A      0.945893   130A      0.973514   131A      0.987001
     132A      1.004159   133A      1.010898   134A      1.039859
     135A      1.048736   136A      1.099216   137A      1.108302
     138A      1.127132   139A      1.144028   140A      1.151214
     141A      1.155209   142A      1.164176   143A      1.172839
     144A      1.184879   145A      1.194168   146A      1.225022
     147A      1.235097   148A      1.241755   149A      1.249366
     150A      1.255081   151A      1.260939   152A      1.266911
     153A      1.277568   154A      1.304589   155A      1.306295
     156A      1.308211   157A      1.313067   158A      1.318296
     159A      1.328962   160A      1.333109   161A      1.340471
     162A      1.373780   163A      1.413306   164A      1.456492
     165A      1.505223   166A      1.518623   167A      1.523801
     168A      1.542654   169A      1.556342   170A      1.564913
     171A      1.599849   172A      1.621406   173A      1.676552
     174A      1.687241   175A      1.698205   176A      1.707990
     177A      1.728694   178A      1.737949   179A      1.754039
     180A      1.758141   181A      1.761465   182A      1.772784
     183A      1.789341   184A      1.797106   185A      1.817329
     186A      1.822634   187A      1.861088   188A      1.867244
     189A      1.886613   190A      1.890336   191A      1.900134
     192A      1.902915   193A      1.912146   194A      1.913880
     195A      1.922313   196A      1.925803   197A      1.930709
     198A      1.937446   199A      1.944759   200A      1.949979
     201A      1.954492   202A      1.966604   203A      1.975631
     204A      1.985452   205A      1.990737   206A      1.994781
     207A      2.001856   208A      2.006259   209A      2.034636
     210A      2.050010   211A      2.069165   212A      2.073071
     213A      2.076597   214A      2.081491   215A      2.110998
     216A      2.114769   217A      2.143441   218A      2.150784
     219A      2.157980   220A      2.160506   221A      2.169189
     222A      2.173071   223A      2.178619   224A      2.186895
     225A      2.191458   226A      2.221686   227A      2.258972
     228A      2.268254   229A      2.278566   230A      2.293074
     231A      2.297123   232A      2.299458   233A      2.304703
     234A      2.314061   235A      2.316682   236A      2.322884
     237A      2.327996   238A      2.368359   239A      2.471846
     240A      2.474695   241A      2.484810   242A      2.491144
     243A      2.501085   244A      2.507972   245A      2.539349
     246A      2.551750   247A      2.620234   248A      2.630962
     249A      2.743714   250A      2.753944   251A      2.758192
     252A      2.766390   253A      2.774363   254A      2.777390
     255A      2.793256   256A      2.798479   257A      2.813337
     258A      2.846814   259A      2.857329   260A      2.861263
     261A      2.872701   262A      2.886127   263A      2.990934
     264A      2.993113   265A      3.015733   266A      3.018039
     267A      3.029347   268A      3.046224   269A      3.158119
     270A      3.168790   271A      3.204002   272A      3.218374
     273A      3.303844   274A      3.321829   275A      3.976237
     276A      3.990987

    Final Occupation by Irrep:
              A
    DOCC [    50 ]

  @RHF Final Energy:  -539.51943351891668

   => Energetics <=

    Nuclear Repulsion Energy =            777.7769913689662644
    One-Electron Energy =               -2271.9759649885891122
    Two-Electron Energy =                 954.6795401007061628
    Total Energy =                       -539.5194335189166850

Computation Completed

Properties will be evaluated at   0.000000,   0.000000,   0.000000 [a0]

Properties computed using the SCF density matrix

  Nuclear Dipole Moment: [e a0]
     X:    -2.4232      Y:     0.6843      Z:    -2.3474

  Electronic Dipole Moment: [e a0]
     X:     2.2622      Y:    -0.5784      Z:     2.4153

  Dipole Moment: [e a0]
     X:    -0.1610      Y:     0.1059      Z:     0.0679     Total:     0.2043

  Dipole Moment: [D]
     X:    -0.4092      Y:     0.2693      Z:     0.1725     Total:     0.5194

*** tstop() called on ds3 at Mon Apr 27 13:38:26 2020
Module time:
	user time   =     344.52 seconds =       5.74 minutes
	system time =     117.54 seconds =       1.96 minutes
	total time  =        562 seconds =       9.37 minutes
Total time:
	user time   =     344.52 seconds =       5.74 minutes
	system time =     117.54 seconds =       1.96 minutes
	total time  =        562 seconds =       9.37 minutes
                                     G D M A

                                 by Anthony Stone

                           version 2.2.06, 22 June 2011

               Distributed Multipoles from Gaussian wavefunctions

Starting at 13:38:26 on 27 Apr 2020

Using SCF density matrix from file ./SSI/SSI-020PHE-135PHE-1-dimer.test.6790.fchk

                         Distributed Multipole Analysis

Standard DMA

Positions and radii in angstrom
Multipole moments in atomic units, ea_0^k for rank k

C          x = -2.950065  y =  0.668978  z =  2.773307 angstrom
           Maximum rank =  0   Radius =  0.650 angstrom
                   Q00  =  -0.198332

C          x =  0.114935  y =  2.310978  z =  1.254307 angstrom
           Maximum rank =  0   Radius =  0.650 angstrom
                   Q00  =  -0.073988

C          x =  1.143935  y =  1.685978  z =  1.949307 angstrom
           Maximum rank =  0   Radius =  0.650 angstrom
                   Q00  =  -0.088114

C          x = -1.208065  y =  1.972978  z =  1.513307 angstrom
           Maximum rank =  0   Radius =  0.650 angstrom
                   Q00  =  -0.055426

C          x = -1.518065  y =  1.024978  z =  2.483307 angstrom
           Maximum rank =  0   Radius =  0.650 angstrom
                   Q00  =  -0.097570

C          x =  0.840935  y =  0.721978  z =  2.904307 angstrom
           Maximum rank =  0   Radius =  0.650 angstrom
                   Q00  =  -0.081647

C          x = -0.484065  y =  0.396978  z =  3.170307 angstrom
           Maximum rank =  0   Radius =  0.650 angstrom
                   Q00  =  -0.012688

H          x =  0.346935  y =  3.050978  z =  0.501307 angstrom
           Maximum rank =  0   Radius =  0.325 angstrom
                   Q00  =   0.064915

H          x =  2.172935  y =  1.943978  z =  1.742307 angstrom
           Maximum rank =  0   Radius =  0.325 angstrom
                   Q00  =   0.062489

H          x = -1.996065  y =  2.432978  z =  0.945307 angstrom
           Maximum rank =  0   Radius =  0.325 angstrom
                   Q00  =   0.058883

H          x =  1.633935  y =  0.216978  z =  3.433307 angstrom
           Maximum rank =  0   Radius =  0.325 angstrom
                   Q00  =   0.065755

H          x = -3.001065  y = -0.349022  z =  3.163307 angstrom
           Maximum rank =  0   Radius =  0.325 angstrom
                   Q00  =   0.098052

H          x = -3.495065  y =  0.679978  z =  1.828307 angstrom
           Maximum rank =  0   Radius =  0.325 angstrom
                   Q00  =   0.099400

H          x = -0.708065  y = -0.349022  z =  3.919307 angstrom
           Maximum rank =  0   Radius =  0.325 angstrom
                   Q00  =   0.057880

H          x = -3.449389  y =  1.354831  z =  3.473507 angstrom
           Maximum rank =  0   Radius =  0.325 angstrom
                   Q00  =   0.106119

C          x =  1.194935  y = -0.081022  z = -4.363693 angstrom
           Maximum rank =  0   Radius =  0.650 angstrom
                   Q00  =  -0.197041

C          x =  0.669935  y = -0.832022  z = -0.676693 angstrom
           Maximum rank =  0   Radius =  0.650 angstrom
                   Q00  =  -0.067331

C          x =  0.989935  y = -0.160022  z = -1.860693 angstrom
           Maximum rank =  0   Radius =  0.650 angstrom
                   Q00  =  -0.073652

C          x =  0.191935  y = -2.130022  z = -0.734693 angstrom
           Maximum rank =  0   Radius =  0.650 angstrom
                   Q00  =  -0.078111

C          x =  0.833935  y = -0.790022  z = -3.095693 angstrom
           Maximum rank =  0   Radius =  0.650 angstrom
                   Q00  =  -0.106461

C          x =  0.037935  y = -2.755022  z = -1.965693 angstrom
           Maximum rank =  0   Radius =  0.650 angstrom
                   Q00  =   0.017683

C          x =  0.358935  y = -2.096022  z = -3.140693 angstrom
           Maximum rank =  0   Radius =  0.650 angstrom
                   Q00  =  -0.090380

H          x =  0.784935  y = -0.344022  z =  0.277307 angstrom
           Maximum rank =  0   Radius =  0.325 angstrom
                   Q00  =   0.082499

H          x =  1.355935  y =  0.854978  z = -1.815693 angstrom
           Maximum rank =  0   Radius =  0.325 angstrom
                   Q00  =   0.046984

H          x = -0.073065  y = -2.649022  z =  0.174307 angstrom
           Maximum rank =  0   Radius =  0.325 angstrom
                   Q00  =   0.052939

H          x = -0.351065  y = -3.763022  z = -2.000693 angstrom
           Maximum rank =  0   Radius =  0.325 angstrom
                   Q00  =   0.059140

H          x =  1.512935  y = -0.825022  z = -5.093693 angstrom
           Maximum rank =  0   Radius =  0.325 angstrom
                   Q00  =   0.094471

H          x =  2.063935  y =  0.543978  z = -4.171693 angstrom
           Maximum rank =  0   Radius =  0.325 angstrom
                   Q00  =   0.096220

H          x =  0.231935  y = -2.598022  z = -4.088693 angstrom
           Maximum rank =  0   Radius =  0.325 angstrom
                   Q00  =   0.053815

H          x =  0.385415  y =  0.528445  z = -4.791754 angstrom
           Maximum rank =  0   Radius =  0.325 angstrom
                   Q00  =   0.103496

Total multipoles referred to origin at
           x =   0.000000,  y =    0.000000,  z =    0.000000 angstrom
                   Q00  =  -0.000000

Finished at 13:38:26 on 27 Apr 2020

  DMA results are available in the Python driver through the
	  variable('DMA DISTRIBUTED MULTIPOLES')
  and
	  variable('DMA TOTAL MULTIPOLES')
  commands.

    Psi4 stopped on: Monday, 27 April 2020 01:38PM
    Psi4 wall time for execution: 0:09:22.23

*** Psi4 exiting successfully. Buy a developer a beer!
