                               Psi4 1.3.2 release

  ==> Input File <==

--------------------------------------------------------------------------
import numpy as np
set {scf_type pk
basis cc-pvdz
d_convergence 10
gdma_switch   0
gdma_limit    0
gdma_origin   [ 0.0,  0.0,  0.0 ]
}
molecule test {
    units Angstrom
    0 1
    --
    0 1
    C                0.449980042703492     0.102570583176385    -1.905449176211284
    C                1.976980042703492     0.010570583176385    -1.884449176211284
    H                0.100980042703492     0.371570583176385    -2.904449176211283
    H                0.025980042703492    -0.868429416823615    -1.641449176211284
    H                0.093980042703492     0.839570583176385    -1.190449176211284
    H                2.297980042703492    -0.258429416823615    -0.883449176211284
    H                2.414670042703492     0.974070583176385    -2.184599176211284
    H                2.323650042703492    -0.779348416823615    -2.566979176211284
    C               -0.629019957296508     0.201570583176385     1.473550823788716
    C               -1.798019957296508    -0.310429416823615     2.313550823788716
    H               -0.917019957296508     1.101570583176385     0.930550823788716
    H                0.207980042703492     0.441570583176385     2.127550823788717
    H               -0.311019957296508    -0.574429416823615     0.776550823788716
    H               -2.149019957296508     0.500570583176385     2.946550823788717
    H               -2.615189957296508    -0.659412416823615     1.665130823788716
    H               -1.472019957296508    -1.139863416823615     2.958340823788717

}
e, wfn = energy('scf', return_wfn=True)
gdma(wfn)
dmavals = variable('DMA DISTRIBUTED MULTIPOLES')
charges = np.array(dmavals)
print(charges)
np.save('SSI-058LEU-084LEU-1-dimer.npy', np.array(charges))--------------------------------------------------------------------------

*** tstart() called on ds3
*** at Mon Apr 27 18:52:50 2020

   => Loading Basis Set <=

    Name: CC-PVDZ
    Role: ORBITAL
    Keyword: BASIS
    atoms 1-2, 9-10  entry C          line   138 file /theoryfs2/ds/metcalf/miniconda2/envs/tf2gpu/share/psi4/basis/cc-pvdz.gbs
    atoms 3-8, 11-16 entry H          line    22 file /theoryfs2/ds/metcalf/miniconda2/envs/tf2gpu/share/psi4/basis/cc-pvdz.gbs

         ---------------------------------------------------------
                                   SCF
               by Justin Turney, Rob Parrish, Andy Simmonett
                          and Daniel G. A. Smith
                              RHF Reference
                        1 Threads,    500 MiB Core
         ---------------------------------------------------------

  ==> Geometry <==

    Molecular point group: c1
    Full point group: C1

    Geometry (in Angstrom), charge = 0, multiplicity = 1:

       Center              X                  Y                   Z               Mass
    ------------   -----------------  -----------------  -----------------  -----------------
         C            0.449980042703     0.102570583176    -1.905449176211    12.000000000000
         C            1.976980042703     0.010570583176    -1.884449176211    12.000000000000
         H            0.100980042703     0.371570583176    -2.904449176211     1.007825032230
         H            0.025980042703    -0.868429416824    -1.641449176211     1.007825032230
         H            0.093980042703     0.839570583176    -1.190449176211     1.007825032230
         H            2.297980042703    -0.258429416824    -0.883449176211     1.007825032230
         H            2.414670042703     0.974070583176    -2.184599176211     1.007825032230
         H            2.323650042703    -0.779348416824    -2.566979176211     1.007825032230
         C           -0.629019957297     0.201570583176     1.473550823789    12.000000000000
         C           -1.798019957297    -0.310429416824     2.313550823789    12.000000000000
         H           -0.917019957297     1.101570583176     0.930550823789     1.007825032230
         H            0.207980042703     0.441570583176     2.127550823789     1.007825032230
         H           -0.311019957297    -0.574429416824     0.776550823789     1.007825032230
         H           -2.149019957297     0.500570583176     2.946550823789     1.007825032230
         H           -2.615189957297    -0.659412416824     1.665130823789     1.007825032230
         H           -1.472019957297    -1.139863416824     2.958340823789     1.007825032230

  Running in c1 symmetry.

  Rotational constants: A =      0.56745  B =      0.04968  C =      0.04782 [cm^-1]
  Rotational constants: A =  17011.59298  B =   1489.29532  C =   1433.64567 [MHz]
  Nuclear repulsion =  123.251140891504122

  Charge       = 0
  Multiplicity = 1
  Electrons    = 36
  Nalpha       = 18
  Nbeta        = 18

  ==> Algorithm <==

  SCF Algorithm Type is PK.
  DIIS enabled.
  MOM disabled.
  Fractional occupation disabled.
  Guess Type is SAD.
  Energy threshold   = 1.00e-06
  Density threshold  = 1.00e-10
  Integral threshold = 0.00e+00

  ==> Primary Basis <==

  Basis Set: CC-PVDZ
    Blend: CC-PVDZ
    Number of shells: 60
    Number of basis function: 116
    Number of Cartesian functions: 120
    Spherical Harmonics?: true
    Max angular momentum: 2

  ==> Pre-Iterations <==

   -------------------------------------------------------
    Irrep   Nso     Nmo     Nalpha   Nbeta   Ndocc  Nsocc
   -------------------------------------------------------
     A        116     116       0       0       0       0
   -------------------------------------------------------
    Total     116     116      18      18      18       0
   -------------------------------------------------------

  ==> Integral Setup <==

  Using integral reordering PK algorithm.
  Sizing the integral batches needed.
  Building batch lookup table.
   Calculation information:
      Number of atoms:                  16
      Number of AO shells:              60
      Number of primitives:            148
      Number of atomic orbitals:       120
      Number of basis functions:       116

      Integral cutoff                 1.00e-12
      Number of threads:                 1

	Batch   1 pq = [       0,    6786] index = [             0,23028291] size =     23028291
  Task number: 3
  Buffer size: 11059200
  Buffer per thread: 2
  We computed 1456224 shell quartets total.
  Whereas there are 1675365 unique shell quartets.

  ==> DiskJK: Disk-Based J/K Matrices <==

    J tasked:                  Yes
    K tasked:                  Yes
    wK tasked:                  No
    Memory [MiB]:              375
    Schwarz Cutoff:          1E-12

    OpenMP threads:              1

  Minimum eigenvalue in the overlap matrix is 6.9157027208E-03.
  Using Symmetric Orthogonalization.

  SCF Guess: Superposition of Atomic Densities via on-the-fly atomic UHF.

  ==> Iterations <==

                        Total Energy        Delta E     RMS |[F,P]|

   @RHF iter SAD:  -157.36910172074886   -1.57369e+02   0.00000e+00
   @RHF iter   1:  -158.30634129008567   -9.37240e-01   4.21079e-03 DIIS
   @RHF iter   2:  -158.44020138631060   -1.33860e-01   1.78521e-03 DIIS
   @RHF iter   3:  -158.46337095002522   -2.31696e-02   3.50127e-04 DIIS
   @RHF iter   4:  -158.46520805632559   -1.83711e-03   3.85996e-05 DIIS
   @RHF iter   5:  -158.46523153016790   -2.34738e-05   6.33342e-06 DIIS
   @RHF iter   6:  -158.46523213817736   -6.08009e-07   9.17067e-07 DIIS
   @RHF iter   7:  -158.46523214765077   -9.47341e-09   2.85067e-07 DIIS
   @RHF iter   8:  -158.46523214836463   -7.13868e-10   4.63401e-08 DIIS
   @RHF iter   9:  -158.46523214839823   -3.35945e-11   1.03429e-08 DIIS
   @RHF iter  10:  -158.46523214840104   -2.81375e-12   2.43400e-09 DIIS
   @RHF iter  11:  -158.46523214840118   -1.42109e-13   3.59306e-10 DIIS
   @RHF iter  12:  -158.46523214840110    8.52651e-14   5.71393e-11 DIIS
  Energy and wave function converged.

  ==> Post-Iterations <==

    Orbital Energies [Eh]
    ---------------------

    Doubly Occupied:

       1A    -11.218715     2A    -11.218215     3A    -11.216300
       4A    -11.215061     5A     -1.020003     6A     -1.015907
       7A     -0.840225     8A     -0.832965     9A     -0.604524
      10A     -0.599864    11A     -0.595230    12A     -0.592543
      13A     -0.504863    14A     -0.496897    15A     -0.490883
      16A     -0.487972    17A     -0.481786    18A     -0.477399

    Virtual:

      19A      0.175633    20A      0.196094    21A      0.228957
      22A      0.234360    23A      0.239550    24A      0.258427
      25A      0.264965    26A      0.274622    27A      0.282993
      28A      0.289092    29A      0.313578    30A      0.361030
      31A      0.392543    32A      0.412044    33A      0.581114
      34A      0.583407    35A      0.599264    36A      0.602561
      37A      0.612522    38A      0.641898    39A      0.662018
      40A      0.684237    41A      0.693631    42A      0.818167
      43A      0.845487    44A      0.861199    45A      0.889982
      46A      0.891212    47A      0.893396    48A      0.894847
      49A      0.901254    50A      0.907076    51A      0.915364
      52A      0.921505    53A      0.944850    54A      0.961705
      55A      0.972702    56A      0.993413    57A      1.119603
      58A      1.125780    59A      1.133083    60A      1.178996
      61A      1.231514    62A      1.252065    63A      1.468251
      64A      1.476153    65A      1.481625    66A      1.490557
      67A      1.568648    68A      1.582093    69A      1.681270
      70A      1.683786    71A      1.692600    72A      1.716397
      73A      1.856784    74A      1.858619    75A      1.865681
      76A      1.886833    77A      1.907519    78A      1.922841
      79A      1.933183    80A      1.939613    81A      1.943037
      82A      1.946823    83A      1.949934    84A      1.954693
      85A      1.965633    86A      1.967966    87A      1.994198
      88A      2.024184    89A      2.095014    90A      2.104650
      91A      2.117204    92A      2.137347    93A      2.295691
      94A      2.301474    95A      2.311850    96A      2.323531
      97A      2.450915    98A      2.462026    99A      2.465925
     100A      2.483336   101A      2.561769   102A      2.563369
     103A      2.578378   104A      2.583318   105A      2.762650
     106A      2.765641   107A      2.785908   108A      2.798167
     109A      2.846705   110A      2.854800   111A      2.859706
     112A      2.864517   113A      2.942044   114A      2.955416
     115A      2.975348   116A      2.988895

    Final Occupation by Irrep:
              A
    DOCC [    18 ]

  @RHF Final Energy:  -158.46523214840110

   => Energetics <=

    Nuclear Repulsion Energy =            123.2511408915041216
    One-Electron Energy =                -455.6140418928795270
    Two-Electron Energy =                 173.8976688529743058
    Total Energy =                       -158.4652321484010997

Computation Completed

Properties will be evaluated at   0.000000,   0.000000,   0.000000 [a0]

Properties computed using the SCF density matrix

  Nuclear Dipole Moment: [e a0]
     X:     0.0009      Y:    -0.0478      Z:     0.0312

  Electronic Dipole Moment: [e a0]
     X:    -0.0061      Y:     0.0521      Z:    -0.0145

  Dipole Moment: [e a0]
     X:    -0.0052      Y:     0.0043      Z:     0.0167     Total:     0.0180

  Dipole Moment: [D]
     X:    -0.0132      Y:     0.0109      Z:     0.0424     Total:     0.0457

*** tstop() called on ds3 at Mon Apr 27 18:53:00 2020
Module time:
	user time   =       7.60 seconds =       0.13 minutes
	system time =       2.68 seconds =       0.04 minutes
	total time  =         10 seconds =       0.17 minutes
Total time:
	user time   =       7.60 seconds =       0.13 minutes
	system time =       2.68 seconds =       0.04 minutes
	total time  =         10 seconds =       0.17 minutes
                                     G D M A

                                 by Anthony Stone

                           version 2.2.06, 22 June 2011

               Distributed Multipoles from Gaussian wavefunctions

Starting at 18:53:0 on 27 Apr 2020

Using SCF density matrix from file ./SSI/SSI-058LEU-084LEU-1-dimer.test.30548.fchk

                         Distributed Multipole Analysis

Standard DMA

Positions and radii in angstrom
Multipole moments in atomic units, ea_0^k for rank k

C          x =  0.449980  y =  0.102571  z = -1.905449 angstrom
           Maximum rank =  0   Radius =  0.650 angstrom
                   Q00  =  -0.239783

C          x =  1.976980  y =  0.010571  z = -1.884449 angstrom
           Maximum rank =  0   Radius =  0.650 angstrom
                   Q00  =  -0.236524

H          x =  0.100980  y =  0.371571  z = -2.904449 angstrom
           Maximum rank =  0   Radius =  0.325 angstrom
                   Q00  =   0.077270

H          x =  0.025980  y = -0.868429  z = -1.641449 angstrom
           Maximum rank =  0   Radius =  0.325 angstrom
                   Q00  =   0.074987

H          x =  0.093980  y =  0.839571  z = -1.190449 angstrom
           Maximum rank =  0   Radius =  0.325 angstrom
                   Q00  =   0.086346

H          x =  2.297980  y = -0.258429  z = -0.883449 angstrom
           Maximum rank =  0   Radius =  0.325 angstrom
                   Q00  =   0.079420

H          x =  2.414670  y =  0.974071  z = -2.184599 angstrom
           Maximum rank =  0   Radius =  0.325 angstrom
                   Q00  =   0.078793

H          x =  2.323650  y = -0.779348  z = -2.566979 angstrom
           Maximum rank =  0   Radius =  0.325 angstrom
                   Q00  =   0.077833

C          x = -0.629020  y =  0.201571  z =  1.473551 angstrom
           Maximum rank =  0   Radius =  0.650 angstrom
                   Q00  =  -0.237565

C          x = -1.798020  y = -0.310429  z =  2.313551 angstrom
           Maximum rank =  0   Radius =  0.650 angstrom
                   Q00  =  -0.234152

H          x = -0.917020  y =  1.101571  z =  0.930551 angstrom
           Maximum rank =  0   Radius =  0.325 angstrom
                   Q00  =   0.078226

H          x =  0.207980  y =  0.441571  z =  2.127551 angstrom
           Maximum rank =  0   Radius =  0.325 angstrom
                   Q00  =   0.078432

H          x = -0.311020  y = -0.574429  z =  0.776551 angstrom
           Maximum rank =  0   Radius =  0.325 angstrom
                   Q00  =   0.081057

H          x = -2.149020  y =  0.500571  z =  2.946551 angstrom
           Maximum rank =  0   Radius =  0.325 angstrom
                   Q00  =   0.079011

H          x = -2.615190  y = -0.659412  z =  1.665131 angstrom
           Maximum rank =  0   Radius =  0.325 angstrom
                   Q00  =   0.078459

H          x = -1.472020  y = -1.139863  z =  2.958341 angstrom
           Maximum rank =  0   Radius =  0.325 angstrom
                   Q00  =   0.078192

Total multipoles referred to origin at
           x =   0.000000,  y =    0.000000,  z =    0.000000 angstrom
                   Q00  =  -0.000000

Finished at 18:53:0 on 27 Apr 2020

  DMA results are available in the Python driver through the
	  variable('DMA DISTRIBUTED MULTIPOLES')
  and
	  variable('DMA TOTAL MULTIPOLES')
  commands.

    Psi4 stopped on: Monday, 27 April 2020 06:53PM
    Psi4 wall time for execution: 0:00:10.13

*** Psi4 exiting successfully. Buy a developer a beer!
