                               Psi4 1.3.2 release

  ==> Input File <==

--------------------------------------------------------------------------
import numpy as np
set {scf_type pk
basis cc-pvdz
d_convergence 10
gdma_switch   0
gdma_limit    0
gdma_origin   [ 0.0,  0.0,  0.0 ]
}
molecule test {
    units Angstrom
    1 1
    --
    1 1
    C                1.201134775144106     0.713195574018223    -2.366304873904596
    C                1.194134775144106     1.370195574018222    -0.991304873904596
    O                2.168134775144106     1.315195574018222    -0.242304873904596
    N                0.083134775144106     1.999195574018222    -0.647304873904596
    H                0.846134775144106     1.426195574018222    -3.112304873904596
    H                0.496134775144106    -0.118804425981778    -2.334304873904596
    H                0.050134775144106     2.455195574018223     0.249695126095404
    H               -0.710865224855894     2.028195574018222    -1.270304873904596
    H                2.192794775144106     0.332885574018222    -2.652614873904596
    C               -1.768865224855894    -1.899804425981777    -0.768304873904596
    C               -0.701865224855894    -0.892804425981778     1.239695126095404
    N               -0.696865224855894    -1.746804425981778     0.225695126095404
    N               -1.725865224855894    -0.086804425981778     1.454695126095404
    N                0.345134775144106    -0.839804425981777     2.039695126095404
    H                0.126134775144106    -2.323804425981777     0.120695126095404
    H               -2.471865224855894     0.007195574018222     0.760695126095404
    H               -1.714865224855894     0.556195574018223     2.227695126095404
    H                1.142134775144106    -1.443804425981777     1.865695126095404
    H                0.378134775144106    -0.191804425981778     2.808695126095404
    H               -1.410865224855894    -1.502804425981778    -1.719304873904596
    H               -2.657865224855894    -1.338804425981778    -0.497304873904596
    H               -2.064911224855894    -2.946794425981778    -0.930044873904596

}
e, wfn = energy('scf', return_wfn=True)
gdma(wfn)
dmavals = variable('DMA DISTRIBUTED MULTIPOLES')
charges = np.array(dmavals)
print(charges)
np.save('SSI-015ASN-069ARG-1-dimer.npy', np.array(charges))--------------------------------------------------------------------------

*** tstart() called on ds3
*** at Tue Apr 28 05:24:28 2020

   => Loading Basis Set <=

    Name: CC-PVDZ
    Role: ORBITAL
    Keyword: BASIS
    atoms 1-2, 10-11 entry C          line   138 file /theoryfs2/ds/metcalf/miniconda2/envs/tf2gpu/share/psi4/basis/cc-pvdz.gbs
    atoms 3          entry O          line   198 file /theoryfs2/ds/metcalf/miniconda2/envs/tf2gpu/share/psi4/basis/cc-pvdz.gbs
    atoms 4, 12-14   entry N          line   168 file /theoryfs2/ds/metcalf/miniconda2/envs/tf2gpu/share/psi4/basis/cc-pvdz.gbs
    atoms 5-9, 15-22 entry H          line    22 file /theoryfs2/ds/metcalf/miniconda2/envs/tf2gpu/share/psi4/basis/cc-pvdz.gbs

         ---------------------------------------------------------
                                   SCF
               by Justin Turney, Rob Parrish, Andy Simmonett
                          and Daniel G. A. Smith
                              RHF Reference
                        1 Threads,    500 MiB Core
         ---------------------------------------------------------

  ==> Geometry <==

    Molecular point group: c1
    Full point group: C1

    Geometry (in Angstrom), charge = 1, multiplicity = 1:

       Center              X                  Y                   Z               Mass
    ------------   -----------------  -----------------  -----------------  -----------------
         C            1.201134775144     0.713195574018    -2.366304873905    12.000000000000
         C            1.194134775144     1.370195574018    -0.991304873905    12.000000000000
         O            2.168134775144     1.315195574018    -0.242304873905    15.994914619570
         N            0.083134775144     1.999195574018    -0.647304873905    14.003074004430
         H            0.846134775144     1.426195574018    -3.112304873905     1.007825032230
         H            0.496134775144    -0.118804425982    -2.334304873905     1.007825032230
         H            0.050134775144     2.455195574018     0.249695126095     1.007825032230
         H           -0.710865224856     2.028195574018    -1.270304873905     1.007825032230
         H            2.192794775144     0.332885574018    -2.652614873905     1.007825032230
         C           -1.768865224856    -1.899804425982    -0.768304873905    12.000000000000
         C           -0.701865224856    -0.892804425982     1.239695126095    12.000000000000
         N           -0.696865224856    -1.746804425982     0.225695126095    14.003074004430
         N           -1.725865224856    -0.086804425982     1.454695126095    14.003074004430
         N            0.345134775144    -0.839804425982     2.039695126095    14.003074004430
         H            0.126134775144    -2.323804425982     0.120695126095     1.007825032230
         H           -2.471865224856     0.007195574018     0.760695126095     1.007825032230
         H           -1.714865224856     0.556195574018     2.227695126095     1.007825032230
         H            1.142134775144    -1.443804425982     1.865695126095     1.007825032230
         H            0.378134775144    -0.191804425982     2.808695126095     1.007825032230
         H           -1.410865224856    -1.502804425982    -1.719304873905     1.007825032230
         H           -2.657865224856    -1.338804425982    -0.497304873905     1.007825032230
         H           -2.064911224856    -2.946794425982    -0.930044873905     1.007825032230

  Running in c1 symmetry.

  Rotational constants: A =      0.06318  B =      0.03038  C =      0.02643 [cm^-1]
  Rotational constants: A =   1894.06802  B =    910.83308  C =    792.26954 [MHz]
  Nuclear repulsion =  482.391162002403007

  Charge       = 1
  Multiplicity = 1
  Electrons    = 72
  Nalpha       = 36
  Nbeta        = 36

  ==> Algorithm <==

  SCF Algorithm Type is PK.
  DIIS enabled.
  MOM disabled.
  Fractional occupation disabled.
  Guess Type is SAD.
  Energy threshold   = 1.00e-06
  Density threshold  = 1.00e-10
  Integral threshold = 0.00e+00

  ==> Primary Basis <==

  Basis Set: CC-PVDZ
    Blend: CC-PVDZ
    Number of shells: 93
    Number of basis function: 191
    Number of Cartesian functions: 200
    Spherical Harmonics?: true
    Max angular momentum: 2

  ==> Pre-Iterations <==

   -------------------------------------------------------
    Irrep   Nso     Nmo     Nalpha   Nbeta   Ndocc  Nsocc
   -------------------------------------------------------
     A        191     191       0       0       0       0
   -------------------------------------------------------
    Total     191     191      36      36      36       0
   -------------------------------------------------------

  ==> Integral Setup <==

  Using integral reordering PK algorithm.
  Sizing the integral batches needed.
  Building batch lookup table.
   Calculation information:
      Number of atoms:                  22
      Number of AO shells:              93
      Number of primitives:            263
      Number of atomic orbitals:       200
      Number of basis functions:       191

      Integral cutoff                 1.00e-12
      Number of threads:                 1

	Batch   1 pq = [       0,    9405] index = [             0,44231715] size =     44231715
	Batch   2 pq = [    9405,   13301] index = [      44231715,88464951] size =     44233236
	Batch   3 pq = [   13301,   16290] index = [      88464951,132690195] size =     44225244
	Batch   4 pq = [   16290,   18336] index = [     132690195,168113616] size =     35423421
  Task number: 16
  Buffer size: 11059200
  Buffer per thread: 2
  We computed 9293122 shell quartets total.
  Whereas there are 9555006 unique shell quartets.

  ==> DiskJK: Disk-Based J/K Matrices <==

    J tasked:                  Yes
    K tasked:                  Yes
    wK tasked:                  No
    Memory [MiB]:              375
    Schwarz Cutoff:          1E-12

    OpenMP threads:              1

  Minimum eigenvalue in the overlap matrix is 3.2872813906E-03.
  Using Symmetric Orthogonalization.

  SCF Guess: Superposition of Atomic Densities via on-the-fly atomic UHF.

  ==> Iterations <==

                        Total Energy        Delta E     RMS |[F,P]|

   @RHF iter SAD:  -450.68391736000575   -4.50684e+02   0.00000e+00
   @RHF iter   1:  -451.30250593152101   -6.18589e-01   3.72885e-03 DIIS
   @RHF iter   2:  -451.51609478311758   -2.13589e-01   1.96904e-03 DIIS
   @RHF iter   3:  -451.56867379501739   -5.25790e-02   4.70064e-04 DIIS
   @RHF iter   4:  -451.57315406298261   -4.48027e-03   1.78087e-04 DIIS
   @RHF iter   5:  -451.57382171128472   -6.67648e-04   3.03427e-05 DIIS
   @RHF iter   6:  -451.57386508413811   -4.33729e-05   1.36587e-05 DIIS
   @RHF iter   7:  -451.57387174158168   -6.65744e-06   4.94748e-06 DIIS
   @RHF iter   8:  -451.57387301935887   -1.27778e-06   1.59283e-06 DIIS
   @RHF iter   9:  -451.57387315727891   -1.37920e-07   5.06077e-07 DIIS
   @RHF iter  10:  -451.57387316915452   -1.18756e-08   1.76658e-07 DIIS
   @RHF iter  11:  -451.57387317033010   -1.17558e-09   3.46756e-08 DIIS
   @RHF iter  12:  -451.57387317037546   -4.53610e-11   1.12811e-08 DIIS
   @RHF iter  13:  -451.57387317037632   -8.52651e-13   3.45445e-09 DIIS
   @RHF iter  14:  -451.57387317037342    2.89901e-12   8.93591e-10 DIIS
   @RHF iter  15:  -451.57387317037609   -2.67164e-12   2.67773e-10 DIIS
   @RHF iter  16:  -451.57387317037615   -5.68434e-14   9.87492e-11 DIIS
  Energy and wave function converged.

  ==> Post-Iterations <==

    Orbital Energies [Eh]
    ---------------------

    Doubly Occupied:

       1A    -20.619006     2A    -15.790583     3A    -15.789459
       4A    -15.783207     5A    -15.707435     6A    -11.590782
       7A    -11.461990     8A    -11.448162     9A    -11.352142
      10A     -1.544719    11A     -1.482782    12A     -1.402812
      13A     -1.388808    14A     -1.335917    15A     -1.145931
      16A     -1.109530    17A     -1.040099    18A     -0.976494
      19A     -0.941089    20A     -0.916946    21A     -0.860602
      22A     -0.853300    23A     -0.846447    24A     -0.824400
      25A     -0.798617    26A     -0.765934    27A     -0.746135
      28A     -0.732575    29A     -0.725271    30A     -0.681981
      31A     -0.666883    32A     -0.636106    33A     -0.616859
      34A     -0.585272    35A     -0.522965    36A     -0.520510

    Virtual:

      37A     -0.015608    38A      0.017142    39A      0.024573
      40A      0.030884    41A      0.057077    42A      0.066959
      43A      0.075421    44A      0.092213    45A      0.104164
      46A      0.115747    47A      0.122412    48A      0.145872
      49A      0.151398    50A      0.164180    51A      0.195072
      52A      0.239048    53A      0.269310    54A      0.275070
      55A      0.321001    56A      0.339113    57A      0.352740
      58A      0.403716    59A      0.427431    60A      0.461793
      61A      0.499915    62A      0.503396    63A      0.524688
      64A      0.530459    65A      0.552172    66A      0.558212
      67A      0.565037    68A      0.570658    69A      0.589161
      70A      0.622030    71A      0.630097    72A      0.652677
      73A      0.682322    74A      0.697571    75A      0.719365
      76A      0.733306    77A      0.745513    78A      0.749949
      79A      0.759432    80A      0.771138    81A      0.772795
      82A      0.782553    83A      0.791277    84A      0.822687
      85A      0.829046    86A      0.853289    87A      0.862858
      88A      0.885100    89A      0.905726    90A      0.918334
      91A      0.955293    92A      0.970563    93A      0.986828
      94A      1.002122    95A      1.022298    96A      1.042170
      97A      1.059303    98A      1.121764    99A      1.137370
     100A      1.158267   101A      1.177908   102A      1.206499
     103A      1.217996   104A      1.222206   105A      1.238135
     106A      1.265829   107A      1.283412   108A      1.291703
     109A      1.300441   110A      1.352054   111A      1.363176
     112A      1.391330   113A      1.491299   114A      1.501838
     115A      1.525816   116A      1.535816   117A      1.546083
     118A      1.554090   119A      1.579038   120A      1.610163
     121A      1.632542   122A      1.659967   123A      1.681932
     124A      1.700735   125A      1.721699   126A      1.723931
     127A      1.734833   128A      1.752640   129A      1.760078
     130A      1.782584   131A      1.793502   132A      1.800122
     133A      1.809909   134A      1.822504   135A      1.829866
     136A      1.861189   137A      1.877056   138A      1.885821
     139A      1.908380   140A      1.931498   141A      1.974156
     142A      1.986762   143A      2.023164   144A      2.035854
     145A      2.052926   146A      2.095005   147A      2.124942
     148A      2.134763   149A      2.153282   150A      2.161329
     151A      2.236432   152A      2.265858   153A      2.294848
     154A      2.309777   155A      2.324958   156A      2.333097
     157A      2.350335   158A      2.371580   159A      2.392885
     160A      2.421706   161A      2.445761   162A      2.467463
     163A      2.478698   164A      2.496192   165A      2.540091
     166A      2.579423   167A      2.586181   168A      2.591937
     169A      2.628488   170A      2.651923   171A      2.698526
     172A      2.731966   173A      2.745634   174A      2.758805
     175A      2.783656   176A      2.822197   177A      2.845388
     178A      2.885374   179A      2.910374   180A      2.976759
     181A      3.023830   182A      3.051955   183A      3.090096
     184A      3.101299   185A      3.171849   186A      3.398131
     187A      3.416436   188A      3.574220   189A      3.644571
     190A      3.750596   191A      3.789605

    Final Occupation by Irrep:
              A
    DOCC [    36 ]

  @RHF Final Energy:  -451.57387317037615

   => Energetics <=

    Nuclear Repulsion Energy =            482.3911620024030071
    One-Electron Energy =               -1559.5065653370238579
    Two-Electron Energy =                 625.5415301642447048
    Total Energy =                       -451.5738731703761459

Computation Completed

Properties will be evaluated at   0.000000,   0.000000,   0.000000 [a0]

Properties computed using the SCF density matrix

  Nuclear Dipole Moment: [e a0]
     X:    -5.4208      Y:    -2.8611      Z:    -4.2128

  Electronic Dipole Moment: [e a0]
     X:     2.7137      Y:     1.4890      Z:     5.2793

  Dipole Moment: [e a0]
     X:    -2.7071      Y:    -1.3721      Z:     1.0665     Total:     3.2169

  Dipole Moment: [D]
     X:    -6.8808      Y:    -3.4876      Z:     2.7109     Total:     8.1766

*** tstop() called on ds3 at Tue Apr 28 05:25:48 2020
Module time:
	user time   =      59.96 seconds =       1.00 minutes
	system time =      22.47 seconds =       0.37 minutes
	total time  =         80 seconds =       1.33 minutes
Total time:
	user time   =      59.96 seconds =       1.00 minutes
	system time =      22.47 seconds =       0.37 minutes
	total time  =         80 seconds =       1.33 minutes
                                     G D M A

                                 by Anthony Stone

                           version 2.2.06, 22 June 2011

               Distributed Multipoles from Gaussian wavefunctions

Starting at 5:25:48 on 28 Apr 2020

Using SCF density matrix from file ./SSI/SSI-015ASN-069ARG-1-dimer.test.30243.fchk

                         Distributed Multipole Analysis

Standard DMA

Positions and radii in angstrom
Multipole moments in atomic units, ea_0^k for rank k

C          x =  1.201135  y =  0.713196  z = -2.366305 angstrom
           Maximum rank =  0   Radius =  0.650 angstrom
                   Q00  =  -0.251365

C          x =  1.194135  y =  1.370196  z = -0.991305 angstrom
           Maximum rank =  0   Radius =  0.650 angstrom
                   Q00  =   0.787563

O          x =  2.168135  y =  1.315196  z = -0.242305 angstrom
           Maximum rank =  0   Radius =  0.650 angstrom
                   Q00  =  -0.785646

N          x =  0.083135  y =  1.999196  z = -0.647305 angstrom
           Maximum rank =  0   Radius =  0.650 angstrom
                   Q00  =  -0.529397

H          x =  0.846135  y =  1.426196  z = -3.112305 angstrom
           Maximum rank =  0   Radius =  0.325 angstrom
                   Q00  =   0.119086

H          x =  0.496135  y = -0.118804  z = -2.334305 angstrom
           Maximum rank =  0   Radius =  0.325 angstrom
                   Q00  =   0.082391

H          x =  0.050135  y =  2.455196  z =  0.249695 angstrom
           Maximum rank =  0   Radius =  0.325 angstrom
                   Q00  =   0.218093

H          x = -0.710865  y =  2.028196  z = -1.270305 angstrom
           Maximum rank =  0   Radius =  0.325 angstrom
                   Q00  =   0.208891

H          x =  2.192795  y =  0.332886  z = -2.652615 angstrom
           Maximum rank =  0   Radius =  0.325 angstrom
                   Q00  =   0.147044

C          x = -1.768865  y = -1.899804  z = -0.768305 angstrom
           Maximum rank =  0   Radius =  0.650 angstrom
                   Q00  =  -0.114177

C          x = -0.701865  y = -0.892804  z =  1.239695 angstrom
           Maximum rank =  0   Radius =  0.650 angstrom
                   Q00  =   1.076325

N          x = -0.696865  y = -1.746804  z =  0.225695 angstrom
           Maximum rank =  0   Radius =  0.650 angstrom
                   Q00  =  -0.493071

N          x = -1.725865  y = -0.086804  z =  1.454695 angstrom
           Maximum rank =  0   Radius =  0.650 angstrom
                   Q00  =  -0.575927

N          x =  0.345135  y = -0.839804  z =  2.039695 angstrom
           Maximum rank =  0   Radius =  0.650 angstrom
                   Q00  =  -0.588188

H          x =  0.126135  y = -2.323804  z =  0.120695 angstrom
           Maximum rank =  0   Radius =  0.325 angstrom
                   Q00  =   0.238244

H          x = -2.471865  y =  0.007196  z =  0.760695 angstrom
           Maximum rank =  0   Radius =  0.325 angstrom
                   Q00  =   0.266225

H          x = -1.714865  y =  0.556196  z =  2.227695 angstrom
           Maximum rank =  0   Radius =  0.325 angstrom
                   Q00  =   0.262795

H          x =  1.142135  y = -1.443804  z =  1.865695 angstrom
           Maximum rank =  0   Radius =  0.325 angstrom
                   Q00  =   0.272918

H          x =  0.378135  y = -0.191804  z =  2.808695 angstrom
           Maximum rank =  0   Radius =  0.325 angstrom
                   Q00  =   0.268968

H          x = -1.410865  y = -1.502804  z = -1.719305 angstrom
           Maximum rank =  0   Radius =  0.325 angstrom
                   Q00  =   0.121548

H          x = -2.657865  y = -1.338804  z = -0.497305 angstrom
           Maximum rank =  0   Radius =  0.325 angstrom
                   Q00  =   0.112066

H          x = -2.064911  y = -2.946794  z = -0.930045 angstrom
           Maximum rank =  0   Radius =  0.325 angstrom
                   Q00  =   0.155615

Total multipoles referred to origin at
           x =   0.000000,  y =    0.000000,  z =    0.000000 angstrom
                   Q00  =   1.000000

Finished at 5:25:48 on 28 Apr 2020

  DMA results are available in the Python driver through the
	  variable('DMA DISTRIBUTED MULTIPOLES')
  and
	  variable('DMA TOTAL MULTIPOLES')
  commands.

    Psi4 stopped on: Tuesday, 28 April 2020 05:25AM
    Psi4 wall time for execution: 0:01:20.27

*** Psi4 exiting successfully. Buy a developer a beer!
