                               Psi4 1.3.2 release

  ==> Input File <==

--------------------------------------------------------------------------
import numpy as np
set {scf_type pk
basis cc-pvdz
d_convergence 10
gdma_switch   0
gdma_limit    0
gdma_origin   [ 0.0,  0.0,  0.0 ]
}
molecule test {
    units Angstrom
    0 1
    --
    0 1
    C               -0.791768064592111    -0.055476163450382    -2.683909052588439
    C               -1.977768064592111    -0.847476163450382    -3.259909052588439
    C                0.071231935407889     0.665523836549618    -3.736909052588440
    H               -1.189768064592111     0.680523836549618    -1.991909052588439
    H               -0.152768064592111    -0.759476163450382    -2.153909052588439
    H               -1.579768064592111    -1.554476163450382    -3.994909052588439
    H                0.378231935407889    -0.066476163450382    -4.484909052588440
    H               -0.516768064592111     1.437523836549618    -4.235909052588439
    H               -2.686439064592111    -0.156876163450382    -3.740389052588439
    H               -2.537230064592111    -1.429836163450382    -2.513009052588440
    H                0.951859935407889     1.126223836549618    -3.265479052588439
    C               -0.400768064592111     1.779523836549618     0.721090947411561
    C                0.336231935407889    -0.683476163450382     0.905090947411561
    C                0.175231935407889     0.575523836549618     1.387090947411561
    C                1.178231935407889    -0.597476163450382     2.939090947411561
    N                0.962231935407889    -1.405476163450382     1.895090947411561
    N                0.673231935407889     0.597523836549618     2.671090947411561
    H                0.036231935407889    -1.048476163450382    -0.063909052588439
    H                1.258231935407889    -2.373476163450382     1.836090947411561
    H               -0.391768064592111     1.666523836549618    -0.354909052588439
    H                0.244231935407889     2.626523836549618     0.957090947411561
    H                1.657231935407889    -0.886476163450382     3.868090947411560
    H               -1.414014064592111     2.002173836549618     1.086820947411561

}
e, wfn = energy('scf', return_wfn=True)
gdma(wfn)
dmavals = variable('DMA DISTRIBUTED MULTIPOLES')
charges = np.array(dmavals)
print(charges)
np.save('SSI-019LYS-031HIE-1-dimer.npy', np.array(charges))--------------------------------------------------------------------------

*** tstart() called on ds3
*** at Mon Apr 27 09:06:53 2020

   => Loading Basis Set <=

    Name: CC-PVDZ
    Role: ORBITAL
    Keyword: BASIS
    atoms 1-3, 12-15  entry C          line   138 file /theoryfs2/ds/metcalf/miniconda2/envs/tf2gpu/share/psi4/basis/cc-pvdz.gbs
    atoms 4-11, 18-23 entry H          line    22 file /theoryfs2/ds/metcalf/miniconda2/envs/tf2gpu/share/psi4/basis/cc-pvdz.gbs
    atoms 16-17       entry N          line   168 file /theoryfs2/ds/metcalf/miniconda2/envs/tf2gpu/share/psi4/basis/cc-pvdz.gbs

         ---------------------------------------------------------
                                   SCF
               by Justin Turney, Rob Parrish, Andy Simmonett
                          and Daniel G. A. Smith
                              RHF Reference
                        1 Threads,    500 MiB Core
         ---------------------------------------------------------

  ==> Geometry <==

    Molecular point group: c1
    Full point group: C1

    Geometry (in Angstrom), charge = 0, multiplicity = 1:

       Center              X                  Y                   Z               Mass
    ------------   -----------------  -----------------  -----------------  -----------------
         C           -0.791768064592    -0.055476163450    -2.683909052588    12.000000000000
         C           -1.977768064592    -0.847476163450    -3.259909052588    12.000000000000
         C            0.071231935408     0.665523836550    -3.736909052588    12.000000000000
         H           -1.189768064592     0.680523836550    -1.991909052588     1.007825032230
         H           -0.152768064592    -0.759476163450    -2.153909052588     1.007825032230
         H           -1.579768064592    -1.554476163450    -3.994909052588     1.007825032230
         H            0.378231935408    -0.066476163450    -4.484909052588     1.007825032230
         H           -0.516768064592     1.437523836550    -4.235909052588     1.007825032230
         H           -2.686439064592    -0.156876163450    -3.740389052588     1.007825032230
         H           -2.537230064592    -1.429836163450    -2.513009052588     1.007825032230
         H            0.951859935408     1.126223836550    -3.265479052588     1.007825032230
         C           -0.400768064592     1.779523836550     0.721090947412    12.000000000000
         C            0.336231935408    -0.683476163450     0.905090947412    12.000000000000
         C            0.175231935408     0.575523836550     1.387090947412    12.000000000000
         C            1.178231935408    -0.597476163450     2.939090947412    12.000000000000
         N            0.962231935408    -1.405476163450     1.895090947412    14.003074004430
         N            0.673231935408     0.597523836550     2.671090947412    14.003074004430
         H            0.036231935408    -1.048476163450    -0.063909052588     1.007825032230
         H            1.258231935408    -2.373476163450     1.836090947412     1.007825032230
         H           -0.391768064592     1.666523836550    -0.354909052588     1.007825032230
         H            0.244231935408     2.626523836550     0.957090947412     1.007825032230
         H            1.657231935408    -0.886476163450     3.868090947412     1.007825032230
         H           -1.414014064592     2.002173836550     1.086820947412     1.007825032230

  Running in c1 symmetry.

  Rotational constants: A =      0.09408  B =      0.01854  C =      0.01706 [cm^-1]
  Rotational constants: A =   2820.36291  B =    555.79805  C =    511.56303 [MHz]
  Nuclear repulsion =  423.271960659424451

  Charge       = 0
  Multiplicity = 1
  Electrons    = 70
  Nalpha       = 35
  Nbeta        = 35

  ==> Algorithm <==

  SCF Algorithm Type is PK.
  DIIS enabled.
  MOM disabled.
  Fractional occupation disabled.
  Guess Type is SAD.
  Energy threshold   = 1.00e-06
  Density threshold  = 1.00e-10
  Integral threshold = 0.00e+00

  ==> Primary Basis <==

  Basis Set: CC-PVDZ
    Blend: CC-PVDZ
    Number of shells: 96
    Number of basis function: 196
    Number of Cartesian functions: 205
    Spherical Harmonics?: true
    Max angular momentum: 2

  ==> Pre-Iterations <==

   -------------------------------------------------------
    Irrep   Nso     Nmo     Nalpha   Nbeta   Ndocc  Nsocc
   -------------------------------------------------------
     A        196     196       0       0       0       0
   -------------------------------------------------------
    Total     196     196      35      35      35       0
   -------------------------------------------------------

  ==> Integral Setup <==

  Using integral reordering PK algorithm.
  Sizing the integral batches needed.
  Building batch lookup table.
   Calculation information:
      Number of atoms:                  23
      Number of AO shells:              96
      Number of primitives:            268
      Number of atomic orbitals:       205
      Number of basis functions:       196

      Integral cutoff                 1.00e-12
      Number of threads:                 1

	Batch   1 pq = [       0,    9405] index = [             0,44231715] size =     44231715
	Batch   2 pq = [    9405,   13301] index = [      44231715,88464951] size =     44233236
	Batch   3 pq = [   13301,   16290] index = [      88464951,132690195] size =     44225244
	Batch   4 pq = [   16290,   18810] index = [     132690195,176917455] size =     44227260
	Batch   5 pq = [   18810,   19306] index = [     176917455,186370471] size =      9453016
  Task number: 17
  Buffer size: 11059200
  Buffer per thread: 2
  We computed 8873132 shell quartets total.
  Whereas there are 10841496 unique shell quartets.

  ==> DiskJK: Disk-Based J/K Matrices <==

    J tasked:                  Yes
    K tasked:                  Yes
    wK tasked:                  No
    Memory [MiB]:              375
    Schwarz Cutoff:          1E-12

    OpenMP threads:              1

  Minimum eigenvalue in the overlap matrix is 1.1400839369E-03.
  Using Symmetric Orthogonalization.

  SCF Guess: Superposition of Atomic Densities via on-the-fly atomic UHF.

  ==> Iterations <==

                        Total Energy        Delta E     RMS |[F,P]|

   @RHF iter SAD:  -381.22541736888428   -3.81225e+02   0.00000e+00
   @RHF iter   1:  -381.89420649875888   -6.68789e-01   3.11861e-03 DIIS
   @RHF iter   2:  -382.09155931779827   -1.97353e-01   1.55123e-03 DIIS
   @RHF iter   3:  -382.13587203336971   -4.43127e-02   4.01018e-04 DIIS
   @RHF iter   4:  -382.13977870273271   -3.90667e-03   1.68711e-04 DIIS
   @RHF iter   5:  -382.14039740129533   -6.18699e-04   2.52813e-05 DIIS
   @RHF iter   6:  -382.14042130890232   -2.39076e-05   1.07211e-05 DIIS
   @RHF iter   7:  -382.14042532721584   -4.01831e-06   3.72175e-06 DIIS
   @RHF iter   8:  -382.14042615036476   -8.23149e-07   1.55344e-06 DIIS
   @RHF iter   9:  -382.14042633296964   -1.82605e-07   5.65066e-07 DIIS
   @RHF iter  10:  -382.14042635299234   -2.00227e-08   1.69149e-07 DIIS
   @RHF iter  11:  -382.14042635511021   -2.11787e-09   7.07549e-08 DIIS
   @RHF iter  12:  -382.14042635537987   -2.69665e-10   2.99737e-08 DIIS
   @RHF iter  13:  -382.14042635542432   -4.44516e-11   9.07362e-09 DIIS
   @RHF iter  14:  -382.14042635543080   -6.48015e-12   3.00866e-09 DIIS
   @RHF iter  15:  -382.14042635543063    1.70530e-13   1.14350e-09 DIIS
   @RHF iter  16:  -382.14042635543058    5.68434e-14   4.31954e-10 DIIS
   @RHF iter  17:  -382.14042635543171   -1.13687e-12   1.43610e-10 DIIS
   @RHF iter  18:  -382.14042635543177   -5.68434e-14   4.50581e-11 DIIS
  Energy and wave function converged.

  ==> Post-Iterations <==

    Orbital Energies [Eh]
    ---------------------

    Doubly Occupied:

       1A    -15.618175     2A    -15.527261     3A    -11.291674
       4A    -11.246801     5A    -11.238171     6A    -11.225920
       7A    -11.222924     8A    -11.222165     9A    -11.218765
      10A     -1.337866    11A     -1.152893    12A     -1.054876
      13A     -1.030018    14A     -0.938801    15A     -0.927817
      16A     -0.816592    17A     -0.802316    18A     -0.760030
      19A     -0.737597    20A     -0.634466    21A     -0.610403
      22A     -0.601306    23A     -0.600023    24A     -0.591591
      25A     -0.550373    26A     -0.547212    27A     -0.537333
      28A     -0.536650    29A     -0.523254    30A     -0.481523
      31A     -0.475291    32A     -0.463752    33A     -0.411044
      34A     -0.376970    35A     -0.306981

    Virtual:

      36A      0.172604    37A      0.178628    38A      0.186919
      39A      0.210731    40A      0.216396    41A      0.224383
      42A      0.227298    43A      0.233555    44A      0.246128
      45A      0.260130    46A      0.278400    47A      0.286193
      48A      0.301496    49A      0.302557    50A      0.329935
      51A      0.358440    52A      0.361095    53A      0.388355
      54A      0.404903    55A      0.418086    56A      0.428914
      57A      0.473236    58A      0.492324    59A      0.562175
      60A      0.599880    61A      0.609000    62A      0.614363
      63A      0.616823    64A      0.647976    65A      0.669218
      66A      0.669984    67A      0.694683    68A      0.707650
      69A      0.729551    70A      0.752866    71A      0.772453
      72A      0.790774    73A      0.792814    74A      0.807880
      75A      0.819974    76A      0.846009    77A      0.855434
      78A      0.864131    79A      0.877170    80A      0.884723
      81A      0.889469    82A      0.894577    83A      0.896656
      84A      0.903362    85A      0.914557    86A      0.927573
      87A      0.929762    88A      0.944591    89A      0.957370
      90A      0.978449    91A      0.997180    92A      1.009938
      93A      1.039217    94A      1.063805    95A      1.076995
      96A      1.094627    97A      1.101070    98A      1.110593
      99A      1.119778   100A      1.150853   101A      1.169986
     102A      1.192119   103A      1.231170   104A      1.267891
     105A      1.284730   106A      1.309597   107A      1.326455
     108A      1.340659   109A      1.371844   110A      1.434139
     111A      1.449753   112A      1.469898   113A      1.476903
     114A      1.498074   115A      1.529086   116A      1.549723
     117A      1.566144   118A      1.610156   119A      1.614207
     120A      1.650157   121A      1.672162   122A      1.685945
     123A      1.692532   124A      1.704943   125A      1.710512
     126A      1.774050   127A      1.813935   128A      1.824779
     129A      1.857666   130A      1.869253   131A      1.882354
     132A      1.886819   133A      1.903073   134A      1.911710
     135A      1.919284   136A      1.931872   137A      1.945040
     138A      1.951039   139A      1.956298   140A      1.969549
     141A      1.974512   142A      1.976741   143A      1.985025
     144A      1.992969   145A      2.003103   146A      2.018616
     147A      2.025264   148A      2.057845   149A      2.069784
     150A      2.097474   151A      2.123240   152A      2.147636
     153A      2.165997   154A      2.193205   155A      2.217806
     156A      2.237372   157A      2.279920   158A      2.306541
     159A      2.307600   160A      2.319736   161A      2.327747
     162A      2.362673   163A      2.399513   164A      2.439605
     165A      2.452482   166A      2.496661   167A      2.503759
     168A      2.530666   169A      2.550291   170A      2.577230
     171A      2.606317   172A      2.620878   173A      2.629735
     174A      2.716559   175A      2.727719   176A      2.747223
     177A      2.759106   178A      2.768889   179A      2.778212
     180A      2.784614   181A      2.792900   182A      2.796258
     183A      2.859810   184A      2.870652   185A      2.902601
     186A      2.904346   187A      2.919649   188A      2.954189
     189A      2.963679   190A      2.984367   191A      3.065830
     192A      3.086275   193A      3.166400   194A      3.248760
     195A      3.478296   196A      3.800312

    Final Occupation by Irrep:
              A
    DOCC [    35 ]

  @RHF Final Energy:  -382.14042635543177

   => Energetics <=

    Nuclear Repulsion Energy =            423.2719606594244510
    One-Electron Energy =               -1355.5871089329498318
    Two-Electron Energy =                 550.1747219180936099
    Total Energy =                       -382.1404263554318277

Computation Completed

Properties will be evaluated at   0.000000,   0.000000,   0.000000 [a0]

Properties computed using the SCF density matrix

  Nuclear Dipole Moment: [e a0]
     X:    -5.5757      Y:     1.1872      Z:   -17.8731

  Electronic Dipole Moment: [e a0]
     X:     5.8172      Y:    -2.4255      Z:    17.3915

  Dipole Moment: [e a0]
     X:     0.2415      Y:    -1.2383      Z:    -0.4816     Total:     1.3504

  Dipole Moment: [D]
     X:     0.6140      Y:    -3.1474      Z:    -1.2241     Total:     3.4325

*** tstop() called on ds3 at Mon Apr 27 09:09:48 2020
Module time:
	user time   =      60.37 seconds =       1.01 minutes
	system time =      26.96 seconds =       0.45 minutes
	total time  =        175 seconds =       2.92 minutes
Total time:
	user time   =      60.37 seconds =       1.01 minutes
	system time =      26.96 seconds =       0.45 minutes
	total time  =        175 seconds =       2.92 minutes
                                     G D M A

                                 by Anthony Stone

                           version 2.2.06, 22 June 2011

               Distributed Multipoles from Gaussian wavefunctions

Starting at 9:9:48 on 27 Apr 2020

Using SCF density matrix from file ./SSI/SSI-019LYS-031HIE-1-dimer.test.1447.fchk

                         Distributed Multipole Analysis

Standard DMA

Positions and radii in angstrom
Multipole moments in atomic units, ea_0^k for rank k

C          x = -0.791768  y = -0.055476  z = -2.683909 angstrom
           Maximum rank =  0   Radius =  0.650 angstrom
                   Q00  =  -0.086341

C          x = -1.977768  y = -0.847476  z = -3.259909 angstrom
           Maximum rank =  0   Radius =  0.650 angstrom
                   Q00  =  -0.250485

C          x =  0.071232  y =  0.665524  z = -3.736909 angstrom
           Maximum rank =  0   Radius =  0.650 angstrom
                   Q00  =  -0.232017

H          x = -1.189768  y =  0.680524  z = -1.991909 angstrom
           Maximum rank =  0   Radius =  0.325 angstrom
                   Q00  =   0.047391

H          x = -0.152768  y = -0.759476  z = -2.153909 angstrom
           Maximum rank =  0   Radius =  0.325 angstrom
                   Q00  =   0.035080

H          x = -1.579768  y = -1.554476  z = -3.994909 angstrom
           Maximum rank =  0   Radius =  0.325 angstrom
                   Q00  =   0.073515

H          x =  0.378232  y = -0.066476  z = -4.484909 angstrom
           Maximum rank =  0   Radius =  0.325 angstrom
                   Q00  =   0.078632

H          x = -0.516768  y =  1.437524  z = -4.235909 angstrom
           Maximum rank =  0   Radius =  0.325 angstrom
                   Q00  =   0.080157

H          x = -2.686439  y = -0.156876  z = -3.740389 angstrom
           Maximum rank =  0   Radius =  0.325 angstrom
                   Q00  =   0.079590

H          x = -2.537230  y = -1.429836  z = -2.513009 angstrom
           Maximum rank =  0   Radius =  0.325 angstrom
                   Q00  =   0.087822

H          x =  0.951860  y =  1.126224  z = -3.265479 angstrom
           Maximum rank =  0   Radius =  0.325 angstrom
                   Q00  =   0.090070

C          x = -0.400768  y =  1.779524  z =  0.721091 angstrom
           Maximum rank =  0   Radius =  0.650 angstrom
                   Q00  =  -0.200088

C          x =  0.336232  y = -0.683476  z =  0.905091 angstrom
           Maximum rank =  0   Radius =  0.650 angstrom
                   Q00  =   0.002506

C          x =  0.175232  y =  0.575524  z =  1.387091 angstrom
           Maximum rank =  0   Radius =  0.650 angstrom
                   Q00  =   0.223463

C          x =  1.178232  y = -0.597476  z =  2.939091 angstrom
           Maximum rank =  0   Radius =  0.650 angstrom
                   Q00  =   0.461990

N          x =  0.962232  y = -1.405476  z =  1.895091 angstrom
           Maximum rank =  0   Radius =  0.650 angstrom
                   Q00  =  -0.482737

N          x =  0.673232  y =  0.597524  z =  2.671091 angstrom
           Maximum rank =  0   Radius =  0.650 angstrom
                   Q00  =  -0.766379

H          x =  0.036232  y = -1.048476  z = -0.063909 angstrom
           Maximum rank =  0   Radius =  0.325 angstrom
                   Q00  =   0.101087

H          x =  1.258232  y = -2.373476  z =  1.836091 angstrom
           Maximum rank =  0   Radius =  0.325 angstrom
                   Q00  =   0.218413

H          x = -0.391768  y =  1.666524  z = -0.354909 angstrom
           Maximum rank =  0   Radius =  0.325 angstrom
                   Q00  =   0.098685

H          x =  0.244232  y =  2.626524  z =  0.957091 angstrom
           Maximum rank =  0   Radius =  0.325 angstrom
                   Q00  =   0.113321

H          x =  1.657232  y = -0.886476  z =  3.868091 angstrom
           Maximum rank =  0   Radius =  0.325 angstrom
                   Q00  =   0.122942

H          x = -1.414014  y =  2.002174  z =  1.086821 angstrom
           Maximum rank =  0   Radius =  0.325 angstrom
                   Q00  =   0.103385

Total multipoles referred to origin at
           x =   0.000000,  y =    0.000000,  z =    0.000000 angstrom
                   Q00  =  -0.000000

Finished at 9:9:48 on 27 Apr 2020

  DMA results are available in the Python driver through the
	  variable('DMA DISTRIBUTED MULTIPOLES')
  and
	  variable('DMA TOTAL MULTIPOLES')
  commands.

    Psi4 stopped on: Monday, 27 April 2020 09:09AM
    Psi4 wall time for execution: 0:02:55.36

*** Psi4 exiting successfully. Buy a developer a beer!
