                               Psi4 1.3.2 release

  ==> Input File <==

--------------------------------------------------------------------------
import numpy as np
set {scf_type pk
basis cc-pvdz
d_convergence 10
gdma_switch   0
gdma_limit    0
gdma_origin   [ 0.0,  0.0,  0.0 ]
}
molecule test {
    units Angstrom
    0 1
    --
    0 1
    C                1.468742431074092    -1.429134631264369     0.819973329090292
    C                2.108742431074092    -0.933134631264369    -0.487026670909708
    H                1.201742431074092    -0.592134631264369     1.462973329090292
    H                2.155742431074092    -2.093134631264369     1.346973329090292
    H                0.554742431074092    -1.978134631264369     0.590973329090292
    H                1.451742431074092    -0.191134631264369    -0.938026670909708
    H                3.090592431074092    -0.474507631264369    -0.298264670909708
    H                2.213022431074092    -1.764504731264369    -1.199732670909708
    C               -1.221257568925908     0.800865368735631     0.171973329090292
    C               -2.352257568925908     1.567865368735631    -0.501026670909708
    H               -1.555257568925908     0.367865368735631     1.112973329090292
    H               -0.372257568925908     1.459865368735631     0.357973329090292
    H               -0.908257568925908    -0.017134631264369    -0.476026670909708
    H               -3.178257568925908     0.878865368735631    -0.682026670909708
    H               -2.697340568925908     2.384298368735631     0.150398329090292
    H               -2.003480568925907     1.942855368735631    -1.474544670909708

}
e, wfn = energy('scf', return_wfn=True)
gdma(wfn)
dmavals = variable('DMA DISTRIBUTED MULTIPOLES')
charges = np.array(dmavals)
print(charges)
np.save('SSI-019LEU-041VAL-1-dimer.npy', np.array(charges))--------------------------------------------------------------------------

*** tstart() called on ds3
*** at Mon Apr 27 16:06:10 2020

   => Loading Basis Set <=

    Name: CC-PVDZ
    Role: ORBITAL
    Keyword: BASIS
    atoms 1-2, 9-10  entry C          line   138 file /theoryfs2/ds/metcalf/miniconda2/envs/tf2gpu/share/psi4/basis/cc-pvdz.gbs
    atoms 3-8, 11-16 entry H          line    22 file /theoryfs2/ds/metcalf/miniconda2/envs/tf2gpu/share/psi4/basis/cc-pvdz.gbs

         ---------------------------------------------------------
                                   SCF
               by Justin Turney, Rob Parrish, Andy Simmonett
                          and Daniel G. A. Smith
                              RHF Reference
                        1 Threads,    500 MiB Core
         ---------------------------------------------------------

  ==> Geometry <==

    Molecular point group: c1
    Full point group: C1

    Geometry (in Angstrom), charge = 0, multiplicity = 1:

       Center              X                  Y                   Z               Mass
    ------------   -----------------  -----------------  -----------------  -----------------
         C            1.468742431074    -1.429134631264     0.819973329090    12.000000000000
         C            2.108742431074    -0.933134631264    -0.487026670910    12.000000000000
         H            1.201742431074    -0.592134631264     1.462973329090     1.007825032230
         H            2.155742431074    -2.093134631264     1.346973329090     1.007825032230
         H            0.554742431074    -1.978134631264     0.590973329090     1.007825032230
         H            1.451742431074    -0.191134631264    -0.938026670910     1.007825032230
         H            3.090592431074    -0.474507631264    -0.298264670910     1.007825032230
         H            2.213022431074    -1.764504731264    -1.199732670910     1.007825032230
         C           -1.221257568926     0.800865368736     0.171973329090    12.000000000000
         C           -2.352257568926     1.567865368736    -0.501026670910    12.000000000000
         H           -1.555257568926     0.367865368736     1.112973329090     1.007825032230
         H           -0.372257568926     1.459865368736     0.357973329090     1.007825032230
         H           -0.908257568926    -0.017134631264    -0.476026670910     1.007825032230
         H           -3.178257568926     0.878865368736    -0.682026670910     1.007825032230
         H           -2.697340568926     2.384298368736     0.150398329090     1.007825032230
         H           -2.003480568926     1.942855368736    -1.474544670910     1.007825032230

  Running in c1 symmetry.

  Rotational constants: A =      0.49625  B =      0.05495  C =      0.05156 [cm^-1]
  Rotational constants: A =  14877.32641  B =   1647.44119  C =   1545.72120 [MHz]
  Nuclear repulsion =  124.686545184609898

  Charge       = 0
  Multiplicity = 1
  Electrons    = 36
  Nalpha       = 18
  Nbeta        = 18

  ==> Algorithm <==

  SCF Algorithm Type is PK.
  DIIS enabled.
  MOM disabled.
  Fractional occupation disabled.
  Guess Type is SAD.
  Energy threshold   = 1.00e-06
  Density threshold  = 1.00e-10
  Integral threshold = 0.00e+00

  ==> Primary Basis <==

  Basis Set: CC-PVDZ
    Blend: CC-PVDZ
    Number of shells: 60
    Number of basis function: 116
    Number of Cartesian functions: 120
    Spherical Harmonics?: true
    Max angular momentum: 2

  ==> Pre-Iterations <==

   -------------------------------------------------------
    Irrep   Nso     Nmo     Nalpha   Nbeta   Ndocc  Nsocc
   -------------------------------------------------------
     A        116     116       0       0       0       0
   -------------------------------------------------------
    Total     116     116      18      18      18       0
   -------------------------------------------------------

  ==> Integral Setup <==

  Using integral reordering PK algorithm.
  Sizing the integral batches needed.
  Building batch lookup table.
   Calculation information:
      Number of atoms:                  16
      Number of AO shells:              60
      Number of primitives:            148
      Number of atomic orbitals:       120
      Number of basis functions:       116

      Integral cutoff                 1.00e-12
      Number of threads:                 1

	Batch   1 pq = [       0,    6786] index = [             0,23028291] size =     23028291
  Task number: 3
  Buffer size: 11059200
  Buffer per thread: 2
  We computed 1497937 shell quartets total.
  Whereas there are 1675365 unique shell quartets.

  ==> DiskJK: Disk-Based J/K Matrices <==

    J tasked:                  Yes
    K tasked:                  Yes
    wK tasked:                  No
    Memory [MiB]:              375
    Schwarz Cutoff:          1E-12

    OpenMP threads:              1

  Minimum eigenvalue in the overlap matrix is 6.4333177872E-03.
  Using Symmetric Orthogonalization.

  SCF Guess: Superposition of Atomic Densities via on-the-fly atomic UHF.

  ==> Iterations <==

                        Total Energy        Delta E     RMS |[F,P]|

   @RHF iter SAD:  -157.35865804781020   -1.57359e+02   0.00000e+00
   @RHF iter   1:  -158.30743279189250   -9.48775e-01   4.20294e-03 DIIS
   @RHF iter   2:  -158.44094222732062   -1.33509e-01   1.78234e-03 DIIS
   @RHF iter   3:  -158.46405639435994   -2.31142e-02   3.49887e-04 DIIS
   @RHF iter   4:  -158.46589181726540   -1.83542e-03   3.84576e-05 DIIS
   @RHF iter   5:  -158.46591505160782   -2.32343e-05   6.22657e-06 DIIS
   @RHF iter   6:  -158.46591564052537   -5.88918e-07   8.16568e-07 DIIS
   @RHF iter   7:  -158.46591564811843   -7.59306e-09   2.46111e-07 DIIS
   @RHF iter   8:  -158.46591564861407   -4.95646e-10   3.82082e-08 DIIS
   @RHF iter   9:  -158.46591564863238   -1.83036e-11   7.12321e-09 DIIS
   @RHF iter  10:  -158.46591564863326   -8.81073e-13   1.71363e-09 DIIS
   @RHF iter  11:  -158.46591564863343   -1.70530e-13   5.24757e-10 DIIS
   @RHF iter  12:  -158.46591564863365   -2.27374e-13   1.59404e-10 DIIS
   @RHF iter  13:  -158.46591564863354    1.13687e-13   2.15420e-11 DIIS
  Energy and wave function converged.

  ==> Post-Iterations <==

    Orbital Energies [Eh]
    ---------------------

    Doubly Occupied:

       1A    -11.219457     2A    -11.218508     3A    -11.216382
       4A    -11.216264     5A     -1.021230     6A     -1.014006
       7A     -0.837813     8A     -0.835377     9A     -0.604345
      10A     -0.599906    11A     -0.593873    12A     -0.593137
      13A     -0.501648    14A     -0.496172    15A     -0.490022
      16A     -0.487982    17A     -0.483143    18A     -0.481044

    Virtual:

      19A      0.174699    20A      0.197685    21A      0.226033
      22A      0.234492    23A      0.247537    24A      0.259697
      25A      0.262466    26A      0.277217    27A      0.280964
      28A      0.292204    29A      0.313356    30A      0.333751
      31A      0.387229    32A      0.403883    33A      0.562832
      34A      0.596805    35A      0.600197    36A      0.604038
      37A      0.609024    38A      0.633622    39A      0.683612
      40A      0.694431    41A      0.734438    42A      0.768801
      43A      0.841611    44A      0.864080    45A      0.884341
      46A      0.889462    47A      0.892764    48A      0.894164
      49A      0.909874    50A      0.912878    51A      0.916508
      52A      0.926429    53A      0.947551    54A      0.960436
      55A      0.971895    56A      1.028886    57A      1.125839
      58A      1.126379    59A      1.130137    60A      1.154704
      61A      1.219555    62A      1.265225    63A      1.467832
      64A      1.469560    65A      1.480404    66A      1.490647
      67A      1.581454    68A      1.589519    69A      1.675909
      70A      1.688785    71A      1.694977    72A      1.697047
      73A      1.857546    74A      1.862059    75A      1.868449
      76A      1.887123    77A      1.897929    78A      1.919484
      79A      1.930914    80A      1.941935    81A      1.945534
      82A      1.949381    83A      1.955115    84A      1.956274
      85A      1.961706    86A      1.977160    87A      1.992076
      88A      2.066259    89A      2.101626    90A      2.107973
      91A      2.115971    92A      2.139749    93A      2.291728
      94A      2.308462    95A      2.318904    96A      2.348681
      97A      2.446908    98A      2.453019    99A      2.456761
     100A      2.474243   101A      2.561645   102A      2.568608
     103A      2.570723   104A      2.582713   105A      2.761840
     106A      2.766363   107A      2.790127   108A      2.795738
     109A      2.845024   110A      2.849785   111A      2.857247
     112A      2.861548   113A      2.936819   114A      2.953828
     115A      2.966671   116A      2.973016

    Final Occupation by Irrep:
              A
    DOCC [    18 ]

  @RHF Final Energy:  -158.46591564863354

   => Energetics <=

    Nuclear Repulsion Energy =            124.6865451846098978
    One-Electron Energy =                -458.4843006386984143
    Two-Electron Energy =                 175.3318398054549903
    Total Energy =                       -158.4659156486335405

Computation Completed

Properties will be evaluated at   0.000000,   0.000000,   0.000000 [a0]

Properties computed using the SCF density matrix

  Nuclear Dipole Moment: [e a0]
     X:    -0.0443      Y:    -0.0721      Z:    -0.0435

  Electronic Dipole Moment: [e a0]
     X:     0.0203      Y:     0.0678      Z:     0.0488

  Dipole Moment: [e a0]
     X:    -0.0241      Y:    -0.0043      Z:     0.0053     Total:     0.0250

  Dipole Moment: [D]
     X:    -0.0612      Y:    -0.0109      Z:     0.0135     Total:     0.0636

*** tstop() called on ds3 at Mon Apr 27 16:06:21 2020
Module time:
	user time   =       8.16 seconds =       0.14 minutes
	system time =       3.35 seconds =       0.06 minutes
	total time  =         11 seconds =       0.18 minutes
Total time:
	user time   =       8.16 seconds =       0.14 minutes
	system time =       3.35 seconds =       0.06 minutes
	total time  =         11 seconds =       0.18 minutes
                                     G D M A

                                 by Anthony Stone

                           version 2.2.06, 22 June 2011

               Distributed Multipoles from Gaussian wavefunctions

Starting at 16:6:21 on 27 Apr 2020

Using SCF density matrix from file ./SSI/SSI-019LEU-041VAL-1-dimer.test.22366.fchk

                         Distributed Multipole Analysis

Standard DMA

Positions and radii in angstrom
Multipole moments in atomic units, ea_0^k for rank k

C          x =  1.468742  y = -1.429135  z =  0.819973 angstrom
           Maximum rank =  0   Radius =  0.650 angstrom
                   Q00  =  -0.248100

C          x =  2.108742  y = -0.933135  z = -0.487027 angstrom
           Maximum rank =  0   Radius =  0.650 angstrom
                   Q00  =  -0.229609

H          x =  1.201742  y = -0.592135  z =  1.462973 angstrom
           Maximum rank =  0   Radius =  0.325 angstrom
                   Q00  =   0.082603

H          x =  2.155742  y = -2.093135  z =  1.346973 angstrom
           Maximum rank =  0   Radius =  0.325 angstrom
                   Q00  =   0.079888

H          x =  0.554742  y = -1.978135  z =  0.590973 angstrom
           Maximum rank =  0   Radius =  0.325 angstrom
                   Q00  =   0.078196

H          x =  1.451742  y = -0.191135  z = -0.938027 angstrom
           Maximum rank =  0   Radius =  0.325 angstrom
                   Q00  =   0.080177

H          x =  3.090592  y = -0.474508  z = -0.298265 angstrom
           Maximum rank =  0   Radius =  0.325 angstrom
                   Q00  =   0.080116

H          x =  2.213022  y = -1.764505  z = -1.199733 angstrom
           Maximum rank =  0   Radius =  0.325 angstrom
                   Q00  =   0.078376

C          x = -1.221258  y =  0.800865  z =  0.171973 angstrom
           Maximum rank =  0   Radius =  0.650 angstrom
                   Q00  =  -0.237152

C          x = -2.352258  y =  1.567865  z = -0.501027 angstrom
           Maximum rank =  0   Radius =  0.650 angstrom
                   Q00  =  -0.235625

H          x = -1.555258  y =  0.367865  z =  1.112973 angstrom
           Maximum rank =  0   Radius =  0.325 angstrom
                   Q00  =   0.079365

H          x = -0.372258  y =  1.459865  z =  0.357973 angstrom
           Maximum rank =  0   Radius =  0.325 angstrom
                   Q00  =   0.077318

H          x = -0.908258  y = -0.017135  z = -0.476027 angstrom
           Maximum rank =  0   Radius =  0.325 angstrom
                   Q00  =   0.077518

H          x = -3.178258  y =  0.878865  z = -0.682027 angstrom
           Maximum rank =  0   Radius =  0.325 angstrom
                   Q00  =   0.078370

H          x = -2.697341  y =  2.384298  z =  0.150398 angstrom
           Maximum rank =  0   Radius =  0.325 angstrom
                   Q00  =   0.080025

H          x = -2.003481  y =  1.942855  z = -1.474545 angstrom
           Maximum rank =  0   Radius =  0.325 angstrom
                   Q00  =   0.078535

Total multipoles referred to origin at
           x =   0.000000,  y =    0.000000,  z =    0.000000 angstrom
                   Q00  =  -0.000000

Finished at 16:6:21 on 27 Apr 2020

  DMA results are available in the Python driver through the
	  variable('DMA DISTRIBUTED MULTIPOLES')
  and
	  variable('DMA TOTAL MULTIPOLES')
  commands.

    Psi4 stopped on: Monday, 27 April 2020 04:06PM
    Psi4 wall time for execution: 0:00:11.18

*** Psi4 exiting successfully. Buy a developer a beer!
