                               Psi4 1.3.2 release

  ==> Input File <==

--------------------------------------------------------------------------
import numpy as np
set {scf_type pk
basis cc-pvdz
d_convergence 10
gdma_switch   0
gdma_limit    0
gdma_origin   [ 0.0,  0.0,  0.0 ]
}
molecule test {
    units Angstrom
    0 1
    --
    0 1
    C                3.021242657059383    -1.591191087917982     0.267440840179944
    C               -0.650757342940616     0.479808912082018     1.059440840179944
    C               -0.583757342940616    -0.447191087917982     0.031440840179944
    C                0.474242657059384     0.728808912082018     1.837440840179944
    C                0.607242657059384    -1.116191087917982    -0.224559159820056
    C                1.664242657059384     0.058808912082018     1.579440840179944
    C                1.734242657059384    -0.872191087917982     0.549440840179944
    H               -1.575757342940616     0.996808912082018     1.273440840179944
    H               -1.449757342940616    -0.677191087917982    -0.560559159820056
    H                0.428242657059384     1.449808912082018     2.639440840179945
    H                0.653242657059384    -1.833191087917982    -1.031559159820056
    H                2.533242657059384     0.266808912082018     2.185440840179945
    H                3.842242657059384    -0.923191087917982     0.535440840179944
    H                3.103242657059384    -1.799191087917982    -0.796559159820056
    H                3.133555657059384    -2.550174087917982     0.794450840179944
    C               -3.086757342940616     1.163808912082018    -1.487559159820056
    C               -2.636757342940616     1.380808912082018    -2.926559159820056
    H               -2.318757342940616     1.552808912082018    -0.823559159820056
    H               -3.999757342940616     1.730808912082018    -1.305559159820056
    H               -3.276757342940616     0.116808912082018    -1.267559159820056
    H               -1.838757342940616     0.670808912082018    -3.101559159820056
    H               -2.284757342940616     2.405808912082017    -3.042559159820055
    H               -3.417065342940616     1.149098912082018    -3.666439159820055

}
e, wfn = energy('scf', return_wfn=True)
gdma(wfn)
dmavals = variable('DMA DISTRIBUTED MULTIPOLES')
charges = np.array(dmavals)
print(charges)
np.save('SSI-021PHE-113ILE-1-dimer.npy', np.array(charges))--------------------------------------------------------------------------

*** tstart() called on ds3
*** at Mon Apr 27 18:58:03 2020

   => Loading Basis Set <=

    Name: CC-PVDZ
    Role: ORBITAL
    Keyword: BASIS
    atoms 1-7, 16-17  entry C          line   138 file /theoryfs2/ds/metcalf/miniconda2/envs/tf2gpu/share/psi4/basis/cc-pvdz.gbs
    atoms 8-15, 18-23 entry H          line    22 file /theoryfs2/ds/metcalf/miniconda2/envs/tf2gpu/share/psi4/basis/cc-pvdz.gbs

         ---------------------------------------------------------
                                   SCF
               by Justin Turney, Rob Parrish, Andy Simmonett
                          and Daniel G. A. Smith
                              RHF Reference
                        1 Threads,    500 MiB Core
         ---------------------------------------------------------

  ==> Geometry <==

    Molecular point group: c1
    Full point group: C1

    Geometry (in Angstrom), charge = 0, multiplicity = 1:

       Center              X                  Y                   Z               Mass
    ------------   -----------------  -----------------  -----------------  -----------------
         C            3.021242657059    -1.591191087918     0.267440840180    12.000000000000
         C           -0.650757342941     0.479808912082     1.059440840180    12.000000000000
         C           -0.583757342941    -0.447191087918     0.031440840180    12.000000000000
         C            0.474242657059     0.728808912082     1.837440840180    12.000000000000
         C            0.607242657059    -1.116191087918    -0.224559159820    12.000000000000
         C            1.664242657059     0.058808912082     1.579440840180    12.000000000000
         C            1.734242657059    -0.872191087918     0.549440840180    12.000000000000
         H           -1.575757342941     0.996808912082     1.273440840180     1.007825032230
         H           -1.449757342941    -0.677191087918    -0.560559159820     1.007825032230
         H            0.428242657059     1.449808912082     2.639440840180     1.007825032230
         H            0.653242657059    -1.833191087918    -1.031559159820     1.007825032230
         H            2.533242657059     0.266808912082     2.185440840180     1.007825032230
         H            3.842242657059    -0.923191087918     0.535440840180     1.007825032230
         H            3.103242657059    -1.799191087918    -0.796559159820     1.007825032230
         H            3.133555657059    -2.550174087918     0.794450840180     1.007825032230
         C           -3.086757342941     1.163808912082    -1.487559159820    12.000000000000
         C           -2.636757342941     1.380808912082    -2.926559159820    12.000000000000
         H           -2.318757342941     1.552808912082    -0.823559159820     1.007825032230
         H           -3.999757342941     1.730808912082    -1.305559159820     1.007825032230
         H           -3.276757342941     0.116808912082    -1.267559159820     1.007825032230
         H           -1.838757342941     0.670808912082    -3.101559159820     1.007825032230
         H           -2.284757342941     2.405808912082    -3.042559159820     1.007825032230
         H           -3.417065342941     1.149098912082    -3.666439159820     1.007825032230

  Running in c1 symmetry.

  Rotational constants: A =      0.09608  B =      0.02242  C =      0.01935 [cm^-1]
  Rotational constants: A =   2880.44821  B =    672.12625  C =    580.15113 [MHz]
  Nuclear repulsion =  407.755579251143558

  Charge       = 0
  Multiplicity = 1
  Electrons    = 68
  Nalpha       = 34
  Nbeta        = 34

  ==> Algorithm <==

  SCF Algorithm Type is PK.
  DIIS enabled.
  MOM disabled.
  Fractional occupation disabled.
  Guess Type is SAD.
  Energy threshold   = 1.00e-06
  Density threshold  = 1.00e-10
  Integral threshold = 0.00e+00

  ==> Primary Basis <==

  Basis Set: CC-PVDZ
    Blend: CC-PVDZ
    Number of shells: 96
    Number of basis function: 196
    Number of Cartesian functions: 205
    Spherical Harmonics?: true
    Max angular momentum: 2

  ==> Pre-Iterations <==

   -------------------------------------------------------
    Irrep   Nso     Nmo     Nalpha   Nbeta   Ndocc  Nsocc
   -------------------------------------------------------
     A        196     196       0       0       0       0
   -------------------------------------------------------
    Total     196     196      34      34      34       0
   -------------------------------------------------------

  ==> Integral Setup <==

  Using integral reordering PK algorithm.
  Sizing the integral batches needed.
  Building batch lookup table.
   Calculation information:
      Number of atoms:                  23
      Number of AO shells:              96
      Number of primitives:            268
      Number of atomic orbitals:       205
      Number of basis functions:       196

      Integral cutoff                 1.00e-12
      Number of threads:                 1

	Batch   1 pq = [       0,    9405] index = [             0,44231715] size =     44231715
	Batch   2 pq = [    9405,   13301] index = [      44231715,88464951] size =     44233236
	Batch   3 pq = [   13301,   16290] index = [      88464951,132690195] size =     44225244
	Batch   4 pq = [   16290,   18810] index = [     132690195,176917455] size =     44227260
	Batch   5 pq = [   18810,   19306] index = [     176917455,186370471] size =      9453016
  Task number: 17
  Buffer size: 11059200
  Buffer per thread: 2
  We computed 9239206 shell quartets total.
  Whereas there are 10841496 unique shell quartets.

  ==> DiskJK: Disk-Based J/K Matrices <==

    J tasked:                  Yes
    K tasked:                  Yes
    wK tasked:                  No
    Memory [MiB]:              375
    Schwarz Cutoff:          1E-12

    OpenMP threads:              1

  Minimum eigenvalue in the overlap matrix is 2.9981885704E-04.
  Using Symmetric Orthogonalization.

  SCF Guess: Superposition of Atomic Densities via on-the-fly atomic UHF.

  ==> Iterations <==

                        Total Energy        Delta E     RMS |[F,P]|

   @RHF iter SAD:  -348.00037771316687   -3.48000e+02   0.00000e+00
   @RHF iter   1:  -348.75979417878455   -7.59416e-01   2.91097e-03 DIIS
   @RHF iter   2:  -348.95472994743369   -1.94936e-01   1.20327e-03 DIIS
   @RHF iter   3:  -348.98505979205083   -3.03298e-02   2.61938e-04 DIIS
   @RHF iter   4:  -348.98757514647372   -2.51535e-03   5.60115e-05 DIIS
   @RHF iter   5:  -348.98765554411665   -8.03976e-05   1.90283e-05 DIIS
   @RHF iter   6:  -348.98766434952222   -8.80541e-06   4.98499e-06 DIIS
   @RHF iter   7:  -348.98766505151275   -7.01991e-07   1.20907e-06 DIIS
   @RHF iter   8:  -348.98766509544214   -4.39294e-08   2.58303e-07 DIIS
   @RHF iter   9:  -348.98766509819245   -2.75031e-09   8.79492e-08 DIIS
   @RHF iter  10:  -348.98766509845518   -2.62730e-10   3.04173e-08 DIIS
   @RHF iter  11:  -348.98766509849355   -3.83693e-11   9.17476e-09 DIIS
   @RHF iter  12:  -348.98766509849406   -5.11591e-13   3.75505e-09 DIIS
   @RHF iter  13:  -348.98766509849554   -1.47793e-12   1.02022e-09 DIIS
   @RHF iter  14:  -348.98766509849537    1.70530e-13   4.58255e-10 DIIS
   @RHF iter  15:  -348.98766509849503    3.41061e-13   2.33825e-10 DIIS
   @RHF iter  16:  -348.98766509849673   -1.70530e-12   6.91687e-11 DIIS
  Energy and wave function converged.

  ==> Post-Iterations <==

    Orbital Energies [Eh]
    ---------------------

    Doubly Occupied:

       1A    -11.238442     2A    -11.234231     3A    -11.231915
       4A    -11.229383     5A    -11.228883     6A    -11.228083
       7A    -11.227827     8A    -11.216169     9A    -11.214384
      10A     -1.154421    11A     -1.045531    12A     -1.021280
      13A     -1.012021    14A     -0.931248    15A     -0.839163
      16A     -0.824345    17A     -0.796369    18A     -0.692324
      19A     -0.632488    20A     -0.632244    21A     -0.605033
      22A     -0.596433    23A     -0.580610    24A     -0.575867
      25A     -0.562470    26A     -0.534479    27A     -0.502140
      28A     -0.494853    29A     -0.486950    30A     -0.484198
      31A     -0.479134    32A     -0.476237    33A     -0.331999
      34A     -0.322030

    Virtual:

      35A      0.136342    36A      0.139866    37A      0.179057
      38A      0.194258    39A      0.207001    40A      0.222138
      41A      0.229449    42A      0.246370    43A      0.254131
      44A      0.258498    45A      0.273282    46A      0.278647
      47A      0.289315    48A      0.295214    49A      0.318095
      50A      0.350573    51A      0.373478    52A      0.380644
      53A      0.396055    54A      0.457127    55A      0.469141
      56A      0.484340    57A      0.487785    58A      0.560393
      59A      0.597084    60A      0.597463    61A      0.611964
      62A      0.627363    63A      0.639688    64A      0.671939
      65A      0.689907    66A      0.695211    67A      0.697799
      68A      0.717478    69A      0.732788    70A      0.740207
      71A      0.747385    72A      0.753837    73A      0.763496
      74A      0.771253    75A      0.784542    76A      0.825333
      77A      0.841072    78A      0.854574    79A      0.869089
      80A      0.871087    81A      0.875774    82A      0.880624
      83A      0.894159    84A      0.895916    85A      0.904332
      86A      0.920391    87A      0.926469    88A      0.931561
      89A      0.934746    90A      0.940977    91A      0.947432
      92A      0.970507    93A      0.992280    94A      1.001282
      95A      1.031454    96A      1.064089    97A      1.111277
      98A      1.129029    99A      1.142304   100A      1.153528
     101A      1.166270   102A      1.191498   103A      1.215524
     104A      1.233231   105A      1.250949   106A      1.257793
     107A      1.268157   108A      1.272501   109A      1.306573
     110A      1.316786   111A      1.330164   112A      1.338792
     113A      1.413762   114A      1.461201   115A      1.493241
     116A      1.515650   117A      1.522267   118A      1.558134
     119A      1.606814   120A      1.639118   121A      1.677516
     122A      1.685872   123A      1.702319   124A      1.717988
     125A      1.738149   126A      1.761491   127A      1.763338
     128A      1.792008   129A      1.813007   130A      1.855100
     131A      1.867380   132A      1.882798   133A      1.890352
     134A      1.898021   135A      1.910675   136A      1.915247
     137A      1.919124   138A      1.928067   139A      1.939444
     140A      1.948455   141A      1.950101   142A      1.954048
     143A      1.957862   144A      1.977331   145A      1.984444
     146A      2.002394   147A      2.006354   148A      2.031646
     149A      2.041647   150A      2.075417   151A      2.077927
     152A      2.108735   153A      2.115993   154A      2.138011
     155A      2.157955   156A      2.175668   157A      2.179691
     158A      2.192753   159A      2.213542   160A      2.265339
     161A      2.284852   162A      2.301979   163A      2.303234
     164A      2.309170   165A      2.315582   166A      2.329209
     167A      2.343962   168A      2.461000   169A      2.475067
     170A      2.481155   171A      2.492146   172A      2.503958
     173A      2.550901   174A      2.575764   175A      2.605612
     176A      2.625827   177A      2.746743   178A      2.764838
     179A      2.770957   180A      2.782158   181A      2.794793
     182A      2.806927   183A      2.821413   184A      2.851558
     185A      2.857392   186A      2.876207   187A      2.888190
     188A      2.965476   189A      2.988384   190A      2.998663
     191A      3.022802   192A      3.038974   193A      3.168226
     194A      3.215665   195A      3.312145   196A      3.986413

    Final Occupation by Irrep:
              A
    DOCC [    34 ]

  @RHF Final Energy:  -348.98766509849673

   => Energetics <=

    Nuclear Repulsion Energy =            407.7555792511435584
    One-Electron Energy =               -1278.1601168059125939
    Two-Electron Energy =                 521.4168724562723582
    Total Energy =                       -348.9876650984966773

Computation Completed

Properties will be evaluated at   0.000000,   0.000000,   0.000000 [a0]

Properties computed using the SCF density matrix

  Nuclear Dipole Moment: [e a0]
     X:    -6.0632      Y:     2.3968      Z:    -7.6570

  Electronic Dipole Moment: [e a0]
     X:     6.1853      Y:    -2.4517      Z:     7.6472

  Dipole Moment: [e a0]
     X:     0.1222      Y:    -0.0550      Z:    -0.0097     Total:     0.1343

  Dipole Moment: [D]
     X:     0.3105      Y:    -0.1397      Z:    -0.0248     Total:     0.3414

*** tstop() called on ds3 at Mon Apr 27 18:59:31 2020
Module time:
	user time   =      64.25 seconds =       1.07 minutes
	system time =      27.53 seconds =       0.46 minutes
	total time  =         88 seconds =       1.47 minutes
Total time:
	user time   =      64.25 seconds =       1.07 minutes
	system time =      27.53 seconds =       0.46 minutes
	total time  =         88 seconds =       1.47 minutes
                                     G D M A

                                 by Anthony Stone

                           version 2.2.06, 22 June 2011

               Distributed Multipoles from Gaussian wavefunctions

Starting at 18:59:31 on 27 Apr 2020

Using SCF density matrix from file ./SSI/SSI-021PHE-113ILE-1-dimer.test.32560.fchk

                         Distributed Multipole Analysis

Standard DMA

Positions and radii in angstrom
Multipole moments in atomic units, ea_0^k for rank k

C          x =  3.021243  y = -1.591191  z =  0.267441 angstrom
           Maximum rank =  0   Radius =  0.650 angstrom
                   Q00  =  -0.199697

C          x = -0.650757  y =  0.479809  z =  1.059441 angstrom
           Maximum rank =  0   Radius =  0.650 angstrom
                   Q00  =  -0.102733

C          x = -0.583757  y = -0.447191  z =  0.031441 angstrom
           Maximum rank =  0   Radius =  0.650 angstrom
                   Q00  =  -0.080909

C          x =  0.474243  y =  0.728809  z =  1.837441 angstrom
           Maximum rank =  0   Radius =  0.650 angstrom
                   Q00  =  -0.047982

C          x =  0.607243  y = -1.116191  z = -0.224559 angstrom
           Maximum rank =  0   Radius =  0.650 angstrom
                   Q00  =   0.019915

C          x =  1.664243  y =  0.058809  z =  1.579441 angstrom
           Maximum rank =  0   Radius =  0.650 angstrom
                   Q00  =  -0.089247

C          x =  1.734243  y = -0.872191  z =  0.549441 angstrom
           Maximum rank =  0   Radius =  0.650 angstrom
                   Q00  =  -0.102191

H          x = -1.575757  y =  0.996809  z =  1.273441 angstrom
           Maximum rank =  0   Radius =  0.325 angstrom
                   Q00  =   0.060928

H          x = -1.449757  y = -0.677191  z = -0.560559 angstrom
           Maximum rank =  0   Radius =  0.325 angstrom
                   Q00  =   0.067201

H          x =  0.428243  y =  1.449809  z =  2.639441 angstrom
           Maximum rank =  0   Radius =  0.325 angstrom
                   Q00  =   0.064228

H          x =  0.653243  y = -1.833191  z = -1.031559 angstrom
           Maximum rank =  0   Radius =  0.325 angstrom
                   Q00  =   0.053944

H          x =  2.533243  y =  0.266809  z =  2.185441 angstrom
           Maximum rank =  0   Radius =  0.325 angstrom
                   Q00  =   0.056331

H          x =  3.842243  y = -0.923191  z =  0.535441 angstrom
           Maximum rank =  0   Radius =  0.325 angstrom
                   Q00  =   0.095879

H          x =  3.103243  y = -1.799191  z = -0.796559 angstrom
           Maximum rank =  0   Radius =  0.325 angstrom
                   Q00  =   0.097777

H          x =  3.133556  y = -2.550174  z =  0.794451 angstrom
           Maximum rank =  0   Radius =  0.325 angstrom
                   Q00  =   0.104992

C          x = -3.086757  y =  1.163809  z = -1.487559 angstrom
           Maximum rank =  0   Radius =  0.650 angstrom
                   Q00  =  -0.244535

C          x = -2.636757  y =  1.380809  z = -2.926559 angstrom
           Maximum rank =  0   Radius =  0.650 angstrom
                   Q00  =  -0.221505

H          x = -2.318757  y =  1.552809  z = -0.823559 angstrom
           Maximum rank =  0   Radius =  0.325 angstrom
                   Q00  =   0.084480

H          x = -3.999757  y =  1.730809  z = -1.305559 angstrom
           Maximum rank =  0   Radius =  0.325 angstrom
                   Q00  =   0.074931

H          x = -3.276757  y =  0.116809  z = -1.267559 angstrom
           Maximum rank =  0   Radius =  0.325 angstrom
                   Q00  =   0.073061

H          x = -1.838757  y =  0.670809  z = -3.101559 angstrom
           Maximum rank =  0   Radius =  0.325 angstrom
                   Q00  =   0.074419

H          x = -2.284757  y =  2.405809  z = -3.042559 angstrom
           Maximum rank =  0   Radius =  0.325 angstrom
                   Q00  =   0.084046

H          x = -3.417065  y =  1.149099  z = -3.666439 angstrom
           Maximum rank =  0   Radius =  0.325 angstrom
                   Q00  =   0.076668

Total multipoles referred to origin at
           x =   0.000000,  y =    0.000000,  z =    0.000000 angstrom
                   Q00  =  -0.000000

Finished at 18:59:31 on 27 Apr 2020

  DMA results are available in the Python driver through the
	  variable('DMA DISTRIBUTED MULTIPOLES')
  and
	  variable('DMA TOTAL MULTIPOLES')
  commands.

    Psi4 stopped on: Monday, 27 April 2020 06:59PM
    Psi4 wall time for execution: 0:01:28.48

*** Psi4 exiting successfully. Buy a developer a beer!
