                               Psi4 1.3.2 release

  ==> Input File <==

--------------------------------------------------------------------------
import numpy as np
set {scf_type pk
basis cc-pvdz
d_convergence 10
gdma_switch   0
gdma_limit    0
gdma_origin   [ 0.0,  0.0,  0.0 ]
}
molecule test {
    units Angstrom
    0 1
    --
    0 1
    C               -0.961195127921997     1.548904607293351     1.074058517793265
    C               -1.167195127921997     2.648904607293351     0.021058517793265
    C               -2.134195127921997     0.537904607293351     1.108058517793265
    H               -0.028195127921997     1.020904607293351     0.882058517793265
    H               -0.880195127921997     2.028904607293351     2.052058517793265
    H               -2.028195127921996     3.258904607293351     0.263058517793265
    H               -1.365195127921996     2.165904607293351    -0.936941482206735
    H               -3.074195127921997     1.099904607293351     1.136058517793265
    H               -2.129195127921997    -0.065095392706649     0.191058517793265
    H               -0.275015127921997     3.280361607293350    -0.102521482206735
    H               -2.068495127921997    -0.103419392706649     1.999338517793265
    C                1.246804872078003    -1.151095392706649    -0.451941482206735
    C                1.601804872078003    -2.459095392706649     0.258058517793265
    C                1.446804872078003    -1.104095392706649    -1.968941482206735
    H                0.195804872078003    -0.942095392706649    -0.256941482206735
    H                1.833804872078004    -0.349095392706649    -0.002941482206735
    H                2.674804872078003    -2.622095392706649     0.146058517793265
    H                0.836804872078003    -1.873095392706649    -2.430941482206735
    H                1.005754872078003    -3.290065392706649    -0.147161482206735
    H                1.350214872078004    -2.475723392706650     1.328768517793265
    H                1.065774872078003    -0.138321392706649    -2.332391482206735
    H                2.494824872078004    -1.251013392706649    -2.269071482206735

}
e, wfn = energy('scf', return_wfn=True)
gdma(wfn)
dmavals = variable('DMA DISTRIBUTED MULTIPOLES')
charges = np.array(dmavals)
print(charges)
np.save('SSI-032LYS-083LEU-1-dimer.npy', np.array(charges))--------------------------------------------------------------------------

*** tstart() called on ds3
*** at Tue Apr 28 01:01:43 2020

   => Loading Basis Set <=

    Name: CC-PVDZ
    Role: ORBITAL
    Keyword: BASIS
    atoms 1-3, 12-14  entry C          line   138 file /theoryfs2/ds/metcalf/miniconda2/envs/tf2gpu/share/psi4/basis/cc-pvdz.gbs
    atoms 4-11, 15-22 entry H          line    22 file /theoryfs2/ds/metcalf/miniconda2/envs/tf2gpu/share/psi4/basis/cc-pvdz.gbs

         ---------------------------------------------------------
                                   SCF
               by Justin Turney, Rob Parrish, Andy Simmonett
                          and Daniel G. A. Smith
                              RHF Reference
                        1 Threads,    500 MiB Core
         ---------------------------------------------------------

  ==> Geometry <==

    Molecular point group: c1
    Full point group: C1

    Geometry (in Angstrom), charge = 0, multiplicity = 1:

       Center              X                  Y                   Z               Mass
    ------------   -----------------  -----------------  -----------------  -----------------
         C           -0.961195127922     1.548904607293     1.074058517793    12.000000000000
         C           -1.167195127922     2.648904607293     0.021058517793    12.000000000000
         C           -2.134195127922     0.537904607293     1.108058517793    12.000000000000
         H           -0.028195127922     1.020904607293     0.882058517793     1.007825032230
         H           -0.880195127922     2.028904607293     2.052058517793     1.007825032230
         H           -2.028195127922     3.258904607293     0.263058517793     1.007825032230
         H           -1.365195127922     2.165904607293    -0.936941482207     1.007825032230
         H           -3.074195127922     1.099904607293     1.136058517793     1.007825032230
         H           -2.129195127922    -0.065095392707     0.191058517793     1.007825032230
         H           -0.275015127922     3.280361607293    -0.102521482207     1.007825032230
         H           -2.068495127922    -0.103419392707     1.999338517793     1.007825032230
         C            1.246804872078    -1.151095392707    -0.451941482207    12.000000000000
         C            1.601804872078    -2.459095392707     0.258058517793    12.000000000000
         C            1.446804872078    -1.104095392707    -1.968941482207    12.000000000000
         H            0.195804872078    -0.942095392707    -0.256941482207     1.007825032230
         H            1.833804872078    -0.349095392707    -0.002941482207     1.007825032230
         H            2.674804872078    -2.622095392707     0.146058517793     1.007825032230
         H            0.836804872078    -1.873095392707    -2.430941482207     1.007825032230
         H            1.005754872078    -3.290065392707    -0.147161482207     1.007825032230
         H            1.350214872078    -2.475723392707     1.328768517793     1.007825032230
         H            1.065774872078    -0.138321392707    -2.332391482207     1.007825032230
         H            2.494824872078    -1.251013392707    -2.269071482207     1.007825032230

  Running in c1 symmetry.

  Rotational constants: A =      0.13246  B =      0.03402  C =      0.02980 [cm^-1]
  Rotational constants: A =   3971.03154  B =   1019.97327  C =    893.37997 [MHz]
  Nuclear repulsion =  240.343477050785907

  Charge       = 0
  Multiplicity = 1
  Electrons    = 52
  Nalpha       = 26
  Nbeta        = 26

  ==> Algorithm <==

  SCF Algorithm Type is PK.
  DIIS enabled.
  MOM disabled.
  Fractional occupation disabled.
  Guess Type is SAD.
  Energy threshold   = 1.00e-06
  Density threshold  = 1.00e-10
  Integral threshold = 0.00e+00

  ==> Primary Basis <==

  Basis Set: CC-PVDZ
    Blend: CC-PVDZ
    Number of shells: 84
    Number of basis function: 164
    Number of Cartesian functions: 170
    Spherical Harmonics?: true
    Max angular momentum: 2

  ==> Pre-Iterations <==

   -------------------------------------------------------
    Irrep   Nso     Nmo     Nalpha   Nbeta   Ndocc  Nsocc
   -------------------------------------------------------
     A        164     164       0       0       0       0
   -------------------------------------------------------
    Total     164     164      26      26      26       0
   -------------------------------------------------------

  ==> Integral Setup <==

  Using integral reordering PK algorithm.
  Sizing the integral batches needed.
  Building batch lookup table.
   Calculation information:
      Number of atoms:                  22
      Number of AO shells:              84
      Number of primitives:            212
      Number of atomic orbitals:       170
      Number of basis functions:       164

      Integral cutoff                 1.00e-12
      Number of threads:                 1

	Batch   1 pq = [       0,    9405] index = [             0,44231715] size =     44231715
	Batch   2 pq = [    9405,   13530] index = [      44231715,91537215] size =     47305500
  Task number: 9
  Buffer size: 11059200
  Buffer per thread: 2
  We computed 5642838 shell quartets total.
  Whereas there are 6374235 unique shell quartets.

  ==> DiskJK: Disk-Based J/K Matrices <==

    J tasked:                  Yes
    K tasked:                  Yes
    wK tasked:                  No
    Memory [MiB]:              375
    Schwarz Cutoff:          1E-12

    OpenMP threads:              1

  Minimum eigenvalue in the overlap matrix is 5.4952678025E-03.
  Using Symmetric Orthogonalization.

  SCF Guess: Superposition of Atomic Densities via on-the-fly atomic UHF.

  ==> Iterations <==

                        Total Energy        Delta E     RMS |[F,P]|

   @RHF iter SAD:  -235.31173065645274   -2.35312e+02   0.00000e+00
   @RHF iter   1:  -236.31831636437931   -1.00659e+00   3.45269e-03 DIIS
   @RHF iter   2:  -236.50235847464603   -1.84042e-01   1.48982e-03 DIIS
   @RHF iter   3:  -236.53465103042254   -3.22926e-02   3.03773e-04 DIIS
   @RHF iter   4:  -236.53725665957901   -2.60563e-03   4.99490e-05 DIIS
   @RHF iter   5:  -236.53730970603405   -5.30465e-05   1.40979e-05 DIIS
   @RHF iter   6:  -236.53731419613646   -4.49010e-06   2.27914e-06 DIIS
   @RHF iter   7:  -236.53731433388748   -1.37751e-07   4.65038e-07 DIIS
   @RHF iter   8:  -236.53731434123776   -7.35028e-09   9.45482e-08 DIIS
   @RHF iter   9:  -236.53731434157919   -3.41430e-10   2.24882e-08 DIIS
   @RHF iter  10:  -236.53731434159454   -1.53477e-11   6.48358e-09 DIIS
   @RHF iter  11:  -236.53731434159437    1.70530e-13   1.45600e-09 DIIS
   @RHF iter  12:  -236.53731434159647   -2.10321e-12   3.51238e-10 DIIS
   @RHF iter  13:  -236.53731434159590    5.68434e-13   7.81237e-11 DIIS
  Energy and wave function converged.

  ==> Post-Iterations <==

    Orbital Energies [Eh]
    ---------------------

    Doubly Occupied:

       1A    -11.220625     2A    -11.220299     3A    -11.219708
       4A    -11.218985     5A    -11.218295     6A    -11.215948
       7A     -1.052268     8A     -1.047937     9A     -0.927566
      10A     -0.922237    11A     -0.800125    12A     -0.794506
      13A     -0.630554    14A     -0.621966    15A     -0.594084
      16A     -0.590538    17A     -0.546720    18A     -0.545677
      19A     -0.536792    20A     -0.531653    21A     -0.479092
      22A     -0.476381    23A     -0.470100    24A     -0.468404
      25A     -0.465458    26A     -0.455892

    Virtual:

      27A      0.163321    28A      0.196460    29A      0.208483
      30A      0.214385    31A      0.232450    32A      0.245233
      33A      0.248759    34A      0.256597    35A      0.261329
      36A      0.271522    37A      0.291965    38A      0.297067
      39A      0.300472    40A      0.311623    41A      0.328462
      42A      0.337853    43A      0.363139    44A      0.398871
      45A      0.420938    46A      0.430217    47A      0.560515
      48A      0.579506    49A      0.597075    50A      0.608376
      51A      0.617862    52A      0.620325    53A      0.624600
      54A      0.638672    55A      0.645088    56A      0.740518
      57A      0.782337    58A      0.791283    59A      0.801845
      60A      0.822031    61A      0.839403    62A      0.855446
      63A      0.874610    64A      0.875704    65A      0.885738
      66A      0.889906    67A      0.894800    68A      0.898860
      69A      0.903289    70A      0.904690    71A      0.912259
      72A      0.917013    73A      0.919027    74A      0.923841
      75A      0.944413    76A      0.951175    77A      0.964946
      78A      0.985341    79A      1.000209    80A      1.063368
      81A      1.114555    82A      1.121619    83A      1.128493
      84A      1.169077    85A      1.240301    86A      1.265903
      87A      1.360109    88A      1.371226    89A      1.452461
      90A      1.467192    91A      1.473597    92A      1.495301
      93A      1.510355    94A      1.539580    95A      1.620281
      96A      1.642336    97A      1.671032    98A      1.677492
      99A      1.688248   100A      1.690396   101A      1.696397
     102A      1.716700   103A      1.840697   104A      1.855834
     105A      1.867241   106A      1.879845   107A      1.884537
     108A      1.896957   109A      1.901653   110A      1.912348
     111A      1.920441   112A      1.925730   113A      1.950634
     114A      1.954854   115A      1.964671   116A      1.970642
     117A      1.974999   118A      1.979117   119A      1.983759
     120A      1.994829   121A      2.001130   122A      2.005781
     123A      2.013598   124A      2.023994   125A      2.026725
     126A      2.046256   127A      2.107022   128A      2.134663
     129A      2.157333   130A      2.166482   131A      2.275083
     132A      2.285825   133A      2.287838   134A      2.304079
     135A      2.311273   136A      2.324888   137A      2.338508
     138A      2.358234   139A      2.480508   140A      2.499173
     141A      2.528101   142A      2.542634   143A      2.574885
     144A      2.585413   145A      2.608513   146A      2.611400
     147A      2.623777   148A      2.636280   149A      2.743546
     150A      2.759301   151A      2.761017   152A      2.761502
     153A      2.787688   154A      2.791862   155A      2.808783
     156A      2.816886   157A      2.909753   158A      2.921220
     159A      2.948941   160A      2.965900   161A      2.982853
     162A      2.991195   163A      3.045273   164A      3.105912

    Final Occupation by Irrep:
              A
    DOCC [    26 ]

  @RHF Final Energy:  -236.53731434159590

   => Energetics <=

    Nuclear Repulsion Energy =            240.3434770507859071
    One-Electron Energy =                -793.2179608607202681
    Two-Electron Energy =                 316.3371694683385158
    Total Energy =                       -236.5373143415959021

Computation Completed

Properties will be evaluated at   0.000000,   0.000000,   0.000000 [a0]

Properties computed using the SCF density matrix

  Nuclear Dipole Moment: [e a0]
     X:    -0.3664      Y:    -0.2392      Z:    -0.4504

  Electronic Dipole Moment: [e a0]
     X:     0.3671      Y:     0.2507      Z:     0.4772

  Dipole Moment: [e a0]
     X:     0.0007      Y:     0.0115      Z:     0.0268     Total:     0.0292

  Dipole Moment: [D]
     X:     0.0017      Y:     0.0293      Z:     0.0682     Total:     0.0742

*** tstop() called on ds3 at Tue Apr 28 01:02:20 2020
Module time:
	user time   =      27.47 seconds =       0.46 minutes
	system time =      10.39 seconds =       0.17 minutes
	total time  =         37 seconds =       0.62 minutes
Total time:
	user time   =      27.47 seconds =       0.46 minutes
	system time =      10.39 seconds =       0.17 minutes
	total time  =         37 seconds =       0.62 minutes
                                     G D M A

                                 by Anthony Stone

                           version 2.2.06, 22 June 2011

               Distributed Multipoles from Gaussian wavefunctions

Starting at 1:2:20 on 28 Apr 2020

Using SCF density matrix from file ./SSI/SSI-032LYS-083LEU-1-dimer.test.6188.fchk

                         Distributed Multipole Analysis

Standard DMA

Positions and radii in angstrom
Multipole moments in atomic units, ea_0^k for rank k

C          x = -0.961195  y =  1.548905  z =  1.074059 angstrom
           Maximum rank =  0   Radius =  0.650 angstrom
                   Q00  =  -0.098580

C          x = -1.167195  y =  2.648905  z =  0.021059 angstrom
           Maximum rank =  0   Radius =  0.650 angstrom
                   Q00  =  -0.241328

C          x = -2.134195  y =  0.537905  z =  1.108059 angstrom
           Maximum rank =  0   Radius =  0.650 angstrom
                   Q00  =  -0.242979

H          x = -0.028195  y =  1.020905  z =  0.882059 angstrom
           Maximum rank =  0   Radius =  0.325 angstrom
                   Q00  =   0.057659

H          x = -0.880195  y =  2.028905  z =  2.052059 angstrom
           Maximum rank =  0   Radius =  0.325 angstrom
                   Q00  =   0.046319

H          x = -2.028195  y =  3.258905  z =  0.263059 angstrom
           Maximum rank =  0   Radius =  0.325 angstrom
                   Q00  =   0.081414

H          x = -1.365195  y =  2.165905  z = -0.936941 angstrom
           Maximum rank =  0   Radius =  0.325 angstrom
                   Q00  =   0.070466

H          x = -3.074195  y =  1.099905  z =  1.136059 angstrom
           Maximum rank =  0   Radius =  0.325 angstrom
                   Q00  =   0.076764

H          x = -2.129195  y = -0.065095  z =  0.191059 angstrom
           Maximum rank =  0   Radius =  0.325 angstrom
                   Q00  =   0.077170

H          x = -0.275015  y =  3.280362  z = -0.102521 angstrom
           Maximum rank =  0   Radius =  0.325 angstrom
                   Q00  =   0.085058

H          x = -2.068495  y = -0.103419  z =  1.999339 angstrom
           Maximum rank =  0   Radius =  0.325 angstrom
                   Q00  =   0.087023

C          x =  1.246805  y = -1.151095  z = -0.451941 angstrom
           Maximum rank =  0   Radius =  0.650 angstrom
                   Q00  =  -0.064149

C          x =  1.601805  y = -2.459095  z =  0.258059 angstrom
           Maximum rank =  0   Radius =  0.650 angstrom
                   Q00  =  -0.251786

C          x =  1.446805  y = -1.104095  z = -1.968941 angstrom
           Maximum rank =  0   Radius =  0.650 angstrom
                   Q00  =  -0.247745

H          x =  0.195805  y = -0.942095  z = -0.256941 angstrom
           Maximum rank =  0   Radius =  0.325 angstrom
                   Q00  =   0.043231

H          x =  1.833805  y = -0.349095  z = -0.002941 angstrom
           Maximum rank =  0   Radius =  0.325 angstrom
                   Q00  =   0.041619

H          x =  2.674805  y = -2.622095  z =  0.146059 angstrom
           Maximum rank =  0   Radius =  0.325 angstrom
                   Q00  =   0.077115

H          x =  0.836805  y = -1.873095  z = -2.430941 angstrom
           Maximum rank =  0   Radius =  0.325 angstrom
                   Q00  =   0.077582

H          x =  1.005755  y = -3.290065  z = -0.147161 angstrom
           Maximum rank =  0   Radius =  0.325 angstrom
                   Q00  =   0.074205

H          x =  1.350215  y = -2.475723  z =  1.328769 angstrom
           Maximum rank =  0   Radius =  0.325 angstrom
                   Q00  =   0.085471

H          x =  1.065775  y = -0.138321  z = -2.332391 angstrom
           Maximum rank =  0   Radius =  0.325 angstrom
                   Q00  =   0.083987

H          x =  2.494825  y = -1.251013  z = -2.269071 angstrom
           Maximum rank =  0   Radius =  0.325 angstrom
                   Q00  =   0.081484

Total multipoles referred to origin at
           x =   0.000000,  y =    0.000000,  z =    0.000000 angstrom
                   Q00  =  -0.000000

Finished at 1:2:20 on 28 Apr 2020

  DMA results are available in the Python driver through the
	  variable('DMA DISTRIBUTED MULTIPOLES')
  and
	  variable('DMA TOTAL MULTIPOLES')
  commands.

    Psi4 stopped on: Tuesday, 28 April 2020 01:02AM
    Psi4 wall time for execution: 0:00:37.14

*** Psi4 exiting successfully. Buy a developer a beer!
