                               Psi4 1.3.2 release

  ==> Input File <==

--------------------------------------------------------------------------
import numpy as np
set {scf_type pk
basis cc-pvdz
d_convergence 10
gdma_switch   0
gdma_limit    0
gdma_origin   [ 0.0,  0.0,  0.0 ]
}
molecule test {
    units Angstrom
    -1 1
    --
    -1 1
    C                1.119712573121303     1.131829761838454    -2.026382582660157
    C                0.603712573121303     2.574829761838454    -2.023382582660157
    C                2.410712573121303     0.964829761838454    -1.264382582660157
    O                3.481712573121303     1.266829761838454    -1.835382582660157
    O                2.357712573121303     0.498829761838454    -0.116382582660157
    H                0.342712573121303     0.489829761838454    -1.614382582660157
    H                1.307712573121303     0.792829761838454    -3.036382582660158
    H                0.263712573121303     2.798829761838454    -1.011382582660157
    H               -0.228932426878697     2.659607761838454    -2.737186582660157
    H                1.392255573121303     3.297660761838454    -2.279731582660157
    C               -3.630287426878697    -1.433170238161546    -0.792382582660157
    C               -0.828287426878697     0.399829761838454     1.050617417339843
    C               -1.900287426878697     0.131829761838454     0.186617417339843
    C               -0.291287426878697    -0.627170238161546     1.823617417339843
    C               -2.436287426878697    -1.160170238161546     0.087617417339843
    C               -0.822287426878697    -1.917170238161546     1.741617417339843
    C               -1.888287426878697    -2.178170238161546     0.878617417339843
    O                0.740712573121303    -0.340170238161546     2.663617417339843
    H               -0.426287426878697     1.399829761838454     1.118617417339843
    H               -2.319287426878697     0.934829761838454    -0.404382582660157
    H                1.090712573121303     0.529829761838454     2.454617417339843
    H               -0.399287426878697    -2.703170238161546     2.346617417339842
    H               -4.162287426878697    -0.498170238161546    -0.963382582660157
    H               -4.307287426878697    -2.067170238161546    -0.217382582660157
    H               -2.302287426878697    -3.176170238161546     0.826617417339843
    H               -3.442478426878697    -1.926530238161546    -1.757433582660157

}
e, wfn = energy('scf', return_wfn=True)
gdma(wfn)
dmavals = variable('DMA DISTRIBUTED MULTIPOLES')
charges = np.array(dmavals)
print(charges)
np.save('SSI-012ASP-026TYR-1-dimer.npy', np.array(charges))--------------------------------------------------------------------------

*** tstart() called on ds3
*** at Sun Apr 26 16:58:13 2020

   => Loading Basis Set <=

    Name: CC-PVDZ
    Role: ORBITAL
    Keyword: BASIS
    atoms 1-3, 11-17  entry C          line   138 file /theoryfs2/ds/metcalf/miniconda2/envs/tf2gpu/share/psi4/basis/cc-pvdz.gbs
    atoms 4-5, 18     entry O          line   198 file /theoryfs2/ds/metcalf/miniconda2/envs/tf2gpu/share/psi4/basis/cc-pvdz.gbs
    atoms 6-10, 19-26 entry H          line    22 file /theoryfs2/ds/metcalf/miniconda2/envs/tf2gpu/share/psi4/basis/cc-pvdz.gbs

         ---------------------------------------------------------
                                   SCF
               by Justin Turney, Rob Parrish, Andy Simmonett
                          and Daniel G. A. Smith
                              RHF Reference
                        1 Threads,    500 MiB Core
         ---------------------------------------------------------

  ==> Geometry <==

    Molecular point group: c1
    Full point group: C1

    Geometry (in Angstrom), charge = -1, multiplicity = 1:

       Center              X                  Y                   Z               Mass
    ------------   -----------------  -----------------  -----------------  -----------------
         C            1.119712573121     1.131829761838    -2.026382582660    12.000000000000
         C            0.603712573121     2.574829761838    -2.023382582660    12.000000000000
         C            2.410712573121     0.964829761838    -1.264382582660    12.000000000000
         O            3.481712573121     1.266829761838    -1.835382582660    15.994914619570
         O            2.357712573121     0.498829761838    -0.116382582660    15.994914619570
         H            0.342712573121     0.489829761838    -1.614382582660     1.007825032230
         H            1.307712573121     0.792829761838    -3.036382582660     1.007825032230
         H            0.263712573121     2.798829761838    -1.011382582660     1.007825032230
         H           -0.228932426879     2.659607761838    -2.737186582660     1.007825032230
         H            1.392255573121     3.297660761838    -2.279731582660     1.007825032230
         C           -3.630287426879    -1.433170238162    -0.792382582660    12.000000000000
         C           -0.828287426879     0.399829761838     1.050617417340    12.000000000000
         C           -1.900287426879     0.131829761838     0.186617417340    12.000000000000
         C           -0.291287426879    -0.627170238162     1.823617417340    12.000000000000
         C           -2.436287426879    -1.160170238162     0.087617417340    12.000000000000
         C           -0.822287426879    -1.917170238162     1.741617417340    12.000000000000
         C           -1.888287426879    -2.178170238162     0.878617417340    12.000000000000
         O            0.740712573121    -0.340170238162     2.663617417340    15.994914619570
         H           -0.426287426879     1.399829761838     1.118617417340     1.007825032230
         H           -2.319287426879     0.934829761838    -0.404382582660     1.007825032230
         H            1.090712573121     0.529829761838     2.454617417340     1.007825032230
         H           -0.399287426879    -2.703170238162     2.346617417340     1.007825032230
         H           -4.162287426879    -0.498170238162    -0.963382582660     1.007825032230
         H           -4.307287426879    -2.067170238162    -0.217382582660     1.007825032230
         H           -2.302287426879    -3.176170238162     0.826617417340     1.007825032230
         H           -3.442478426879    -1.926530238162    -1.757433582660     1.007825032230

  Running in c1 symmetry.

  Rotational constants: A =      0.03522  B =      0.01437  C =      0.01155 [cm^-1]
  Rotational constants: A =   1055.99292  B =    430.69859  C =    346.31729 [MHz]
  Nuclear repulsion =  752.324137690904536

  Charge       = -1
  Multiplicity = 1
  Electrons    = 98
  Nalpha       = 49
  Nbeta        = 49

  ==> Algorithm <==

  SCF Algorithm Type is PK.
  DIIS enabled.
  MOM disabled.
  Fractional occupation disabled.
  Guess Type is SAD.
  Energy threshold   = 1.00e-06
  Density threshold  = 1.00e-10
  Integral threshold = 0.00e+00

  ==> Primary Basis <==

  Basis Set: CC-PVDZ
    Blend: CC-PVDZ
    Number of shells: 117
    Number of basis function: 247
    Number of Cartesian functions: 260
    Spherical Harmonics?: true
    Max angular momentum: 2

  ==> Pre-Iterations <==

   -------------------------------------------------------
    Irrep   Nso     Nmo     Nalpha   Nbeta   Ndocc  Nsocc
   -------------------------------------------------------
     A        247     247       0       0       0       0
   -------------------------------------------------------
    Total     247     247      49      49      49       0
   -------------------------------------------------------

  ==> Integral Setup <==

  Using integral reordering PK algorithm.
  Sizing the integral batches needed.
  Building batch lookup table.
   Calculation information:
      Number of atoms:                  26
      Number of AO shells:             117
      Number of primitives:            351
      Number of atomic orbitals:       260
      Number of basis functions:       247

      Integral cutoff                 1.00e-12
      Number of threads:                 1

	Batch   1 pq = [       0,    9405] index = [             0,44231715] size =     44231715
	Batch   2 pq = [    9405,   13301] index = [      44231715,88464951] size =     44233236
	Batch   3 pq = [   13301,   16290] index = [      88464951,132690195] size =     44225244
	Batch   4 pq = [   16290,   18810] index = [     132690195,176917455] size =     44227260
	Batch   5 pq = [   18810,   21030] index = [     176917455,221140965] size =     44223510
	Batch   6 pq = [   21030,   23037] index = [     221140965,265363203] size =     44222238
	Batch   7 pq = [   23037,   24883] index = [     265363203,309594286] size =     44231083
	Batch   8 pq = [   24883,   26601] index = [     309594286,353819901] size =     44225615
	Batch   9 pq = [   26601,   28214] index = [     353819901,398029005] size =     44209104
	Batch  10 pq = [   28214,   29740] index = [     398029005,442248670] size =     44219665
	Batch  11 pq = [   29740,   30628] index = [     442248670,469052506] size =     26803836
  Task number: 43
  Buffer size: 11059200
  Buffer per thread: 2
  We computed 22296750 shell quartets total.
  Whereas there are 23829156 unique shell quartets.

  ==> DiskJK: Disk-Based J/K Matrices <==

    J tasked:                  Yes
    K tasked:                  Yes
    wK tasked:                  No
    Memory [MiB]:              375
    Schwarz Cutoff:          1E-12

    OpenMP threads:              1

  Minimum eigenvalue in the overlap matrix is 3.3411100739E-04.
  Using Symmetric Orthogonalization.

  SCF Guess: Superposition of Atomic Densities via on-the-fly atomic UHF.

  ==> Iterations <==

                        Total Energy        Delta E     RMS |[F,P]|

   @RHF iter SAD:  -609.18976161078979   -6.09190e+02   0.00000e+00
   @RHF iter   1:  -610.52695616859728   -1.33719e+00   3.38909e-03 DIIS
   @RHF iter   2:  -610.82906627388775   -3.02110e-01   1.74474e-03 DIIS
   @RHF iter   3:  -610.89988249876865   -7.08162e-02   3.12551e-04 DIIS
   @RHF iter   4:  -610.90389325468186   -4.01076e-03   1.19552e-04 DIIS
   @RHF iter   5:  -610.90443398430477   -5.40730e-04   1.89433e-05 DIIS
   @RHF iter   6:  -610.90445566949802   -2.16852e-05   6.56561e-06 DIIS
   @RHF iter   7:  -610.90445790945228   -2.23995e-06   2.69910e-06 DIIS
   @RHF iter   8:  -610.90445832343153   -4.13979e-07   9.21456e-07 DIIS
   @RHF iter   9:  -610.90445839608560   -7.26541e-08   3.79052e-07 DIIS
   @RHF iter  10:  -610.90445841395115   -1.78655e-08   1.71245e-07 DIIS
   @RHF iter  11:  -610.90445841855546   -4.60432e-09   8.26287e-08 DIIS
   @RHF iter  12:  -610.90445841955477   -9.99307e-10   3.58967e-08 DIIS
   @RHF iter  13:  -610.90445841972507   -1.70303e-10   1.00127e-08 DIIS
   @RHF iter  14:  -610.90445841974179   -1.67120e-11   3.52250e-09 DIIS
   @RHF iter  15:  -610.90445841974190   -1.13687e-13   1.12791e-09 DIIS
   @RHF iter  16:  -610.90445841974065    1.25056e-12   5.03562e-10 DIIS
   @RHF iter  17:  -610.90445841973656    4.09273e-12   2.04127e-10 DIIS
   @RHF iter  18:  -610.90445841974247   -5.91172e-12   9.11925e-11 DIIS
  Energy and wave function converged.

  ==> Post-Iterations <==

    Orbital Energies [Eh]
    ---------------------

    Doubly Occupied:

       1A    -20.464355     2A    -20.264339     3A    -20.257449
       4A    -11.191380     5A    -11.143957     6A    -11.140792
       7A    -11.137751     8A    -11.135950     9A    -11.129576
      10A    -11.124390    11A    -11.112574    12A    -11.087363
      13A    -11.048810    14A     -1.283049    15A     -1.155682
      16A     -1.044537    17A     -1.040352    18A     -0.937038
      19A     -0.911953    20A     -0.877794    21A     -0.829396
      22A     -0.738791    23A     -0.709917    24A     -0.697429
      25A     -0.620004    26A     -0.563138    27A     -0.541367
      28A     -0.514015    29A     -0.504505    30A     -0.488852
      31A     -0.484258    32A     -0.468562    33A     -0.463451
      34A     -0.458637    35A     -0.434686    36A     -0.428246
      37A     -0.399338    38A     -0.390669    39A     -0.381947
      40A     -0.377065    41A     -0.371044    42A     -0.360884
      43A     -0.326112    44A     -0.304396    45A     -0.232754
      46A     -0.196456    47A     -0.181669    48A     -0.173330
      49A     -0.163681

    Virtual:

      50A      0.232286    51A      0.255075    52A      0.270061
      53A      0.294097    54A      0.303609    55A      0.326794
      56A      0.338384    57A      0.345836    58A      0.356212
      59A      0.362567    60A      0.380514    61A      0.390332
      62A      0.405042    63A      0.436174    64A      0.451893
      65A      0.456501    66A      0.466557    67A      0.486376
      68A      0.540503    69A      0.542398    70A      0.550239
      71A      0.582439    72A      0.597389    73A      0.607907
      74A      0.610183    75A      0.681994    76A      0.707662
      77A      0.712486    78A      0.726114    79A      0.743266
      80A      0.753299    81A      0.767877    82A      0.779126
      83A      0.795555    84A      0.802437    85A      0.816796
      86A      0.827256    87A      0.839681    88A      0.841059
      89A      0.861198    90A      0.874260    91A      0.890667
      92A      0.901227    93A      0.921188    94A      0.935801
      95A      0.950524    96A      0.960428    97A      0.965498
      98A      0.969564    99A      0.981033   100A      0.988840
     101A      0.990044   102A      1.004115   103A      1.012737
     104A      1.014930   105A      1.024825   106A      1.026141
     107A      1.037919   108A      1.040043   109A      1.046507
     110A      1.060156   111A      1.064977   112A      1.088091
     113A      1.107779   114A      1.117832   115A      1.127160
     116A      1.146559   117A      1.151337   118A      1.167503
     119A      1.223011   120A      1.241841   121A      1.243374
     122A      1.256640   123A      1.291425   124A      1.300917
     125A      1.306161   126A      1.321547   127A      1.345166
     128A      1.354887   129A      1.363071   130A      1.380837
     131A      1.406506   132A      1.410603   133A      1.417115
     134A      1.450482   135A      1.465836   136A      1.472219
     137A      1.495932   138A      1.521883   139A      1.539431
     140A      1.567288   141A      1.573353   142A      1.591716
     143A      1.598351   144A      1.624796   145A      1.639128
     146A      1.644174   147A      1.659408   148A      1.682066
     149A      1.694666   150A      1.714898   151A      1.733424
     152A      1.750986   153A      1.785289   154A      1.796986
     155A      1.802683   156A      1.815435   157A      1.844696
     158A      1.849383   159A      1.877451   160A      1.903950
     161A      1.919407   162A      1.967123   163A      1.975849
     164A      1.991670   165A      2.000142   166A      2.007755
     167A      2.016524   168A      2.029597   169A      2.037993
     170A      2.042597   171A      2.048637   172A      2.056499
     173A      2.065461   174A      2.078354   175A      2.089740
     176A      2.095775   177A      2.128811   178A      2.134351
     179A      2.136546   180A      2.148425   181A      2.157652
     182A      2.162920   183A      2.164754   184A      2.178812
     185A      2.189879   186A      2.217182   187A      2.239654
     188A      2.250659   189A      2.254724   190A      2.299800
     191A      2.306225   192A      2.321920   193A      2.328398
     194A      2.349795   195A      2.363818   196A      2.374448
     197A      2.410187   198A      2.430708   199A      2.446407
     200A      2.488912   201A      2.515093   202A      2.518743
     203A      2.567739   204A      2.572655   205A      2.585242
     206A      2.601643   207A      2.617014   208A      2.627449
     209A      2.661367   210A      2.685174   211A      2.703270
     212A      2.743838   213A      2.755003   214A      2.774718
     215A      2.814878   216A      2.840518   217A      2.859790
     218A      2.885758   219A      2.901402   220A      2.910549
     221A      2.942943   222A      2.988659   223A      2.992352
     224A      3.002682   225A      3.048117   226A      3.065473
     227A      3.102910   228A      3.135941   229A      3.183653
     230A      3.202162   231A      3.240197   232A      3.283449
     233A      3.297758   234A      3.366977   235A      3.375899
     236A      3.390220   237A      3.463109   238A      3.640237
     239A      3.696577   240A      3.786399   241A      3.810106
     242A      3.840870   243A      4.065487   244A      4.068870
     245A      4.108048   246A      4.209763   247A      4.304786

    Final Occupation by Irrep:
              A
    DOCC [    49 ]

  @RHF Final Energy:  -610.90445841974247

   => Energetics <=

    Nuclear Repulsion Energy =            752.3241376909045357
    One-Electron Energy =               -2341.8698128729192831
    Two-Electron Energy =                 978.6412167622722791
    Total Energy =                       -610.9044584197424683

Computation Completed

Properties will be evaluated at   0.000000,   0.000000,   0.000000 [a0]

Properties computed using the SCF density matrix

  Nuclear Dipole Moment: [e a0]
     X:   -12.3346      Y:     2.3806      Z:    -6.8168

  Electronic Dipole Moment: [e a0]
     X:     7.2811      Y:    -3.3701      Z:     8.1628

  Dipole Moment: [e a0]
     X:    -5.0534      Y:    -0.9896      Z:     1.3460     Total:     5.3224

  Dipole Moment: [D]
     X:   -12.8445      Y:    -2.5152      Z:     3.4212     Total:    13.5282

*** tstop() called on ds3 at Sun Apr 26 17:04:00 2020
Module time:
	user time   =     200.02 seconds =       3.33 minutes
	system time =      81.82 seconds =       1.36 minutes
	total time  =        347 seconds =       5.78 minutes
Total time:
	user time   =     200.02 seconds =       3.33 minutes
	system time =      81.82 seconds =       1.36 minutes
	total time  =        347 seconds =       5.78 minutes
                                     G D M A

                                 by Anthony Stone

                           version 2.2.06, 22 June 2011

               Distributed Multipoles from Gaussian wavefunctions

Starting at 17:4:0 on 26 Apr 2020

Using SCF density matrix from file ./SSI/SSI-012ASP-026TYR-1-dimer.test.17061.fchk

                         Distributed Multipole Analysis

Standard DMA

Positions and radii in angstrom
Multipole moments in atomic units, ea_0^k for rank k

C          x =  1.119713  y =  1.131830  z = -2.026383 angstrom
           Maximum rank =  0   Radius =  0.650 angstrom
                   Q00  =  -0.089848

C          x =  0.603713  y =  2.574830  z = -2.023383 angstrom
           Maximum rank =  0   Radius =  0.650 angstrom
                   Q00  =  -0.218952

C          x =  2.410713  y =  0.964830  z = -1.264383 angstrom
           Maximum rank =  0   Radius =  0.650 angstrom
                   Q00  =   0.976289

O          x =  3.481713  y =  1.266830  z = -1.835383 angstrom
           Maximum rank =  0   Radius =  0.650 angstrom
                   Q00  =  -0.947786

O          x =  2.357713  y =  0.498830  z = -0.116383 angstrom
           Maximum rank =  0   Radius =  0.650 angstrom
                   Q00  =  -0.936405

H          x =  0.342713  y =  0.489830  z = -1.614383 angstrom
           Maximum rank =  0   Radius =  0.325 angstrom
                   Q00  =   0.028371

H          x =  1.307713  y =  0.792830  z = -3.036383 angstrom
           Maximum rank =  0   Radius =  0.325 angstrom
                   Q00  =   0.030934

H          x =  0.263713  y =  2.798830  z = -1.011383 angstrom
           Maximum rank =  0   Radius =  0.325 angstrom
                   Q00  =   0.049602

H          x = -0.228932  y =  2.659608  z = -2.737187 angstrom
           Maximum rank =  0   Radius =  0.325 angstrom
                   Q00  =   0.033759

H          x =  1.392256  y =  3.297661  z = -2.279732 angstrom
           Maximum rank =  0   Radius =  0.325 angstrom
                   Q00  =   0.077366

C          x = -3.630287  y = -1.433170  z = -0.792383 angstrom
           Maximum rank =  0   Radius =  0.650 angstrom
                   Q00  =  -0.197937

C          x = -0.828287  y =  0.399830  z =  1.050617 angstrom
           Maximum rank =  0   Radius =  0.650 angstrom
                   Q00  =  -0.146306

C          x = -1.900287  y =  0.131830  z =  0.186617 angstrom
           Maximum rank =  0   Radius =  0.650 angstrom
                   Q00  =   0.031953

C          x = -0.291287  y = -0.627170  z =  1.823617 angstrom
           Maximum rank =  0   Radius =  0.650 angstrom
                   Q00  =   0.310111

C          x = -2.436287  y = -1.160170  z =  0.087617 angstrom
           Maximum rank =  0   Radius =  0.650 angstrom
                   Q00  =  -0.134767

C          x = -0.822287  y = -1.917170  z =  1.741617 angstrom
           Maximum rank =  0   Radius =  0.650 angstrom
                   Q00  =  -0.126668

C          x = -1.888287  y = -2.178170  z =  0.878617 angstrom
           Maximum rank =  0   Radius =  0.650 angstrom
                   Q00  =  -0.025399

O          x =  0.740713  y = -0.340170  z =  2.663617 angstrom
           Maximum rank =  0   Radius =  0.650 angstrom
                   Q00  =  -0.649185

H          x = -0.426287  y =  1.399830  z =  1.118617 angstrom
           Maximum rank =  0   Radius =  0.325 angstrom
                   Q00  =   0.081307

H          x = -2.319287  y =  0.934830  z = -0.404383 angstrom
           Maximum rank =  0   Radius =  0.325 angstrom
                   Q00  =   0.059468

H          x =  1.090713  y =  0.529830  z =  2.454617 angstrom
           Maximum rank =  0   Radius =  0.325 angstrom
                   Q00  =   0.432197

H          x = -0.399287  y = -2.703170  z =  2.346617 angstrom
           Maximum rank =  0   Radius =  0.325 angstrom
                   Q00  =   0.065722

H          x = -4.162287  y = -0.498170  z = -0.963383 angstrom
           Maximum rank =  0   Radius =  0.325 angstrom
                   Q00  =   0.087213

H          x = -4.307287  y = -2.067170  z = -0.217383 angstrom
           Maximum rank =  0   Radius =  0.325 angstrom
                   Q00  =   0.075868

H          x = -2.302287  y = -3.176170  z =  0.826617 angstrom
           Maximum rank =  0   Radius =  0.325 angstrom
                   Q00  =   0.041611

H          x = -3.442478  y = -1.926530  z = -1.757434 angstrom
           Maximum rank =  0   Radius =  0.325 angstrom
                   Q00  =   0.091482

Total multipoles referred to origin at
           x =   0.000000,  y =    0.000000,  z =    0.000000 angstrom
                   Q00  =  -1.000000

Finished at 17:4:0 on 26 Apr 2020

  DMA results are available in the Python driver through the
	  variable('DMA DISTRIBUTED MULTIPOLES')
  and
	  variable('DMA TOTAL MULTIPOLES')
  commands.

    Psi4 stopped on: Sunday, 26 April 2020 05:04PM
    Psi4 wall time for execution: 0:05:47.29

*** Psi4 exiting successfully. Buy a developer a beer!
