                               Psi4 1.3.2 release

  ==> Input File <==

--------------------------------------------------------------------------
import numpy as np
set {scf_type pk
basis cc-pvdz
d_convergence 10
gdma_switch   0
gdma_limit    0
gdma_origin   [ 0.0,  0.0,  0.0 ]
}
molecule test {
    units Angstrom
    -1 1
    --
    -1 1
    C               -0.587384806729150    -3.348978502443959     3.014483706601418
    C                0.300615193270850     0.364021497556041     0.984483706601418
    C                0.080615193270850     0.327021497556041     2.352483706601418
    C                0.116615193270850    -0.795978502443959     0.269483706601418
    C               -0.216384806729150    -0.855978502443958     3.001483706601418
    C               -0.172384806729150    -1.986978502443959     0.915483706601418
    C               -0.321384806729150    -2.043978502443959     2.296483706601418
    O                0.577615193270850     1.539021497556041     0.371483706601418
    H                0.489615193270850     2.299021497556041     0.948483706601418
    H                0.176615193270850     1.231021497556041     2.934483706601418
    H                0.257615193270850    -0.756978502443959    -0.792516293398582
    H               -0.355384806729150    -0.850978502443958     4.074483706601418
    H               -0.272384806729150    -2.891978502443959     0.333483706601418
    H               -1.064384806729150    -4.049978502443959     2.328483706601418
    H               -1.277384806729150    -3.159978502443959     3.838483706601418
    H                0.338545193270850    -3.791689502443959     3.410293706601418
    C               -1.305384806729150     1.629021497556041    -2.507516293398582
    C                0.106615193270850     1.486021497556041    -3.038516293398582
    O                1.019615193270849     1.415021497556041    -2.192516293398582
    O                0.322615193270850     1.406021497556041    -4.276516293398583
    H               -1.422384806729150     2.619021497556042    -2.060516293398582
    H               -1.474384806729151     0.874021497556042    -1.735516293398582
    H               -2.070064806729150     1.503891497556041    -3.288296293398582

}
e, wfn = energy('scf', return_wfn=True)
gdma(wfn)
dmavals = variable('DMA DISTRIBUTED MULTIPOLES')
charges = np.array(dmavals)
print(charges)
np.save('SSI-154TYR-203GLU-1-dimer.npy', np.array(charges))--------------------------------------------------------------------------

*** tstart() called on ds3
*** at Mon Apr 27 09:15:03 2020

   => Loading Basis Set <=

    Name: CC-PVDZ
    Role: ORBITAL
    Keyword: BASIS
    atoms 1-7, 17-18  entry C          line   138 file /theoryfs2/ds/metcalf/miniconda2/envs/tf2gpu/share/psi4/basis/cc-pvdz.gbs
    atoms 8, 19-20    entry O          line   198 file /theoryfs2/ds/metcalf/miniconda2/envs/tf2gpu/share/psi4/basis/cc-pvdz.gbs
    atoms 9-16, 21-23 entry H          line    22 file /theoryfs2/ds/metcalf/miniconda2/envs/tf2gpu/share/psi4/basis/cc-pvdz.gbs

         ---------------------------------------------------------
                                   SCF
               by Justin Turney, Rob Parrish, Andy Simmonett
                          and Daniel G. A. Smith
                              RHF Reference
                        1 Threads,    500 MiB Core
         ---------------------------------------------------------

  ==> Geometry <==

    Molecular point group: c1
    Full point group: C1

    Geometry (in Angstrom), charge = -1, multiplicity = 1:

       Center              X                  Y                   Z               Mass
    ------------   -----------------  -----------------  -----------------  -----------------
         C           -0.587384806729    -3.348978502444     3.014483706601    12.000000000000
         C            0.300615193271     0.364021497556     0.984483706601    12.000000000000
         C            0.080615193271     0.327021497556     2.352483706601    12.000000000000
         C            0.116615193271    -0.795978502444     0.269483706601    12.000000000000
         C           -0.216384806729    -0.855978502444     3.001483706601    12.000000000000
         C           -0.172384806729    -1.986978502444     0.915483706601    12.000000000000
         C           -0.321384806729    -2.043978502444     2.296483706601    12.000000000000
         O            0.577615193271     1.539021497556     0.371483706601    15.994914619570
         H            0.489615193271     2.299021497556     0.948483706601     1.007825032230
         H            0.176615193271     1.231021497556     2.934483706601     1.007825032230
         H            0.257615193271    -0.756978502444    -0.792516293399     1.007825032230
         H           -0.355384806729    -0.850978502444     4.074483706601     1.007825032230
         H           -0.272384806729    -2.891978502444     0.333483706601     1.007825032230
         H           -1.064384806729    -4.049978502444     2.328483706601     1.007825032230
         H           -1.277384806729    -3.159978502444     3.838483706601     1.007825032230
         H            0.338545193271    -3.791689502444     3.410293706601     1.007825032230
         C           -1.305384806729     1.629021497556    -2.507516293399    12.000000000000
         C            0.106615193271     1.486021497556    -3.038516293399    12.000000000000
         O            1.019615193271     1.415021497556    -2.192516293399    15.994914619570
         O            0.322615193271     1.406021497556    -4.276516293399    15.994914619570
         H           -1.422384806729     2.619021497556    -2.060516293399     1.007825032230
         H           -1.474384806729     0.874021497556    -1.735516293399     1.007825032230
         H           -2.070064806729     1.503891497556    -3.288296293399     1.007825032230

  Running in c1 symmetry.

  Rotational constants: A =      0.07228  B =      0.01233  C =      0.01129 [cm^-1]
  Rotational constants: A =   2166.89660  B =    369.53038  C =    338.33380 [MHz]
  Nuclear repulsion =  647.170389119748506

  Charge       = -1
  Multiplicity = 1
  Electrons    = 90
  Nalpha       = 45
  Nbeta        = 45

  ==> Algorithm <==

  SCF Algorithm Type is PK.
  DIIS enabled.
  MOM disabled.
  Fractional occupation disabled.
  Guess Type is SAD.
  Energy threshold   = 1.00e-06
  Density threshold  = 1.00e-10
  Integral threshold = 0.00e+00

  ==> Primary Basis <==

  Basis Set: CC-PVDZ
    Blend: CC-PVDZ
    Number of shells: 105
    Number of basis function: 223
    Number of Cartesian functions: 235
    Spherical Harmonics?: true
    Max angular momentum: 2

  ==> Pre-Iterations <==

   -------------------------------------------------------
    Irrep   Nso     Nmo     Nalpha   Nbeta   Ndocc  Nsocc
   -------------------------------------------------------
     A        223     223       0       0       0       0
   -------------------------------------------------------
    Total     223     223      45      45      45       0
   -------------------------------------------------------

  ==> Integral Setup <==

  Using integral reordering PK algorithm.
  Sizing the integral batches needed.
  Building batch lookup table.
   Calculation information:
      Number of atoms:                  23
      Number of AO shells:             105
      Number of primitives:            319
      Number of atomic orbitals:       235
      Number of basis functions:       223

      Integral cutoff                 1.00e-12
      Number of threads:                 1

	Batch   1 pq = [       0,    9405] index = [             0,44231715] size =     44231715
	Batch   2 pq = [    9405,   13301] index = [      44231715,88464951] size =     44233236
	Batch   3 pq = [   13301,   16290] index = [      88464951,132690195] size =     44225244
	Batch   4 pq = [   16290,   18810] index = [     132690195,176917455] size =     44227260
	Batch   5 pq = [   18810,   21030] index = [     176917455,221140965] size =     44223510
	Batch   6 pq = [   21030,   23037] index = [     221140965,265363203] size =     44222238
	Batch   7 pq = [   23037,   24976] index = [     265363203,311912776] size =     46549573
  Task number: 29
  Buffer size: 11059200
  Buffer per thread: 2
  We computed 13179043 shell quartets total.
  Whereas there are 15487395 unique shell quartets.

  ==> DiskJK: Disk-Based J/K Matrices <==

    J tasked:                  Yes
    K tasked:                  Yes
    wK tasked:                  No
    Memory [MiB]:              375
    Schwarz Cutoff:          1E-12

    OpenMP threads:              1

  Minimum eigenvalue in the overlap matrix is 3.0714746956E-04.
  Using Symmetric Orthogonalization.

  SCF Guess: Superposition of Atomic Densities via on-the-fly atomic UHF.

  ==> Iterations <==

                        Total Energy        Delta E     RMS |[F,P]|

   @RHF iter SAD:  -570.30405497748870   -5.70304e+02   0.00000e+00
   @RHF iter   1:  -571.47627035515768   -1.17222e+00   3.76831e-03 DIIS
   @RHF iter   2:  -571.76984938895237   -2.93579e-01   2.01119e-03 DIIS
   @RHF iter   3:  -571.84470578275216   -7.48564e-02   3.47233e-04 DIIS
   @RHF iter   4:  -571.84861803523177   -3.91225e-03   1.27471e-04 DIIS
   @RHF iter   5:  -571.84915734303695   -5.39308e-04   2.07740e-05 DIIS
   @RHF iter   6:  -571.84917860244525   -2.12594e-05   6.98441e-06 DIIS
   @RHF iter   7:  -571.84918091336328   -2.31092e-06   2.97155e-06 DIIS
   @RHF iter   8:  -571.84918133534950   -4.21986e-07   9.58074e-07 DIIS
   @RHF iter   9:  -571.84918140816524   -7.28157e-08   3.89097e-07 DIIS
   @RHF iter  10:  -571.84918142275217   -1.45869e-08   1.53875e-07 DIIS
   @RHF iter  11:  -571.84918142649917   -3.74700e-09   6.51328e-08 DIIS
   @RHF iter  12:  -571.84918142715867   -6.59497e-10   3.24216e-08 DIIS
   @RHF iter  13:  -571.84918142725928   -1.00613e-10   1.00745e-08 DIIS
   @RHF iter  14:  -571.84918142727713   -1.78488e-11   3.81617e-09 DIIS
   @RHF iter  15:  -571.84918142726963    7.50333e-12   1.27599e-09 DIIS
   @RHF iter  16:  -571.84918142727099   -1.36424e-12   6.02702e-10 DIIS
   @RHF iter  17:  -571.84918142726781    3.18323e-12   2.59199e-10 DIIS
   @RHF iter  18:  -571.84918142726769    1.13687e-13   1.09875e-10 DIIS
   @RHF iter  19:  -571.84918142726895   -1.25056e-12   4.77521e-11 DIIS
  Energy and wave function converged.

  ==> Post-Iterations <==

    Orbital Energies [Eh]
    ---------------------

    Doubly Occupied:

       1A    -20.452269     2A    -20.248082     3A    -20.246422
       4A    -11.186077     5A    -11.149487     6A    -11.139031
       7A    -11.135378     8A    -11.133977     9A    -11.128223
      10A    -11.112522    11A    -11.106085    12A    -11.044981
      13A     -1.276322    14A     -1.138096    15A     -1.054697
      16A     -1.023087    17A     -0.942620    18A     -0.916315
      19A     -0.835637    20A     -0.791013    21A     -0.740676
      22A     -0.699540    23A     -0.624767    24A     -0.564533
      25A     -0.538395    26A     -0.508961    27A     -0.494618
      28A     -0.493423    29A     -0.480842    30A     -0.464948
      31A     -0.461356    32A     -0.426495    33A     -0.407431
      34A     -0.403479    35A     -0.398245    36A     -0.391188
      37A     -0.370757    38A     -0.364510    39A     -0.328695
      40A     -0.293961    41A     -0.237849    42A     -0.197947
      43A     -0.174157    44A     -0.157714    45A     -0.149312

    Virtual:

      46A      0.234028    47A      0.256222    48A      0.266352
      49A      0.282695    50A      0.309701    51A      0.313718
      52A      0.345600    53A      0.353839    54A      0.365361
      55A      0.375290    56A      0.405079    57A      0.418949
      58A      0.444062    59A      0.455235    60A      0.479791
      61A      0.503454    62A      0.544734    63A      0.561552
      64A      0.585557    65A      0.587581    66A      0.598838
      67A      0.610648    68A      0.701354    69A      0.705695
      70A      0.719552    71A      0.734685    72A      0.756208
      73A      0.771399    74A      0.785666    75A      0.803409
      76A      0.806706    77A      0.828327    78A      0.833576
      79A      0.842876    80A      0.845554    81A      0.850636
      82A      0.874374    83A      0.884622    84A      0.890525
      85A      0.908257    86A      0.942737    87A      0.951960
      88A      0.956074    89A      0.962860    90A      0.970075
      91A      0.979090    92A      0.985536    93A      0.995107
      94A      1.011278    95A      1.022083    96A      1.037292
      97A      1.040625    98A      1.041587    99A      1.046730
     100A      1.063997   101A      1.066845   102A      1.101957
     103A      1.122057   104A      1.136368   105A      1.158383
     106A      1.169611   107A      1.223281   108A      1.235450
     109A      1.253897   110A      1.270145   111A      1.288864
     112A      1.307181   113A      1.328046   114A      1.346639
     115A      1.354611   116A      1.358930   117A      1.377035
     118A      1.389177   119A      1.406255   120A      1.420799
     121A      1.427651   122A      1.454509   123A      1.469558
     124A      1.473521   125A      1.485230   126A      1.551727
     127A      1.565679   128A      1.587883   129A      1.607100
     130A      1.608041   131A      1.616080   132A      1.647335
     133A      1.657221   134A      1.683239   135A      1.737664
     136A      1.750435   137A      1.756525   138A      1.767644
     139A      1.783944   140A      1.833337   141A      1.839538
     142A      1.855738   143A      1.867544   144A      1.881787
     145A      1.900156   146A      1.926283   147A      1.947458
     148A      1.980506   149A      1.983572   150A      1.998134
     151A      2.013587   152A      2.023160   153A      2.043205
     154A      2.051043   155A      2.058439   156A      2.068398
     157A      2.080258   158A      2.094922   159A      2.109339
     160A      2.119318   161A      2.140456   162A      2.146276
     163A      2.155910   164A      2.171565   165A      2.191748
     166A      2.195686   167A      2.226626   168A      2.241452
     169A      2.259755   170A      2.277175   171A      2.297680
     172A      2.320858   173A      2.337289   174A      2.346173
     175A      2.365652   176A      2.380057   177A      2.397209
     178A      2.423037   179A      2.434965   180A      2.445932
     181A      2.500817   182A      2.515799   183A      2.570125
     184A      2.585251   185A      2.601466   186A      2.608481
     187A      2.633441   188A      2.668404   189A      2.691656
     190A      2.700255   191A      2.732325   192A      2.766922
     193A      2.802685   194A      2.842718   195A      2.862501
     196A      2.895306   197A      2.916483   198A      2.925668
     199A      2.937069   200A      2.976257   201A      3.008422
     202A      3.011109   203A      3.078452   204A      3.130994
     205A      3.204043   206A      3.214218   207A      3.258800
     208A      3.289385   209A      3.306585   210A      3.374573
     211A      3.390413   212A      3.420736   213A      3.493540
     214A      3.646864   215A      3.738545   216A      3.791007
     217A      3.810178   218A      3.835072   219A      4.060676
     220A      4.114909   221A      4.127625   222A      4.207605
     223A      4.340987

    Final Occupation by Irrep:
              A
    DOCC [    45 ]

  @RHF Final Energy:  -571.84918142726895

   => Energetics <=

    Nuclear Repulsion Energy =            647.1703891197485063
    One-Electron Energy =               -2079.1708971294101502
    Two-Electron Energy =                 860.1513265823926986
    Total Energy =                       -571.8491814272689453

Computation Completed

Properties will be evaluated at   0.000000,   0.000000,   0.000000 [a0]

Properties computed using the SCF density matrix

  Nuclear Dipole Moment: [e a0]
     X:    -6.2474      Y:    -6.5175      Z:     9.3373

  Electronic Dipole Moment: [e a0]
     X:     4.8676      Y:     4.5211      Z:    -3.3796

  Dipole Moment: [e a0]
     X:    -1.3798      Y:    -1.9964      Z:     5.9577     Total:     6.4330

  Dipole Moment: [D]
     X:    -3.5071      Y:    -5.0744      Z:    15.1430     Total:    16.3511

*** tstop() called on ds3 at Mon Apr 27 09:24:35 2020
Module time:
	user time   =     111.20 seconds =       1.85 minutes
	system time =      51.63 seconds =       0.86 minutes
	total time  =        572 seconds =       9.53 minutes
Total time:
	user time   =     111.20 seconds =       1.85 minutes
	system time =      51.63 seconds =       0.86 minutes
	total time  =        572 seconds =       9.53 minutes
                                     G D M A

                                 by Anthony Stone

                           version 2.2.06, 22 June 2011

               Distributed Multipoles from Gaussian wavefunctions

Starting at 9:24:35 on 27 Apr 2020

Using SCF density matrix from file ./SSI/SSI-154TYR-203GLU-1-dimer.test.1565.fchk

                         Distributed Multipole Analysis

Standard DMA

Positions and radii in angstrom
Multipole moments in atomic units, ea_0^k for rank k

C          x = -0.587385  y = -3.348979  z =  3.014484 angstrom
           Maximum rank =  0   Radius =  0.650 angstrom
                   Q00  =  -0.196836

C          x =  0.300615  y =  0.364021  z =  0.984484 angstrom
           Maximum rank =  0   Radius =  0.650 angstrom
                   Q00  =   0.354389

C          x =  0.080615  y =  0.327021  z =  2.352484 angstrom
           Maximum rank =  0   Radius =  0.650 angstrom
                   Q00  =  -0.110095

C          x =  0.116615  y = -0.795979  z =  0.269484 angstrom
           Maximum rank =  0   Radius =  0.650 angstrom
                   Q00  =  -0.096693

C          x = -0.216385  y = -0.855979  z =  3.001484 angstrom
           Maximum rank =  0   Radius =  0.650 angstrom
                   Q00  =  -0.062990

C          x = -0.172385  y = -1.986979  z =  0.915484 angstrom
           Maximum rank =  0   Radius =  0.650 angstrom
                   Q00  =   0.017947

C          x = -0.321385  y = -2.043979  z =  2.296484 angstrom
           Maximum rank =  0   Radius =  0.650 angstrom
                   Q00  =  -0.145245

O          x =  0.577615  y =  1.539021  z =  0.371484 angstrom
           Maximum rank =  0   Radius =  0.650 angstrom
                   Q00  =  -0.621209

H          x =  0.489615  y =  2.299022  z =  0.948484 angstrom
           Maximum rank =  0   Radius =  0.325 angstrom
                   Q00  =   0.369387

H          x =  0.176615  y =  1.231021  z =  2.934484 angstrom
           Maximum rank =  0   Radius =  0.325 angstrom
                   Q00  =   0.047755

H          x =  0.257615  y = -0.756979  z = -0.792516 angstrom
           Maximum rank =  0   Radius =  0.325 angstrom
                   Q00  =   0.095804

H          x = -0.355385  y = -0.850979  z =  4.074484 angstrom
           Maximum rank =  0   Radius =  0.325 angstrom
                   Q00  =   0.038198

H          x = -0.272385  y = -2.891979  z =  0.333484 angstrom
           Maximum rank =  0   Radius =  0.325 angstrom
                   Q00  =   0.043180

H          x = -1.064385  y = -4.049979  z =  2.328484 angstrom
           Maximum rank =  0   Radius =  0.325 angstrom
                   Q00  =   0.090565

H          x = -1.277385  y = -3.159979  z =  3.838484 angstrom
           Maximum rank =  0   Radius =  0.325 angstrom
                   Q00  =   0.082229

H          x =  0.338545  y = -3.791690  z =  3.410294 angstrom
           Maximum rank =  0   Radius =  0.325 angstrom
                   Q00  =   0.086490

C          x = -1.305385  y =  1.629021  z = -2.507516 angstrom
           Maximum rank =  0   Radius =  0.650 angstrom
                   Q00  =  -0.283668

C          x =  0.106615  y =  1.486022  z = -3.038516 angstrom
           Maximum rank =  0   Radius =  0.650 angstrom
                   Q00  =   0.976284

O          x =  1.019615  y =  1.415021  z = -2.192516 angstrom
           Maximum rank =  0   Radius =  0.650 angstrom
                   Q00  =  -0.922857

O          x =  0.322615  y =  1.406022  z = -4.276516 angstrom
           Maximum rank =  0   Radius =  0.650 angstrom
                   Q00  =  -0.944400

H          x = -1.422385  y =  2.619022  z = -2.060516 angstrom
           Maximum rank =  0   Radius =  0.325 angstrom
                   Q00  =   0.070842

H          x = -1.474385  y =  0.874021  z = -1.735516 angstrom
           Maximum rank =  0   Radius =  0.325 angstrom
                   Q00  =   0.069911

H          x = -2.070065  y =  1.503891  z = -3.288296 angstrom
           Maximum rank =  0   Radius =  0.325 angstrom
                   Q00  =   0.041010

Total multipoles referred to origin at
           x =   0.000000,  y =    0.000000,  z =    0.000000 angstrom
                   Q00  =  -1.000000

Finished at 9:24:35 on 27 Apr 2020

  DMA results are available in the Python driver through the
	  variable('DMA DISTRIBUTED MULTIPOLES')
  and
	  variable('DMA TOTAL MULTIPOLES')
  commands.

    Psi4 stopped on: Monday, 27 April 2020 09:24AM
    Psi4 wall time for execution: 0:09:32.33

*** Psi4 exiting successfully. Buy a developer a beer!
