                               Psi4 1.3.2 release

  ==> Input File <==

--------------------------------------------------------------------------
import numpy as np
set {scf_type pk
basis cc-pvdz
d_convergence 10
gdma_switch   0
gdma_limit    0
gdma_origin   [ 0.0,  0.0,  0.0 ]
}
molecule test {
    units Angstrom
    0 1
    --
    0 1
    C               -3.024594161367508    -1.084191340099398     3.239946428264423
    C               -4.297594161367508    -1.933191340099398     3.346946428264423
    H               -2.654594161367509    -0.849191340099398     4.237946428264422
    H               -2.256594161367508    -1.637191340099398     2.697946428264423
    H               -3.245594161367508    -0.158191340099398     2.709946428264423
    H               -4.008594161367508    -2.827191340099398     3.902946428264423
    H               -5.090852161367509    -1.401791340099398     3.893146428264423
    H               -4.658988161367508    -2.232991340099398     2.352216428264423
    C                3.733405838632492     0.228808659900602     0.117946428264423
    C                1.113405838632492     0.407808659900602    -0.394053571735577
    C                2.483405838632491     0.141808659900602    -0.770053571735577
    C                0.296405838632492     0.212808659900602    -1.545053571735577
    C                2.442405838632492    -0.203191340099398    -2.089053571735577
    C               -0.913594161367508     0.964808659900602     0.826946428264423
    C               -1.688594161367508     0.768808659900602    -0.323053571735577
    C                0.484405838632492     0.796808659900602     0.802946428264423
    C               -1.088594161367508     0.391808659900602    -1.526053571735577
    N                1.140405838632492    -0.167191340099398    -2.559053571735577
    H               -1.390594161367508     1.250808659900602     1.753946428264423
    H               -2.757594161367508     0.910808659900602    -0.273053571735577
    H                1.050405838632492     0.972808659900602     1.712946428264423
    H               -1.649594161367508     0.230808659900602    -2.436053571735577
    H                4.428405838632492    -0.543191340099398    -0.221053571735577
    H                3.426405838632492    -0.007191340099398     1.141946428264423
    H                3.364405838632492    -0.453191340099398    -2.601053571735577
    H                0.845405838632492    -0.395191340099398    -3.503053571735578
    H                4.224385838632491     1.212908659900602     0.095956428264423

}
e, wfn = energy('scf', return_wfn=True)
gdma(wfn)
dmavals = variable('DMA DISTRIBUTED MULTIPOLES')
charges = np.array(dmavals)
print(charges)
np.save('SSI-097VAL-112TRP-1-dimer.npy', np.array(charges))--------------------------------------------------------------------------

*** tstart() called on ds3
*** at Mon Apr 27 22:57:25 2020

   => Loading Basis Set <=

    Name: CC-PVDZ
    Role: ORBITAL
    Keyword: BASIS
    atoms 1-2, 9-17  entry C          line   138 file /theoryfs2/ds/metcalf/miniconda2/envs/tf2gpu/share/psi4/basis/cc-pvdz.gbs
    atoms 3-8, 19-27 entry H          line    22 file /theoryfs2/ds/metcalf/miniconda2/envs/tf2gpu/share/psi4/basis/cc-pvdz.gbs
    atoms 18         entry N          line   168 file /theoryfs2/ds/metcalf/miniconda2/envs/tf2gpu/share/psi4/basis/cc-pvdz.gbs

         ---------------------------------------------------------
                                   SCF
               by Justin Turney, Rob Parrish, Andy Simmonett
                          and Daniel G. A. Smith
                              RHF Reference
                        1 Threads,    500 MiB Core
         ---------------------------------------------------------

  ==> Geometry <==

    Molecular point group: c1
    Full point group: C1

    Geometry (in Angstrom), charge = 0, multiplicity = 1:

       Center              X                  Y                   Z               Mass
    ------------   -----------------  -----------------  -----------------  -----------------
         C           -3.024594161368    -1.084191340099     3.239946428264    12.000000000000
         C           -4.297594161368    -1.933191340099     3.346946428264    12.000000000000
         H           -2.654594161368    -0.849191340099     4.237946428264     1.007825032230
         H           -2.256594161368    -1.637191340099     2.697946428264     1.007825032230
         H           -3.245594161368    -0.158191340099     2.709946428264     1.007825032230
         H           -4.008594161368    -2.827191340099     3.902946428264     1.007825032230
         H           -5.090852161368    -1.401791340099     3.893146428264     1.007825032230
         H           -4.658988161368    -2.232991340099     2.352216428264     1.007825032230
         C            3.733405838632     0.228808659901     0.117946428264    12.000000000000
         C            1.113405838632     0.407808659901    -0.394053571736    12.000000000000
         C            2.483405838632     0.141808659901    -0.770053571736    12.000000000000
         C            0.296405838632     0.212808659901    -1.545053571736    12.000000000000
         C            2.442405838632    -0.203191340099    -2.089053571736    12.000000000000
         C           -0.913594161368     0.964808659901     0.826946428264    12.000000000000
         C           -1.688594161368     0.768808659901    -0.323053571736    12.000000000000
         C            0.484405838632     0.796808659901     0.802946428264    12.000000000000
         C           -1.088594161368     0.391808659901    -1.526053571736    12.000000000000
         N            1.140405838632    -0.167191340099    -2.559053571736    14.003074004430
         H           -1.390594161368     1.250808659901     1.753946428264     1.007825032230
         H           -2.757594161368     0.910808659901    -0.273053571736     1.007825032230
         H            1.050405838632     0.972808659901     1.712946428264     1.007825032230
         H           -1.649594161368     0.230808659901    -2.436053571736     1.007825032230
         H            4.428405838632    -0.543191340099    -0.221053571736     1.007825032230
         H            3.426405838632    -0.007191340099     1.141946428264     1.007825032230
         H            3.364405838632    -0.453191340099    -2.601053571736     1.007825032230
         H            0.845405838632    -0.395191340099    -3.503053571736     1.007825032230
         H            4.224385838632     1.212908659901     0.095956428264     1.007825032230

  Running in c1 symmetry.

  Rotational constants: A =      0.05213  B =      0.01239  C =      0.01103 [cm^-1]
  Rotational constants: A =   1562.96341  B =    371.53983  C =    330.63128 [MHz]
  Nuclear repulsion =  631.880378338465334

  Charge       = 0
  Multiplicity = 1
  Electrons    = 88
  Nalpha       = 44
  Nbeta        = 44

  ==> Algorithm <==

  SCF Algorithm Type is PK.
  DIIS enabled.
  MOM disabled.
  Fractional occupation disabled.
  Guess Type is SAD.
  Energy threshold   = 1.00e-06
  Density threshold  = 1.00e-10
  Integral threshold = 0.00e+00

  ==> Primary Basis <==

  Basis Set: CC-PVDZ
    Blend: CC-PVDZ
    Number of shells: 117
    Number of basis function: 243
    Number of Cartesian functions: 255
    Spherical Harmonics?: true
    Max angular momentum: 2

  ==> Pre-Iterations <==

   -------------------------------------------------------
    Irrep   Nso     Nmo     Nalpha   Nbeta   Ndocc  Nsocc
   -------------------------------------------------------
     A        243     243       0       0       0       0
   -------------------------------------------------------
    Total     243     243      44      44      44       0
   -------------------------------------------------------

  ==> Integral Setup <==

  Using integral reordering PK algorithm.
  Sizing the integral batches needed.
  Building batch lookup table.
   Calculation information:
      Number of atoms:                  27
      Number of AO shells:             117
      Number of primitives:            339
      Number of atomic orbitals:       255
      Number of basis functions:       243

      Integral cutoff                 1.00e-12
      Number of threads:                 1

	Batch   1 pq = [       0,    9405] index = [             0,44231715] size =     44231715
	Batch   2 pq = [    9405,   13301] index = [      44231715,88464951] size =     44233236
	Batch   3 pq = [   13301,   16290] index = [      88464951,132690195] size =     44225244
	Batch   4 pq = [   16290,   18810] index = [     132690195,176917455] size =     44227260
	Batch   5 pq = [   18810,   21030] index = [     176917455,221140965] size =     44223510
	Batch   6 pq = [   21030,   23037] index = [     221140965,265363203] size =     44222238
	Batch   7 pq = [   23037,   24883] index = [     265363203,309594286] size =     44231083
	Batch   8 pq = [   24883,   26601] index = [     309594286,353819901] size =     44225615
	Batch   9 pq = [   26601,   28214] index = [     353819901,398029005] size =     44209104
	Batch  10 pq = [   28214,   29646] index = [     398029005,439457481] size =     41428476
  Task number: 40
  Buffer size: 11059200
  Buffer per thread: 2
  We computed 19388768 shell quartets total.
  Whereas there are 23829156 unique shell quartets.

  ==> DiskJK: Disk-Based J/K Matrices <==

    J tasked:                  Yes
    K tasked:                  Yes
    wK tasked:                  No
    Memory [MiB]:              375
    Schwarz Cutoff:          1E-12

    OpenMP threads:              1

  Minimum eigenvalue in the overlap matrix is 2.5274475203E-04.
  Using Symmetric Orthogonalization.

  SCF Guess: Superposition of Atomic Densities via on-the-fly atomic UHF.

  ==> Iterations <==

                        Total Energy        Delta E     RMS |[F,P]|

   @RHF iter SAD:  -478.82267452629600   -4.78823e+02   0.00000e+00
   @RHF iter   1:  -479.49061719993949   -6.67943e-01   2.56722e-03 DIIS
   @RHF iter   2:  -479.71866638026239   -2.28049e-01   1.12888e-03 DIIS
   @RHF iter   3:  -479.75870369349315   -4.00373e-02   2.97089e-04 DIIS
   @RHF iter   4:  -479.76241282251033   -3.70913e-03   1.36610e-04 DIIS
   @RHF iter   5:  -479.76303572866823   -6.22906e-04   1.98896e-05 DIIS
   @RHF iter   6:  -479.76306466193694   -2.89333e-05   9.12979e-06 DIIS
   @RHF iter   7:  -479.76307047269637   -5.81076e-06   3.76957e-06 DIIS
   @RHF iter   8:  -479.76307212366646   -1.65097e-06   1.47955e-06 DIIS
   @RHF iter   9:  -479.76307244725541   -3.23589e-07   6.48679e-07 DIIS
   @RHF iter  10:  -479.76307251185074   -6.45953e-08   3.04596e-07 DIIS
   @RHF iter  11:  -479.76307252809374   -1.62430e-08   1.15646e-07 DIIS
   @RHF iter  12:  -479.76307253046792   -2.37418e-09   4.20115e-08 DIIS
   @RHF iter  13:  -479.76307253065772   -1.89800e-10   1.31496e-08 DIIS
   @RHF iter  14:  -479.76307253067353   -1.58025e-11   5.89099e-09 DIIS
   @RHF iter  15:  -479.76307253067978   -6.25278e-12   2.71439e-09 DIIS
   @RHF iter  16:  -479.76307253067654    3.24007e-12   1.12529e-09 DIIS
   @RHF iter  17:  -479.76307253068518   -8.64020e-12   4.92351e-10 DIIS
   @RHF iter  18:  -479.76307253068353    1.64846e-12   1.78929e-10 DIIS
   @RHF iter  19:  -479.76307253068057    2.95586e-12   6.55958e-11 DIIS
  Energy and wave function converged.

  ==> Post-Iterations <==

    Orbital Energies [Eh]
    ---------------------

    Doubly Occupied:

       1A    -15.603133     2A    -11.265572     3A    -11.265487
       4A    -11.232648     5A    -11.232417     6A    -11.232114
       7A    -11.230651     8A    -11.223322     9A    -11.221517
      10A    -11.220897    11A    -11.215439    12A    -11.211428
      13A     -1.290687    14A     -1.122347    15A     -1.068238
      16A     -1.012415    17A     -0.991159    18A     -0.985220
      19A     -0.929927    20A     -0.837343    21A     -0.830663
      22A     -0.801544    23A     -0.749789    24A     -0.717251
      25A     -0.664595    26A     -0.638474    27A     -0.598095
      28A     -0.594332    29A     -0.592215    30A     -0.588252
      31A     -0.587820    32A     -0.564167    33A     -0.553220
      34A     -0.531943    35A     -0.527049    36A     -0.495924
      37A     -0.492514    38A     -0.482632    39A     -0.477531
      40A     -0.469149    41A     -0.457490    42A     -0.372031
      43A     -0.293226    44A     -0.274898

    Virtual:

      45A      0.123601    46A      0.169135    47A      0.179392
      48A      0.182932    49A      0.190487    50A      0.207717
      51A      0.219770    52A      0.227815    53A      0.228766
      54A      0.248588    55A      0.256521    56A      0.260504
      57A      0.270336    58A      0.280830    59A      0.290292
      60A      0.291816    61A      0.298252    62A      0.335387
      63A      0.365993    64A      0.377696    65A      0.393176
      66A      0.403606    67A      0.422850    68A      0.442282
      69A      0.467793    70A      0.476894    71A      0.505508
      72A      0.510876    73A      0.593173    74A      0.599272
      75A      0.607149    76A      0.611964    77A      0.618849
      78A      0.634187    79A      0.643107    80A      0.659530
      81A      0.670165    82A      0.687590    83A      0.694863
      84A      0.705042    85A      0.716103    86A      0.726522
      87A      0.729092    88A      0.743444    89A      0.747125
      90A      0.752823    91A      0.760472    92A      0.768775
      93A      0.785529    94A      0.798135    95A      0.816566
      96A      0.829384    97A      0.851292    98A      0.865123
      99A      0.869741   100A      0.877189   101A      0.889439
     102A      0.894733   103A      0.897694   104A      0.900489
     105A      0.905864   106A      0.908144   107A      0.916886
     108A      0.931406   109A      0.938224   110A      0.948669
     111A      0.950212   112A      0.966811   113A      0.970216
     114A      0.981520   115A      0.990919   116A      1.007227
     117A      1.050178   118A      1.075182   119A      1.088667
     120A      1.119472   121A      1.124891   122A      1.131399
     123A      1.141242   124A      1.146107   125A      1.156022
     126A      1.170291   127A      1.211973   128A      1.214416
     129A      1.230853   130A      1.236162   131A      1.240904
     132A      1.259312   133A      1.274618   134A      1.283459
     135A      1.291539   136A      1.323650   137A      1.332527
     138A      1.357660   139A      1.361449   140A      1.415426
     141A      1.445572   142A      1.473322   143A      1.493592
     144A      1.508341   145A      1.536304   146A      1.561296
     147A      1.578878   148A      1.596466   149A      1.609875
     150A      1.634773   151A      1.645003   152A      1.681772
     153A      1.686181   154A      1.693774   155A      1.699247
     156A      1.739143   157A      1.762238   158A      1.770848
     159A      1.780094   160A      1.810305   161A      1.825180
     162A      1.832785   163A      1.862950   164A      1.868540
     165A      1.880920   166A      1.886382   167A      1.893521
     168A      1.897108   169A      1.901938   170A      1.911474
     171A      1.921728   172A      1.930817   173A      1.942921
     174A      1.947022   175A      1.950632   176A      1.951135
     177A      1.963118   178A      1.978841   179A      1.984750
     180A      1.992838   181A      2.004205   182A      2.008891
     183A      2.036858   184A      2.064733   185A      2.072616
     186A      2.084269   187A      2.085773   188A      2.093757
     189A      2.107146   190A      2.116567   191A      2.131375
     192A      2.137617   193A      2.156699   194A      2.165135
     195A      2.176410   196A      2.228088   197A      2.257527
     198A      2.267042   199A      2.293135   200A      2.295225
     201A      2.303882   202A      2.321394   203A      2.336411
     204A      2.340784   205A      2.385513   206A      2.390544
     207A      2.446149   208A      2.453709   209A      2.461224
     210A      2.472325   211A      2.522709   212A      2.556025
     213A      2.564461   214A      2.581398   215A      2.586974
     216A      2.615054   217A      2.650546   218A      2.672120
     219A      2.713878   220A      2.763166   221A      2.765317
     222A      2.770249   223A      2.777974   224A      2.791141
     225A      2.797221   226A      2.827134   227A      2.842167
     228A      2.846567   229A      2.854545   230A      2.864117
     231A      2.909871   232A      2.945997   233A      2.950203
     234A      2.961976   235A      2.992045   236A      3.023557
     237A      3.063610   238A      3.100763   239A      3.185863
     240A      3.267592   241A      3.358615   242A      3.725392
     243A      3.926587

    Final Occupation by Irrep:
              A
    DOCC [    44 ]

  @RHF Final Energy:  -479.76307253068057

   => Energetics <=

    Nuclear Repulsion Energy =            631.8803783384653343
    One-Electron Energy =               -1901.7933697768914953
    Two-Electron Energy =                 790.1499189077455867
    Total Energy =                       -479.7630725306805743

Computation Completed

Properties will be evaluated at   0.000000,   0.000000,   0.000000 [a0]

Properties computed using the SCF density matrix

  Nuclear Dipole Moment: [e a0]
     X:    -9.7282      Y:    -5.5561      Z:    14.5051

  Electronic Dipole Moment: [e a0]
     X:    10.0380      Y:     5.3257      Z:   -15.2243

  Dipole Moment: [e a0]
     X:     0.3098      Y:    -0.2304      Z:    -0.7192     Total:     0.8162

  Dipole Moment: [D]
     X:     0.7874      Y:    -0.5856      Z:    -1.8279     Total:     2.0747

*** tstop() called on ds3 at Mon Apr 27 23:01:48 2020
Module time:
	user time   =     165.67 seconds =       2.76 minutes
	system time =      75.99 seconds =       1.27 minutes
	total time  =        263 seconds =       4.38 minutes
Total time:
	user time   =     165.67 seconds =       2.76 minutes
	system time =      75.99 seconds =       1.27 minutes
	total time  =        263 seconds =       4.38 minutes
                                     G D M A

                                 by Anthony Stone

                           version 2.2.06, 22 June 2011

               Distributed Multipoles from Gaussian wavefunctions

Starting at 23:1:48 on 27 Apr 2020

Using SCF density matrix from file ./SSI/SSI-097VAL-112TRP-1-dimer.test.6050.fchk

                         Distributed Multipole Analysis

Standard DMA

Positions and radii in angstrom
Multipole moments in atomic units, ea_0^k for rank k

C          x = -3.024594  y = -1.084191  z =  3.239946 angstrom
           Maximum rank =  0   Radius =  0.650 angstrom
                   Q00  =  -0.234633

C          x = -4.297594  y = -1.933191  z =  3.346946 angstrom
           Maximum rank =  0   Radius =  0.650 angstrom
                   Q00  =  -0.236604

H          x = -2.654594  y = -0.849191  z =  4.237946 angstrom
           Maximum rank =  0   Radius =  0.325 angstrom
                   Q00  =   0.076234

H          x = -2.256594  y = -1.637191  z =  2.697946 angstrom
           Maximum rank =  0   Radius =  0.325 angstrom
                   Q00  =   0.087950

H          x = -3.245594  y = -0.158191  z =  2.709946 angstrom
           Maximum rank =  0   Radius =  0.325 angstrom
                   Q00  =   0.074205

H          x = -4.008594  y = -2.827191  z =  3.902946 angstrom
           Maximum rank =  0   Radius =  0.325 angstrom
                   Q00  =   0.074686

H          x = -5.090852  y = -1.401791  z =  3.893146 angstrom
           Maximum rank =  0   Radius =  0.325 angstrom
                   Q00  =   0.078692

H          x = -4.658988  y = -2.232991  z =  2.352216 angstrom
           Maximum rank =  0   Radius =  0.325 angstrom
                   Q00  =   0.080341

C          x =  3.733406  y =  0.228809  z =  0.117946 angstrom
           Maximum rank =  0   Radius =  0.650 angstrom
                   Q00  =  -0.206668

C          x =  1.113406  y =  0.407809  z = -0.394054 angstrom
           Maximum rank =  0   Radius =  0.650 angstrom
                   Q00  =  -0.044065

C          x =  2.483406  y =  0.141809  z = -0.770054 angstrom
           Maximum rank =  0   Radius =  0.650 angstrom
                   Q00  =  -0.141251

C          x =  0.296406  y =  0.212809  z = -1.545054 angstrom
           Maximum rank =  0   Radius =  0.650 angstrom
                   Q00  =   0.291002

C          x =  2.442406  y = -0.203191  z = -2.089054 angstrom
           Maximum rank =  0   Radius =  0.650 angstrom
                   Q00  =   0.081263

C          x = -0.913594  y =  0.964809  z =  0.826946 angstrom
           Maximum rank =  0   Radius =  0.650 angstrom
                   Q00  =  -0.072645

C          x = -1.688594  y =  0.768809  z = -0.323054 angstrom
           Maximum rank =  0   Radius =  0.650 angstrom
                   Q00  =  -0.082990

C          x =  0.484406  y =  0.796809  z =  0.802946 angstrom
           Maximum rank =  0   Radius =  0.650 angstrom
                   Q00  =  -0.098701

C          x = -1.088594  y =  0.391809  z = -1.526054 angstrom
           Maximum rank =  0   Radius =  0.650 angstrom
                   Q00  =  -0.125849

N          x =  1.140406  y = -0.167191  z = -2.559054 angstrom
           Maximum rank =  0   Radius =  0.650 angstrom
                   Q00  =  -0.506425

H          x = -1.390594  y =  1.250809  z =  1.753946 angstrom
           Maximum rank =  0   Radius =  0.325 angstrom
                   Q00  =   0.062651

H          x = -2.757594  y =  0.910809  z = -0.273054 angstrom
           Maximum rank =  0   Radius =  0.325 angstrom
                   Q00  =   0.065939

H          x =  1.050406  y =  0.972809  z =  1.712946 angstrom
           Maximum rank =  0   Radius =  0.325 angstrom
                   Q00  =   0.069419

H          x = -1.649594  y =  0.230809  z = -2.436054 angstrom
           Maximum rank =  0   Radius =  0.325 angstrom
                   Q00  =   0.074022

H          x =  4.428406  y = -0.543191  z = -0.221054 angstrom
           Maximum rank =  0   Radius =  0.325 angstrom
                   Q00  =   0.103249

H          x =  3.426406  y = -0.007191  z =  1.141946 angstrom
           Maximum rank =  0   Radius =  0.325 angstrom
                   Q00  =   0.105380

H          x =  3.364406  y = -0.453191  z = -2.601054 angstrom
           Maximum rank =  0   Radius =  0.325 angstrom
                   Q00  =   0.103004

H          x =  0.845406  y = -0.395191  z = -3.503054 angstrom
           Maximum rank =  0   Radius =  0.325 angstrom
                   Q00  =   0.217766

H          x =  4.224386  y =  1.212909  z =  0.095956 angstrom
           Maximum rank =  0   Radius =  0.325 angstrom
                   Q00  =   0.104027

Total multipoles referred to origin at
           x =   0.000000,  y =    0.000000,  z =    0.000000 angstrom
                   Q00  =  -0.000000

Finished at 23:1:48 on 27 Apr 2020

  DMA results are available in the Python driver through the
	  variable('DMA DISTRIBUTED MULTIPOLES')
  and
	  variable('DMA TOTAL MULTIPOLES')
  commands.

    Psi4 stopped on: Monday, 27 April 2020 11:01PM
    Psi4 wall time for execution: 0:04:22.89

*** Psi4 exiting successfully. Buy a developer a beer!
