                               Psi4 1.3.2 release

  ==> Input File <==

--------------------------------------------------------------------------
import numpy as np
set {scf_type pk
basis cc-pvdz
d_convergence 10
gdma_switch   0
gdma_limit    0
gdma_origin   [ 0.0,  0.0,  0.0 ]
}
molecule test {
    units Angstrom
    0 1
    --
    0 1
    C               -0.680528907466000    -0.935314525114968    -1.073633468479904
    C               -0.983528907466000     0.348685474885032    -1.839633468479904
    C               -1.743528907466000    -2.014314525114969    -1.278633468479904
    H                0.310471092534000    -1.309314525114968    -1.328633468479904
    H               -0.672528907466000    -0.683314525114968    -0.013633468479904
    H               -0.319528907466000     1.128685474885032    -1.460633468479904
    H               -2.006528907466000     0.650685474885032    -1.611633468479904
    H               -1.941528907466000    -2.509314525114969    -0.326633468479904
    H               -2.683528907466000    -1.557314525114968    -1.592633468479904
    H               -0.862861907466000     0.288705474885032    -2.931348468479903
    H               -1.416888317466000    -2.747554525114968    -2.030736468479904
    C                1.109471092534000     1.263685474885031     1.547366531520096
    C                2.259471092534000     1.263685474885031     2.556366531520097
    H                0.292471092534000     0.635685474885032     1.904366531520096
    H                0.730471092534000     2.276685474885032     1.426366531520096
    H                1.456471092534000     0.884685474885032     0.584366531520096
    H                1.882471092534000     1.626685474885032     3.511366531520096
    H                2.637993092534000     0.239535474885032     2.689916531520096
    H                3.053180092534000     1.951475474885032     2.229296531520096

}
e, wfn = energy('scf', return_wfn=True)
gdma(wfn)
dmavals = variable('DMA DISTRIBUTED MULTIPOLES')
charges = np.array(dmavals)
print(charges)
np.save('SSI-035ARG-042VAL-1-dimer.npy', np.array(charges))--------------------------------------------------------------------------

*** tstart() called on ds3
*** at Tue Apr 28 13:12:43 2020

   => Loading Basis Set <=

    Name: CC-PVDZ
    Role: ORBITAL
    Keyword: BASIS
    atoms 1-3, 12-13  entry C          line   138 file /theoryfs2/ds/metcalf/miniconda2/envs/tf2gpu/share/psi4/basis/cc-pvdz.gbs
    atoms 4-11, 14-19 entry H          line    22 file /theoryfs2/ds/metcalf/miniconda2/envs/tf2gpu/share/psi4/basis/cc-pvdz.gbs

         ---------------------------------------------------------
                                   SCF
               by Justin Turney, Rob Parrish, Andy Simmonett
                          and Daniel G. A. Smith
                              RHF Reference
                        1 Threads,    500 MiB Core
         ---------------------------------------------------------

  ==> Geometry <==

    Molecular point group: c1
    Full point group: C1

    Geometry (in Angstrom), charge = 0, multiplicity = 1:

       Center              X                  Y                   Z               Mass
    ------------   -----------------  -----------------  -----------------  -----------------
         C           -0.680528907466    -0.935314525115    -1.073633468480    12.000000000000
         C           -0.983528907466     0.348685474885    -1.839633468480    12.000000000000
         C           -1.743528907466    -2.014314525115    -1.278633468480    12.000000000000
         H            0.310471092534    -1.309314525115    -1.328633468480     1.007825032230
         H           -0.672528907466    -0.683314525115    -0.013633468480     1.007825032230
         H           -0.319528907466     1.128685474885    -1.460633468480     1.007825032230
         H           -2.006528907466     0.650685474885    -1.611633468480     1.007825032230
         H           -1.941528907466    -2.509314525115    -0.326633468480     1.007825032230
         H           -2.683528907466    -1.557314525115    -1.592633468480     1.007825032230
         H           -0.862861907466     0.288705474885    -2.931348468480     1.007825032230
         H           -1.416888317466    -2.747554525115    -2.030736468480     1.007825032230
         C            1.109471092534     1.263685474885     1.547366531520    12.000000000000
         C            2.259471092534     1.263685474885     2.556366531520    12.000000000000
         H            0.292471092534     0.635685474885     1.904366531520     1.007825032230
         H            0.730471092534     2.276685474885     1.426366531520     1.007825032230
         H            1.456471092534     0.884685474885     0.584366531520     1.007825032230
         H            1.882471092534     1.626685474885     3.511366531520     1.007825032230
         H            2.637993092534     0.239535474885     2.689916531520     1.007825032230
         H            3.053180092534     1.951475474885     2.229296531520     1.007825032230

  Running in c1 symmetry.

  Rotational constants: A =      0.26564  B =      0.03477  C =      0.03203 [cm^-1]
  Rotational constants: A =   7963.79246  B =   1042.33490  C =    960.17259 [MHz]
  Nuclear repulsion =  175.472022530834039

  Charge       = 0
  Multiplicity = 1
  Electrons    = 44
  Nalpha       = 22
  Nbeta        = 22

  ==> Algorithm <==

  SCF Algorithm Type is PK.
  DIIS enabled.
  MOM disabled.
  Fractional occupation disabled.
  Guess Type is SAD.
  Energy threshold   = 1.00e-06
  Density threshold  = 1.00e-10
  Integral threshold = 0.00e+00

  ==> Primary Basis <==

  Basis Set: CC-PVDZ
    Blend: CC-PVDZ
    Number of shells: 72
    Number of basis function: 140
    Number of Cartesian functions: 145
    Spherical Harmonics?: true
    Max angular momentum: 2

  ==> Pre-Iterations <==

   -------------------------------------------------------
    Irrep   Nso     Nmo     Nalpha   Nbeta   Ndocc  Nsocc
   -------------------------------------------------------
     A        140     140       0       0       0       0
   -------------------------------------------------------
    Total     140     140      22      22      22       0
   -------------------------------------------------------

  ==> Integral Setup <==

  Using integral reordering PK algorithm.
  Sizing the integral batches needed.
  Building batch lookup table.
   Calculation information:
      Number of atoms:                  19
      Number of AO shells:              72
      Number of primitives:            180
      Number of atomic orbitals:       145
      Number of basis functions:       140

      Integral cutoff                 1.00e-12
      Number of threads:                 1

	Batch   1 pq = [       0,    9405] index = [             0,44231715] size =     44231715
	Batch   2 pq = [    9405,    9870] index = [      44231715,48713385] size =      4481670
  Task number: 5
  Buffer size: 11059200
  Buffer per thread: 2
  We computed 2694032 shell quartets total.
  Whereas there are 3454506 unique shell quartets.

  ==> DiskJK: Disk-Based J/K Matrices <==

    J tasked:                  Yes
    K tasked:                  Yes
    wK tasked:                  No
    Memory [MiB]:              375
    Schwarz Cutoff:          1E-12

    OpenMP threads:              1

  Minimum eigenvalue in the overlap matrix is 5.0721852438E-03.
  Using Symmetric Orthogonalization.

  SCF Guess: Superposition of Atomic Densities via on-the-fly atomic UHF.

  ==> Iterations <==

                        Total Energy        Delta E     RMS |[F,P]|

   @RHF iter SAD:  -196.36707765058600   -1.96367e+02   0.00000e+00
   @RHF iter   1:  -197.30742018163605   -9.40343e-01   3.81185e-03 DIIS
   @RHF iter   2:  -197.46759901898250   -1.60179e-01   1.64845e-03 DIIS
   @RHF iter   3:  -197.49625894893734   -2.86599e-02   3.25660e-04 DIIS
   @RHF iter   4:  -197.49848316029187   -2.22421e-03   4.89688e-05 DIIS
   @RHF iter   5:  -197.49852267004377   -3.95098e-05   1.48830e-05 DIIS
   @RHF iter   6:  -197.49852603333386   -3.36329e-06   2.41401e-06 DIIS
   @RHF iter   7:  -197.49852613696103   -1.03627e-07   4.40449e-07 DIIS
   @RHF iter   8:  -197.49852614081456   -3.85353e-09   1.10869e-07 DIIS
   @RHF iter   9:  -197.49852614104947   -2.34905e-10   3.47571e-08 DIIS
   @RHF iter  10:  -197.49852614107823   -2.87628e-11   7.64154e-09 DIIS
   @RHF iter  11:  -197.49852614107857   -3.41061e-13   1.49897e-09 DIIS
   @RHF iter  12:  -197.49852614107937   -7.95808e-13   2.87917e-10 DIIS
   @RHF iter  13:  -197.49852614107988   -5.11591e-13   5.97066e-11 DIIS
  Energy and wave function converged.

  ==> Post-Iterations <==

    Orbital Energies [Eh]
    ---------------------

    Doubly Occupied:

       1A    -11.219840     2A    -11.217458     3A    -11.217297
       4A    -11.214650     5A    -11.213900     6A     -1.052750
       7A     -1.018733     8A     -0.923207     9A     -0.837197
      10A     -0.796142    11A     -0.624516    12A     -0.600967
      13A     -0.597777    14A     -0.593009    15A     -0.547339
      16A     -0.533050    17A     -0.499834    18A     -0.489126
      19A     -0.485120    20A     -0.473999    21A     -0.465092
      22A     -0.460070

    Virtual:

      23A      0.173114    24A      0.193721    25A      0.218219
      26A      0.220541    27A      0.230512    28A      0.249384
      29A      0.253700    30A      0.264709    31A      0.277458
      32A      0.280581    33A      0.295650    34A      0.296769
      35A      0.322361    36A      0.351311    37A      0.396496
      38A      0.404048    39A      0.433769    40A      0.569754
      41A      0.592941    42A      0.597822    43A      0.602897
      44A      0.611157    45A      0.627642    46A      0.644515
      47A      0.672198    48A      0.695752    49A      0.750543
      50A      0.773847    51A      0.811994    52A      0.846985
      53A      0.862587    54A      0.875148    55A      0.887180
      56A      0.891722    57A      0.893530    58A      0.897819
      59A      0.899788    60A      0.910665    61A      0.912920
      62A      0.915800    63A      0.923554    64A      0.941672
      65A      0.948538    66A      0.966273    67A      0.991694
      68A      0.997631    69A      1.095734    70A      1.114972
      71A      1.130233    72A      1.154705    73A      1.216839
      74A      1.234798    75A      1.409369    76A      1.447138
      77A      1.470176    78A      1.477750    79A      1.490492
      80A      1.536200    81A      1.574976    82A      1.659969
      83A      1.666911    84A      1.678741    85A      1.692438
      86A      1.700769    87A      1.716421    88A      1.828571
      89A      1.851966    90A      1.862088    91A      1.871099
      92A      1.881264    93A      1.901492    94A      1.922284
      95A      1.929007    96A      1.943742    97A      1.946895
      98A      1.949588    99A      1.951566   100A      1.957857
     101A      1.962877   102A      1.979184   103A      2.002028
     104A      2.010386   105A      2.023778   106A      2.042973
     107A      2.069504   108A      2.097714   109A      2.114711
     110A      2.138673   111A      2.199636   112A      2.261449
     113A      2.301713   114A      2.311731   115A      2.323748
     116A      2.332883   117A      2.388449   118A      2.427949
     119A      2.454600   120A      2.476617   121A      2.526530
     122A      2.555119   123A      2.564053   124A      2.576644
     125A      2.626615   126A      2.652732   127A      2.760907
     128A      2.767470   129A      2.780043   130A      2.787799
     131A      2.792469   132A      2.835999   133A      2.850097
     134A      2.850814   135A      2.886994   136A      2.934487
     137A      2.941550   138A      2.957800   139A      2.973328
     140A      3.061905

    Final Occupation by Irrep:
              A
    DOCC [    22 ]

  @RHF Final Energy:  -197.49852614107988

   => Energetics <=

    Nuclear Repulsion Energy =            175.4720225308340389
    One-Electron Energy =                -611.7789532561533861
    Two-Electron Energy =                 238.8084045842394971
    Total Energy =                       -197.4985261410798785

Computation Completed

Properties will be evaluated at   0.000000,   0.000000,   0.000000 [a0]

Properties computed using the SCF density matrix

  Nuclear Dipole Moment: [e a0]
     X:     0.4314      Y:     0.8212      Z:     0.9841

  Electronic Dipole Moment: [e a0]
     X:    -0.4137      Y:    -0.8010      Z:    -0.9316

  Dipole Moment: [e a0]
     X:     0.0176      Y:     0.0203      Z:     0.0526     Total:     0.0590

  Dipole Moment: [D]
     X:     0.0448      Y:     0.0515      Z:     0.1336     Total:     0.1500

*** tstop() called on ds3 at Tue Apr 28 13:13:32 2020
Module time:
	user time   =      14.57 seconds =       0.24 minutes
	system time =       5.58 seconds =       0.09 minutes
	total time  =         49 seconds =       0.82 minutes
Total time:
	user time   =      14.57 seconds =       0.24 minutes
	system time =       5.58 seconds =       0.09 minutes
	total time  =         49 seconds =       0.82 minutes
                                     G D M A

                                 by Anthony Stone

                           version 2.2.06, 22 June 2011

               Distributed Multipoles from Gaussian wavefunctions

Starting at 13:13:32 on 28 Apr 2020

Using SCF density matrix from file ./SSI/SSI-035ARG-042VAL-1-dimer.test.15816.fchk

                         Distributed Multipole Analysis

Standard DMA

Positions and radii in angstrom
Multipole moments in atomic units, ea_0^k for rank k

C          x = -0.680529  y = -0.935315  z = -1.073633 angstrom
           Maximum rank =  0   Radius =  0.650 angstrom
                   Q00  =  -0.115061

C          x = -0.983529  y =  0.348685  z = -1.839633 angstrom
           Maximum rank =  0   Radius =  0.650 angstrom
                   Q00  =  -0.231684

C          x = -1.743529  y = -2.014315  z = -1.278633 angstrom
           Maximum rank =  0   Radius =  0.650 angstrom
                   Q00  =  -0.232437

H          x =  0.310471  y = -1.309315  z = -1.328633 angstrom
           Maximum rank =  0   Radius =  0.325 angstrom
                   Q00  =   0.050596

H          x = -0.672529  y = -0.683315  z = -0.013633 angstrom
           Maximum rank =  0   Radius =  0.325 angstrom
                   Q00  =   0.050554

H          x = -0.319529  y =  1.128685  z = -1.460633 angstrom
           Maximum rank =  0   Radius =  0.325 angstrom
                   Q00  =   0.080385

H          x = -2.006529  y =  0.650685  z = -1.611633 angstrom
           Maximum rank =  0   Radius =  0.325 angstrom
                   Q00  =   0.074273

H          x = -1.941529  y = -2.509315  z = -0.326633 angstrom
           Maximum rank =  0   Radius =  0.325 angstrom
                   Q00  =   0.085072

H          x = -2.683529  y = -1.557315  z = -1.592633 angstrom
           Maximum rank =  0   Radius =  0.325 angstrom
                   Q00  =   0.074006

H          x = -0.862862  y =  0.288705  z = -2.931348 angstrom
           Maximum rank =  0   Radius =  0.325 angstrom
                   Q00  =   0.079107

H          x = -1.416888  y = -2.747555  z = -2.030736 angstrom
           Maximum rank =  0   Radius =  0.325 angstrom
                   Q00  =   0.084894

C          x =  1.109471  y =  1.263685  z =  1.547367 angstrom
           Maximum rank =  0   Radius =  0.650 angstrom
                   Q00  =  -0.231710

C          x =  2.259471  y =  1.263685  z =  2.556367 angstrom
           Maximum rank =  0   Radius =  0.650 angstrom
                   Q00  =  -0.244363

H          x =  0.292471  y =  0.635685  z =  1.904367 angstrom
           Maximum rank =  0   Radius =  0.325 angstrom
                   Q00  =   0.078945

H          x =  0.730471  y =  2.276685  z =  1.426367 angstrom
           Maximum rank =  0   Radius =  0.325 angstrom
                   Q00  =   0.079391

H          x =  1.456471  y =  0.884685  z =  0.584367 angstrom
           Maximum rank =  0   Radius =  0.325 angstrom
                   Q00  =   0.079807

H          x =  1.882471  y =  1.626685  z =  3.511367 angstrom
           Maximum rank =  0   Radius =  0.325 angstrom
                   Q00  =   0.078257

H          x =  2.637993  y =  0.239535  z =  2.689917 angstrom
           Maximum rank =  0   Radius =  0.325 angstrom
                   Q00  =   0.079970

H          x =  3.053180  y =  1.951475  z =  2.229297 angstrom
           Maximum rank =  0   Radius =  0.325 angstrom
                   Q00  =   0.079998

Total multipoles referred to origin at
           x =   0.000000,  y =    0.000000,  z =    0.000000 angstrom
                   Q00  =  -0.000000

Finished at 13:13:32 on 28 Apr 2020

  DMA results are available in the Python driver through the
	  variable('DMA DISTRIBUTED MULTIPOLES')
  and
	  variable('DMA TOTAL MULTIPOLES')
  commands.

    Psi4 stopped on: Tuesday, 28 April 2020 01:13PM
    Psi4 wall time for execution: 0:00:48.63

*** Psi4 exiting successfully. Buy a developer a beer!
