                               Psi4 1.3.2 release

  ==> Input File <==

--------------------------------------------------------------------------
import numpy as np
set {scf_type pk
basis cc-pvdz
d_convergence 10
gdma_switch   0
gdma_limit    0
gdma_origin   [ 0.0,  0.0,  0.0 ]
}
molecule test {
    units Angstrom
    0 1
    --
    0 1
    C               -0.653672621706251     0.362076899860972    -0.676411363435840
    C               -2.135672621706250     0.343076899860972    -1.030411363435840
    C               -0.683672621706251     3.046076899860972     0.044588636564160
    S                0.167327378293749     1.908076899860972    -1.091411363435839
    H               -0.586672621706251     0.269076899860972     0.405588636564160
    H               -0.112672621706251    -0.467923100139028    -1.098411363435839
    H               -2.249672621706251     0.396076899860972    -2.113411363435840
    H               -2.615672621706250     1.219076899860972    -0.597411363435840
    H               -0.657672621706251     2.649076899860972     1.059588636564160
    H               -0.177672621706251     4.012076899860972     0.028588636564160
    H               -1.717672621706251     3.192076899860972    -0.266411363435840
    H               -2.654982621706251    -0.544493100139028    -0.639851363435840
    C                0.541327378293749    -2.477923100139028     1.188588636564160
    C                0.942327378293749    -2.988923100139028     2.575588636564161
    C                1.692327378293749    -2.482923100139029     0.184588636564160
    H               -0.284672621706251    -3.064923100139028     0.797588636564160
    H                0.216327378293749    -1.447923100139028     1.271588636564160
    H                1.794327378293749    -2.402923100139028     2.922588636564160
    H                2.055327378293749    -3.496923100139028     0.018588636564160
    H                1.337327378293749    -2.097923100139028    -0.768411363435840
    H                2.509327378293750    -1.855923100139028     0.544588636564160
    H                0.118267378293749    -2.855713100139028     3.291950636564160
    H                1.254947378293749    -4.043023100139028     2.541655636564160

}
e, wfn = energy('scf', return_wfn=True)
gdma(wfn)
dmavals = variable('DMA DISTRIBUTED MULTIPOLES')
charges = np.array(dmavals)
print(charges)
np.save('SSI-043MET-048ILE-1-dimer.npy', np.array(charges))--------------------------------------------------------------------------

*** tstart() called on ds3
*** at Mon Apr 27 12:52:22 2020

   => Loading Basis Set <=

    Name: CC-PVDZ
    Role: ORBITAL
    Keyword: BASIS
    atoms 1-3, 13-15  entry C          line   138 file /theoryfs2/ds/metcalf/miniconda2/envs/tf2gpu/share/psi4/basis/cc-pvdz.gbs
    atoms 4           entry S          line   598 file /theoryfs2/ds/metcalf/miniconda2/envs/tf2gpu/share/psi4/basis/cc-pvdz.gbs
    atoms 5-12, 16-23 entry H          line    22 file /theoryfs2/ds/metcalf/miniconda2/envs/tf2gpu/share/psi4/basis/cc-pvdz.gbs

         ---------------------------------------------------------
                                   SCF
               by Justin Turney, Rob Parrish, Andy Simmonett
                          and Daniel G. A. Smith
                              RHF Reference
                        1 Threads,    500 MiB Core
         ---------------------------------------------------------

  ==> Geometry <==

    Molecular point group: c1
    Full point group: C1

    Geometry (in Angstrom), charge = 0, multiplicity = 1:

       Center              X                  Y                   Z               Mass
    ------------   -----------------  -----------------  -----------------  -----------------
         C           -0.653672621706     0.362076899861    -0.676411363436    12.000000000000
         C           -2.135672621706     0.343076899861    -1.030411363436    12.000000000000
         C           -0.683672621706     3.046076899861     0.044588636564    12.000000000000
         S            0.167327378294     1.908076899861    -1.091411363436    31.972071174400
         H           -0.586672621706     0.269076899861     0.405588636564     1.007825032230
         H           -0.112672621706    -0.467923100139    -1.098411363436     1.007825032230
         H           -2.249672621706     0.396076899861    -2.113411363436     1.007825032230
         H           -2.615672621706     1.219076899861    -0.597411363436     1.007825032230
         H           -0.657672621706     2.649076899861     1.059588636564     1.007825032230
         H           -0.177672621706     4.012076899861     0.028588636564     1.007825032230
         H           -1.717672621706     3.192076899861    -0.266411363436     1.007825032230
         H           -2.654982621706    -0.544493100139    -0.639851363436     1.007825032230
         C            0.541327378294    -2.477923100139     1.188588636564    12.000000000000
         C            0.942327378294    -2.988923100139     2.575588636564    12.000000000000
         C            1.692327378294    -2.482923100139     0.184588636564    12.000000000000
         H           -0.284672621706    -3.064923100139     0.797588636564     1.007825032230
         H            0.216327378294    -1.447923100139     1.271588636564     1.007825032230
         H            1.794327378294    -2.402923100139     2.922588636564     1.007825032230
         H            2.055327378294    -3.496923100139     0.018588636564     1.007825032230
         H            1.337327378294    -2.097923100139    -0.768411363436     1.007825032230
         H            2.509327378294    -1.855923100139     0.544588636564     1.007825032230
         H            0.118267378294    -2.855713100139     3.291950636564     1.007825032230
         H            1.254947378294    -4.043023100139     2.541655636564     1.007825032230

  Running in c1 symmetry.

  Rotational constants: A =      0.09333  B =      0.02037  C =      0.01982 [cm^-1]
  Rotational constants: A =   2798.00871  B =    610.78549  C =    594.19273 [MHz]
  Nuclear repulsion =  368.560947925996231

  Charge       = 0
  Multiplicity = 1
  Electrons    = 68
  Nalpha       = 34
  Nbeta        = 34

  ==> Algorithm <==

  SCF Algorithm Type is PK.
  DIIS enabled.
  MOM disabled.
  Fractional occupation disabled.
  Guess Type is SAD.
  Energy threshold   = 1.00e-06
  Density threshold  = 1.00e-10
  Integral threshold = 0.00e+00

  ==> Primary Basis <==

  Basis Set: CC-PVDZ
    Blend: CC-PVDZ
    Number of shells: 92
    Number of basis function: 182
    Number of Cartesian functions: 189
    Spherical Harmonics?: true
    Max angular momentum: 2

  ==> Pre-Iterations <==

   -------------------------------------------------------
    Irrep   Nso     Nmo     Nalpha   Nbeta   Ndocc  Nsocc
   -------------------------------------------------------
     A        182     182       0       0       0       0
   -------------------------------------------------------
    Total     182     182      34      34      34       0
   -------------------------------------------------------

  ==> Integral Setup <==

  Using integral reordering PK algorithm.
  Sizing the integral batches needed.
  Building batch lookup table.
   Calculation information:
      Number of atoms:                  23
      Number of AO shells:              92
      Number of primitives:            262
      Number of atomic orbitals:       189
      Number of basis functions:       182

      Integral cutoff                 1.00e-12
      Number of threads:                 1

	Batch   1 pq = [       0,    9405] index = [             0,44231715] size =     44231715
	Batch   2 pq = [    9405,   13301] index = [      44231715,88464951] size =     44233236
	Batch   3 pq = [   13301,   16290] index = [      88464951,132690195] size =     44225244
	Batch   4 pq = [   16290,   16653] index = [     132690195,138669531] size =      5979336
  Task number: 13
  Buffer size: 11059200
  Buffer per thread: 2
  We computed 7423630 shell quartets total.
  Whereas there are 9152781 unique shell quartets.

  ==> DiskJK: Disk-Based J/K Matrices <==

    J tasked:                  Yes
    K tasked:                  Yes
    wK tasked:                  No
    Memory [MiB]:              375
    Schwarz Cutoff:          1E-12

    OpenMP threads:              1

  Minimum eigenvalue in the overlap matrix is 5.3304603176E-03.
  Using Symmetric Orthogonalization.

  SCF Guess: Superposition of Atomic Densities via on-the-fly atomic UHF.

  ==> Iterations <==

                        Total Energy        Delta E     RMS |[F,P]|

   @RHF iter SAD:  -632.96588769048572   -6.32966e+02   0.00000e+00
   @RHF iter   1:  -633.85079036997888   -8.84903e-01   3.00086e-03 DIIS
   @RHF iter   2:  -634.02917901556555   -1.78389e-01   1.23827e-03 DIIS
   @RHF iter   3:  -634.05718342203545   -2.80044e-02   2.86391e-04 DIIS
   @RHF iter   4:  -634.05989852501023   -2.71510e-03   5.18103e-05 DIIS
   @RHF iter   5:  -634.05996838671285   -6.98617e-05   1.38971e-05 DIIS
   @RHF iter   6:  -634.05997350222208   -5.11551e-06   3.09414e-06 DIIS
   @RHF iter   7:  -634.05997378545499   -2.83233e-07   7.73629e-07 DIIS
   @RHF iter   8:  -634.05997380560927   -2.01543e-08   2.53358e-07 DIIS
   @RHF iter   9:  -634.05997380807776   -2.46848e-09   7.29287e-08 DIIS
   @RHF iter  10:  -634.05997380834901   -2.71257e-10   1.83410e-08 DIIS
   @RHF iter  11:  -634.05997380836413   -1.51203e-11   4.81195e-09 DIIS
   @RHF iter  12:  -634.05997380836754   -3.41061e-12   1.59633e-09 DIIS
   @RHF iter  13:  -634.05997380836629    1.25056e-12   4.94405e-10 DIIS
   @RHF iter  14:  -634.05997380836777   -1.47793e-12   1.18547e-10 DIIS
   @RHF iter  15:  -634.05997380836743    3.41061e-13   3.72371e-11 DIIS
  Energy and wave function converged.

  ==> Post-Iterations <==

    Orbital Energies [Eh]
    ---------------------

    Doubly Occupied:

       1A    -91.933451     2A    -11.256944     3A    -11.254041
       4A    -11.227270     5A    -11.220416     6A    -11.219448
       7A    -11.216235     8A     -8.937163     9A     -6.619179
      10A     -6.617670    11A     -6.615464    12A     -1.082304
      13A     -1.055685    14A     -0.992278    15A     -0.926922
      16A     -0.889020    17A     -0.801212    18A     -0.785851
      19A     -0.635327    20A     -0.629138    21A     -0.606314
      22A     -0.596638    23A     -0.582926    24A     -0.559345
      25A     -0.551187    26A     -0.533695    27A     -0.531923
      28A     -0.508021    29A     -0.482019    30A     -0.473662
      31A     -0.472305    32A     -0.468875    33A     -0.418574
      34A     -0.330429

    Virtual:

      35A      0.168177    36A      0.181268    37A      0.198817
      38A      0.210357    39A      0.220012    40A      0.229417
      41A      0.241266    42A      0.244908    43A      0.247726
      44A      0.257965    45A      0.269820    46A      0.280992
      47A      0.285756    48A      0.301850    49A      0.304867
      50A      0.312570    51A      0.350133    52A      0.375105
      53A      0.380830    54A      0.404172    55A      0.422381
      56A      0.538925    57A      0.569854    58A      0.571219
      59A      0.584332    60A      0.585375    61A      0.603228
      62A      0.606487    63A      0.614389    64A      0.631582
      65A      0.643619    66A      0.664129    67A      0.698156
      68A      0.728584    69A      0.777017    70A      0.795427
      71A      0.801752    72A      0.811015    73A      0.828787
      74A      0.829839    75A      0.845579    76A      0.860682
      77A      0.872325    78A      0.880145    79A      0.883307
      80A      0.885145    81A      0.891659    82A      0.897023
      83A      0.898191    84A      0.905449    85A      0.913578
      86A      0.916287    87A      0.926656    88A      0.927727
      89A      0.931332    90A      0.956238    91A      0.964552
      92A      0.983708    93A      0.992825    94A      1.028115
      95A      1.036456    96A      1.065207    97A      1.126546
      98A      1.130698    99A      1.172742   100A      1.219179
     101A      1.247898   102A      1.274358   103A      1.309426
     104A      1.329620   105A      1.356382   106A      1.377294
     107A      1.426846   108A      1.461784   109A      1.475109
     110A      1.485799   111A      1.519397   112A      1.537003
     113A      1.605306   114A      1.636588   115A      1.658606
     116A      1.679622   117A      1.688630   118A      1.694812
     119A      1.696866   120A      1.706908   121A      1.849832
     122A      1.858695   123A      1.870769   124A      1.884448
     125A      1.885988   126A      1.893105   127A      1.896586
     128A      1.911042   129A      1.918033   130A      1.929744
     131A      1.933460   132A      1.944391   133A      1.946223
     134A      1.968890   135A      1.976903   136A      1.981539
     137A      1.983720   138A      1.996197   139A      2.005950
     140A      2.014961   141A      2.024254   142A      2.038731
     143A      2.042652   144A      2.060255   145A      2.103352
     146A      2.137912   147A      2.146341   148A      2.154510
     149A      2.218882   150A      2.242462   151A      2.296859
     152A      2.307358   153A      2.313269   154A      2.326943
     155A      2.334170   156A      2.349877   157A      2.418439
     158A      2.446926   159A      2.489999   160A      2.502048
     161A      2.533268   162A      2.556304   163A      2.577062
     164A      2.589148   165A      2.617648   166A      2.632452
     167A      2.752298   168A      2.754228   169A      2.769316
     170A      2.772073   171A      2.785939   172A      2.789626
     173A      2.799616   174A      2.827401   175A      2.834126
     176A      2.853681   177A      2.894538   178A      2.922889
     179A      2.976832   180A      2.981346   181A      3.042530
     182A      3.082373

    Final Occupation by Irrep:
              A
    DOCC [    34 ]

  @RHF Final Energy:  -634.05997380836743

   => Energetics <=

    Nuclear Repulsion Energy =            368.5609479259962313
    One-Electron Energy =               -1599.1799867332824761
    Two-Electron Energy =                 596.5590649989187568
    Total Energy =                       -634.0599738083674310

Computation Completed

Properties will be evaluated at   0.000000,   0.000000,   0.000000 [a0]

Properties computed using the SCF density matrix

  Nuclear Dipole Moment: [e a0]
     X:    -1.6563      Y:    -9.8308      Z:     6.9070

  Electronic Dipole Moment: [e a0]
     X:     1.1528      Y:     9.7179      Z:    -6.4543

  Dipole Moment: [e a0]
     X:    -0.5035      Y:    -0.1129      Z:     0.4527     Total:     0.6865

  Dipole Moment: [D]
     X:    -1.2798      Y:    -0.2871      Z:     1.1507     Total:     1.7448

*** tstop() called on ds3 at Mon Apr 27 12:53:52 2020
Module time:
	user time   =      67.80 seconds =       1.13 minutes
	system time =      24.95 seconds =       0.42 minutes
	total time  =         90 seconds =       1.50 minutes
Total time:
	user time   =      67.80 seconds =       1.13 minutes
	system time =      24.95 seconds =       0.42 minutes
	total time  =         90 seconds =       1.50 minutes
                                     G D M A

                                 by Anthony Stone

                           version 2.2.06, 22 June 2011

               Distributed Multipoles from Gaussian wavefunctions

Starting at 12:53:52 on 27 Apr 2020

Using SCF density matrix from file ./SSI/SSI-043MET-048ILE-1-dimer.test.4457.fchk

                         Distributed Multipole Analysis

Standard DMA

Positions and radii in angstrom
Multipole moments in atomic units, ea_0^k for rank k

C          x = -0.653673  y =  0.362077  z = -0.676411 angstrom
           Maximum rank =  0   Radius =  0.650 angstrom
                   Q00  =  -0.180421

C          x = -2.135673  y =  0.343077  z = -1.030411 angstrom
           Maximum rank =  0   Radius =  0.650 angstrom
                   Q00  =  -0.250656

C          x = -0.683673  y =  3.046077  z =  0.044589 angstrom
           Maximum rank =  0   Radius =  0.650 angstrom
                   Q00  =  -0.373850

S          x =  0.167327  y =  1.908077  z = -1.091411 angstrom
           Maximum rank =  0   Radius =  0.650 angstrom
                   Q00  =   0.112133

H          x = -0.586673  y =  0.269077  z =  0.405589 angstrom
           Maximum rank =  0   Radius =  0.325 angstrom
                   Q00  =   0.041264

H          x = -0.112673  y = -0.467923  z = -1.098411 angstrom
           Maximum rank =  0   Radius =  0.325 angstrom
                   Q00  =   0.097382

H          x = -2.249673  y =  0.396077  z = -2.113411 angstrom
           Maximum rank =  0   Radius =  0.325 angstrom
                   Q00  =   0.088075

H          x = -2.615673  y =  1.219077  z = -0.597411 angstrom
           Maximum rank =  0   Radius =  0.325 angstrom
                   Q00  =   0.080651

H          x = -0.657673  y =  2.649077  z =  1.059589 angstrom
           Maximum rank =  0   Radius =  0.325 angstrom
                   Q00  =   0.089168

H          x = -0.177673  y =  4.012077  z =  0.028589 angstrom
           Maximum rank =  0   Radius =  0.325 angstrom
                   Q00  =   0.123734

H          x = -1.717673  y =  3.192077  z = -0.266411 angstrom
           Maximum rank =  0   Radius =  0.325 angstrom
                   Q00  =   0.089214

H          x = -2.654983  y = -0.544493  z = -0.639851 angstrom
           Maximum rank =  0   Radius =  0.325 angstrom
                   Q00  =   0.088213

C          x =  0.541327  y = -2.477923  z =  1.188589 angstrom
           Maximum rank =  0   Radius =  0.650 angstrom
                   Q00  =  -0.077914

C          x =  0.942327  y = -2.988923  z =  2.575589 angstrom
           Maximum rank =  0   Radius =  0.650 angstrom
                   Q00  =  -0.241387

C          x =  1.692327  y = -2.482923  z =  0.184589 angstrom
           Maximum rank =  0   Radius =  0.650 angstrom
                   Q00  =  -0.254539

H          x = -0.284673  y = -3.064923  z =  0.797589 angstrom
           Maximum rank =  0   Radius =  0.325 angstrom
                   Q00  =   0.047951

H          x =  0.216327  y = -1.447923  z =  1.271589 angstrom
           Maximum rank =  0   Radius =  0.325 angstrom
                   Q00  =   0.042740

H          x =  1.794327  y = -2.402923  z =  2.922589 angstrom
           Maximum rank =  0   Radius =  0.325 angstrom
                   Q00  =   0.075931

H          x =  2.055327  y = -3.496923  z =  0.018589 angstrom
           Maximum rank =  0   Radius =  0.325 angstrom
                   Q00  =   0.077720

H          x =  1.337327  y = -2.097923  z = -0.768411 angstrom
           Maximum rank =  0   Radius =  0.325 angstrom
                   Q00  =   0.080534

H          x =  2.509327  y = -1.855923  z =  0.544589 angstrom
           Maximum rank =  0   Radius =  0.325 angstrom
                   Q00  =   0.081408

H          x =  0.118267  y = -2.855713  z =  3.291951 angstrom
           Maximum rank =  0   Radius =  0.325 angstrom
                   Q00  =   0.083979

H          x =  1.254947  y = -4.043023  z =  2.541656 angstrom
           Maximum rank =  0   Radius =  0.325 angstrom
                   Q00  =   0.078670

Total multipoles referred to origin at
           x =   0.000000,  y =    0.000000,  z =    0.000000 angstrom
                   Q00  =  -0.000000

Finished at 12:53:52 on 27 Apr 2020

  DMA results are available in the Python driver through the
	  variable('DMA DISTRIBUTED MULTIPOLES')
  and
	  variable('DMA TOTAL MULTIPOLES')
  commands.

    Psi4 stopped on: Monday, 27 April 2020 12:53PM
    Psi4 wall time for execution: 0:01:29.63

*** Psi4 exiting successfully. Buy a developer a beer!
