                               Psi4 1.3.2 release

  ==> Input File <==

--------------------------------------------------------------------------
import numpy as np
set {scf_type pk
basis cc-pvdz
d_convergence 10
gdma_switch   0
gdma_limit    0
gdma_origin   [ 0.0,  0.0,  0.0 ]
}
molecule test {
    units Angstrom
    0 1
    --
    0 1
    C                0.864616839551029    -0.926109992239190    -1.084419569468910
    C                1.549616839551029    -1.407109992239190    -2.357419569468910
    H                0.482616839551029    -1.777109992239190    -0.518419569468910
    H                1.570616839551029    -0.360109992239190    -0.474419569468910
    H                0.029616839551029    -0.278109992239190    -1.354419569468910
    H                1.872616839551029    -0.532109992239190    -2.924419569468910
    H                0.844186839551029    -1.990939992239190    -2.966929569468910
    H                2.444376839551029    -1.995919992239190    -2.107029569468911
    C               -0.839383160448971     0.894890007760810     1.109580430531090
    C               -1.575383160448971     1.428890007760810     2.337580430531090
    H               -0.795383160448971    -0.194109992239190     1.136580430531090
    H               -1.365383160448971     1.205890007760810     0.205580430531090
    H                0.174616839551029     1.297890007760810     1.080580430531090
    H               -1.631383160448971     2.516890007760810     2.254580430531090
    H               -1.014913160448971     1.177360007760810     3.250050430531090
    H               -2.605243160448971     1.042780007760810     2.354900430531090

}
e, wfn = energy('scf', return_wfn=True)
gdma(wfn)
dmavals = variable('DMA DISTRIBUTED MULTIPOLES')
charges = np.array(dmavals)
print(charges)
np.save('SSI-061ALA-080ALA-1-dimer.npy', np.array(charges))--------------------------------------------------------------------------

*** tstart() called on ds3
*** at Mon Apr 27 10:15:08 2020

   => Loading Basis Set <=

    Name: CC-PVDZ
    Role: ORBITAL
    Keyword: BASIS
    atoms 1-2, 9-10  entry C          line   138 file /theoryfs2/ds/metcalf/miniconda2/envs/tf2gpu/share/psi4/basis/cc-pvdz.gbs
    atoms 3-8, 11-16 entry H          line    22 file /theoryfs2/ds/metcalf/miniconda2/envs/tf2gpu/share/psi4/basis/cc-pvdz.gbs

         ---------------------------------------------------------
                                   SCF
               by Justin Turney, Rob Parrish, Andy Simmonett
                          and Daniel G. A. Smith
                              RHF Reference
                        1 Threads,    500 MiB Core
         ---------------------------------------------------------

  ==> Geometry <==

    Molecular point group: c1
    Full point group: C1

    Geometry (in Angstrom), charge = 0, multiplicity = 1:

       Center              X                  Y                   Z               Mass
    ------------   -----------------  -----------------  -----------------  -----------------
         C            0.864616839551    -0.926109992239    -1.084419569469    12.000000000000
         C            1.549616839551    -1.407109992239    -2.357419569469    12.000000000000
         H            0.482616839551    -1.777109992239    -0.518419569469     1.007825032230
         H            1.570616839551    -0.360109992239    -0.474419569469     1.007825032230
         H            0.029616839551    -0.278109992239    -1.354419569469     1.007825032230
         H            1.872616839551    -0.532109992239    -2.924419569469     1.007825032230
         H            0.844186839551    -1.990939992239    -2.966929569469     1.007825032230
         H            2.444376839551    -1.995919992239    -2.107029569469     1.007825032230
         C           -0.839383160449     0.894890007761     1.109580430531    12.000000000000
         C           -1.575383160449     1.428890007761     2.337580430531    12.000000000000
         H           -0.795383160449    -0.194109992239     1.136580430531     1.007825032230
         H           -1.365383160449     1.205890007761     0.205580430531     1.007825032230
         H            0.174616839551     1.297890007761     1.080580430531     1.007825032230
         H           -1.631383160449     2.516890007761     2.254580430531     1.007825032230
         H           -1.014913160449     1.177360007761     3.250050430531     1.007825032230
         H           -2.605243160449     1.042780007761     2.354900430531     1.007825032230

  Running in c1 symmetry.

  Rotational constants: A =      1.20146  B =      0.04258  C =      0.04248 [cm^-1]
  Rotational constants: A =  36018.92047  B =   1276.62541  C =   1273.38194 [MHz]
  Nuclear repulsion =  122.226591987831256

  Charge       = 0
  Multiplicity = 1
  Electrons    = 36
  Nalpha       = 18
  Nbeta        = 18

  ==> Algorithm <==

  SCF Algorithm Type is PK.
  DIIS enabled.
  MOM disabled.
  Fractional occupation disabled.
  Guess Type is SAD.
  Energy threshold   = 1.00e-06
  Density threshold  = 1.00e-10
  Integral threshold = 0.00e+00

  ==> Primary Basis <==

  Basis Set: CC-PVDZ
    Blend: CC-PVDZ
    Number of shells: 60
    Number of basis function: 116
    Number of Cartesian functions: 120
    Spherical Harmonics?: true
    Max angular momentum: 2

  ==> Pre-Iterations <==

   -------------------------------------------------------
    Irrep   Nso     Nmo     Nalpha   Nbeta   Ndocc  Nsocc
   -------------------------------------------------------
     A        116     116       0       0       0       0
   -------------------------------------------------------
    Total     116     116      18      18      18       0
   -------------------------------------------------------

  ==> Integral Setup <==

  Using integral reordering PK algorithm.
  Sizing the integral batches needed.
  Building batch lookup table.
   Calculation information:
      Number of atoms:                  16
      Number of AO shells:              60
      Number of primitives:            148
      Number of atomic orbitals:       120
      Number of basis functions:       116

      Integral cutoff                 1.00e-12
      Number of threads:                 1

	Batch   1 pq = [       0,    6786] index = [             0,23028291] size =     23028291
  Task number: 3
  Buffer size: 11059200
  Buffer per thread: 2
  We computed 1397858 shell quartets total.
  Whereas there are 1675365 unique shell quartets.

  ==> DiskJK: Disk-Based J/K Matrices <==

    J tasked:                  Yes
    K tasked:                  Yes
    wK tasked:                  No
    Memory [MiB]:              375
    Schwarz Cutoff:          1E-12

    OpenMP threads:              1

  Minimum eigenvalue in the overlap matrix is 5.1235446514E-03.
  Using Symmetric Orthogonalization.

  SCF Guess: Superposition of Atomic Densities via on-the-fly atomic UHF.

  ==> Iterations <==

                        Total Energy        Delta E     RMS |[F,P]|

   @RHF iter SAD:  -157.37689937511661   -1.57377e+02   0.00000e+00
   @RHF iter   1:  -158.30477166093064   -9.27872e-01   4.22201e-03 DIIS
   @RHF iter   2:  -158.43957402971637   -1.34802e-01   1.78864e-03 DIIS
   @RHF iter   3:  -158.46283974377263   -2.32657e-02   3.52527e-04 DIIS
   @RHF iter   4:  -158.46469608051999   -1.85634e-03   3.94494e-05 DIIS
   @RHF iter   5:  -158.46472023831177   -2.41578e-05   7.23316e-06 DIIS
   @RHF iter   6:  -158.46472097588907   -7.37577e-07   1.36968e-06 DIIS
   @RHF iter   7:  -158.46472099338797   -1.74989e-08   3.41026e-07 DIIS
   @RHF iter   8:  -158.46472099460169   -1.21372e-09   4.83822e-08 DIIS
   @RHF iter   9:  -158.46472099464518   -4.34852e-11   9.30420e-09 DIIS
   @RHF iter  10:  -158.46472099464580   -6.25278e-13   2.27602e-09 DIIS
   @RHF iter  11:  -158.46472099464660   -7.95808e-13   5.08951e-10 DIIS
   @RHF iter  12:  -158.46472099464685   -2.55795e-13   1.44884e-10 DIIS
   @RHF iter  13:  -158.46472099464668    1.70530e-13   2.75823e-11 DIIS
  Energy and wave function converged.

  ==> Post-Iterations <==

    Orbital Energies [Eh]
    ---------------------

    Doubly Occupied:

       1A    -11.218219     2A    -11.217527     3A    -11.215087
       4A    -11.214761     5A     -1.019837     6A     -1.015877
       7A     -0.840341     8A     -0.827579     9A     -0.601892
      10A     -0.598522    11A     -0.596237    12A     -0.593968
      13A     -0.508058    14A     -0.491750    15A     -0.489995
      16A     -0.483332    17A     -0.480138    18A     -0.478421

    Virtual:

      19A      0.177069    20A      0.194070    21A      0.224979
      22A      0.234539    23A      0.235458    24A      0.266685
      25A      0.268295    26A      0.278267    27A      0.279521
      28A      0.300783    29A      0.318497    30A      0.324306
      31A      0.379390    32A      0.426497    33A      0.568087
      34A      0.597003    35A      0.599160    36A      0.602042
      37A      0.606639    38A      0.649578    39A      0.662718
      40A      0.713771    41A      0.728005    42A      0.750653
      43A      0.857657    44A      0.886524    45A      0.886917
      46A      0.893633    47A      0.895097    48A      0.897783
      49A      0.899989    50A      0.912888    51A      0.917609
      52A      0.934104    53A      0.940553    54A      0.948989
      55A      0.972896    56A      1.026208    57A      1.125699
      58A      1.134764    59A      1.135051    60A      1.144009
      61A      1.208375    62A      1.313609    63A      1.474367
      64A      1.481716    65A      1.488565    66A      1.491161
      67A      1.578702    68A      1.592255    69A      1.676487
      70A      1.677853    71A      1.692185    72A      1.693041
      73A      1.832743    74A      1.847127    75A      1.879626
      76A      1.889018    77A      1.906883    78A      1.927434
      79A      1.933775    80A      1.937717    81A      1.945962
      82A      1.952468    83A      1.954312    84A      1.958765
      85A      1.967558    86A      1.972976    87A      2.055839
      88A      2.072286    89A      2.101249    90A      2.110002
      91A      2.118341    92A      2.124474    93A      2.296729
      94A      2.302524    95A      2.335255    96A      2.370708
      97A      2.455004    98A      2.464824    99A      2.467332
     100A      2.478721   101A      2.558129   102A      2.567373
     103A      2.571595   104A      2.584067   105A      2.759372
     106A      2.766963   107A      2.788670   108A      2.796896
     109A      2.835814   110A      2.847471   111A      2.850643
     112A      2.858834   113A      2.935762   114A      2.948774
     115A      2.960323   116A      2.971760

    Final Occupation by Irrep:
              A
    DOCC [    18 ]

  @RHF Final Energy:  -158.46472099464668

   => Energetics <=

    Nuclear Repulsion Energy =            122.2265919878312559
    One-Electron Energy =                -453.5995457536707249
    Two-Electron Energy =                 172.9082327711928144
    Total Energy =                       -158.4647209946466830

Computation Completed

Properties will be evaluated at   0.000000,   0.000000,   0.000000 [a0]

Properties computed using the SCF density matrix

  Nuclear Dipole Moment: [e a0]
     X:     0.0059      Y:     0.1054      Z:    -0.0594

  Electronic Dipole Moment: [e a0]
     X:    -0.0067      Y:    -0.0888      Z:     0.0524

  Dipole Moment: [e a0]
     X:    -0.0008      Y:     0.0166      Z:    -0.0070     Total:     0.0180

  Dipole Moment: [D]
     X:    -0.0020      Y:     0.0421      Z:    -0.0178     Total:     0.0457

*** tstop() called on ds3 at Mon Apr 27 10:15:54 2020
Module time:
	user time   =       7.07 seconds =       0.12 minutes
	system time =       2.58 seconds =       0.04 minutes
	total time  =         46 seconds =       0.77 minutes
Total time:
	user time   =       7.07 seconds =       0.12 minutes
	system time =       2.58 seconds =       0.04 minutes
	total time  =         46 seconds =       0.77 minutes
                                     G D M A

                                 by Anthony Stone

                           version 2.2.06, 22 June 2011

               Distributed Multipoles from Gaussian wavefunctions

Starting at 10:15:54 on 27 Apr 2020

Using SCF density matrix from file ./SSI/SSI-061ALA-080ALA-1-dimer.test.2459.fchk

                         Distributed Multipole Analysis

Standard DMA

Positions and radii in angstrom
Multipole moments in atomic units, ea_0^k for rank k

C          x =  0.864617  y = -0.926110  z = -1.084420 angstrom
           Maximum rank =  0   Radius =  0.650 angstrom
                   Q00  =  -0.239735

C          x =  1.549617  y = -1.407110  z = -2.357420 angstrom
           Maximum rank =  0   Radius =  0.650 angstrom
                   Q00  =  -0.228639

H          x =  0.482617  y = -1.777110  z = -0.518420 angstrom
           Maximum rank =  0   Radius =  0.325 angstrom
                   Q00  =   0.077255

H          x =  1.570617  y = -0.360110  z = -0.474420 angstrom
           Maximum rank =  0   Radius =  0.325 angstrom
                   Q00  =   0.078174

H          x =  0.029617  y = -0.278110  z = -1.354420 angstrom
           Maximum rank =  0   Radius =  0.325 angstrom
                   Q00  =   0.077275

H          x =  1.872617  y = -0.532110  z = -2.924420 angstrom
           Maximum rank =  0   Radius =  0.325 angstrom
                   Q00  =   0.077059

H          x =  0.844187  y = -1.990940  z = -2.966930 angstrom
           Maximum rank =  0   Radius =  0.325 angstrom
                   Q00  =   0.079530

H          x =  2.444377  y = -1.995920  z = -2.107030 angstrom
           Maximum rank =  0   Radius =  0.325 angstrom
                   Q00  =   0.078402

C          x = -0.839383  y =  0.894890  z =  1.109580 angstrom
           Maximum rank =  0   Radius =  0.650 angstrom
                   Q00  =  -0.230405

C          x = -1.575383  y =  1.428890  z =  2.337580 angstrom
           Maximum rank =  0   Radius =  0.650 angstrom
                   Q00  =  -0.239780

H          x = -0.795383  y = -0.194110  z =  1.136580 angstrom
           Maximum rank =  0   Radius =  0.325 angstrom
                   Q00  =   0.079077

H          x = -1.365383  y =  1.205890  z =  0.205580 angstrom
           Maximum rank =  0   Radius =  0.325 angstrom
                   Q00  =   0.076693

H          x =  0.174617  y =  1.297890  z =  1.080580 angstrom
           Maximum rank =  0   Radius =  0.325 angstrom
                   Q00  =   0.077862

H          x = -1.631383  y =  2.516890  z =  2.254580 angstrom
           Maximum rank =  0   Radius =  0.325 angstrom
                   Q00  =   0.077030

H          x = -1.014913  y =  1.177360  z =  3.250050 angstrom
           Maximum rank =  0   Radius =  0.325 angstrom
                   Q00  =   0.080308

H          x = -2.605243  y =  1.042780  z =  2.354900 angstrom
           Maximum rank =  0   Radius =  0.325 angstrom
                   Q00  =   0.079893

Total multipoles referred to origin at
           x =   0.000000,  y =    0.000000,  z =    0.000000 angstrom
                   Q00  =  -0.000000

Finished at 10:15:54 on 27 Apr 2020

  DMA results are available in the Python driver through the
	  variable('DMA DISTRIBUTED MULTIPOLES')
  and
	  variable('DMA TOTAL MULTIPOLES')
  commands.

    Psi4 stopped on: Monday, 27 April 2020 10:15AM
    Psi4 wall time for execution: 0:00:46.81

*** Psi4 exiting successfully. Buy a developer a beer!
