                               Psi4 1.3.2 release

  ==> Input File <==

--------------------------------------------------------------------------
import numpy as np
set {scf_type pk
basis cc-pvdz
d_convergence 10
gdma_switch   0
gdma_limit    0
gdma_origin   [ 0.0,  0.0,  0.0 ]
}
molecule test {
    units Angstrom
    0 1
    --
    0 1
    C               -1.774198521680565    -0.800070731708832    -0.273601279581046
    C               -2.132198521680565    -2.203070731708832    -0.762601279581046
    H               -0.975198521680565    -0.368070731708832    -0.875601279581046
    H               -2.649198521680565    -0.157070731708832    -0.361601279581046
    H               -1.476198521680565    -0.819070731708832     0.773398720418954
    H               -2.467198521680565    -2.126070731708832    -1.797601279581046
    H               -1.256758521680565    -2.867862731708832    -0.721899279581046
    H               -2.964058521680565    -2.615032731708832    -0.172435279581046
    C                1.321801478319435     1.484929268291168     0.090398720418954
    C                2.587801478319435     1.508929268291168     0.953398720418954
    H                0.439801478319435     1.280929268291168     0.696398720418954
    H                1.196801478319435     2.459929268291168    -0.379601279581046
    H                1.403801478319435     0.740929268291168    -0.700601279581046
    H                3.424801478319435     1.800929268291168     0.317398720418954
    H                2.802641478319435     0.519376268291168     1.383082320418954
    H                2.482591478319435     2.261615268291168     1.748631520418954

}
e, wfn = energy('scf', return_wfn=True)
gdma(wfn)
dmavals = variable('DMA DISTRIBUTED MULTIPOLES')
charges = np.array(dmavals)
print(charges)
np.save('SSI-003VAL-081THR-1-dimer.npy', np.array(charges))--------------------------------------------------------------------------

*** tstart() called on ds3
*** at Tue Apr 28 03:37:27 2020

   => Loading Basis Set <=

    Name: CC-PVDZ
    Role: ORBITAL
    Keyword: BASIS
    atoms 1-2, 9-10  entry C          line   138 file /theoryfs2/ds/metcalf/miniconda2/envs/tf2gpu/share/psi4/basis/cc-pvdz.gbs
    atoms 3-8, 11-16 entry H          line    22 file /theoryfs2/ds/metcalf/miniconda2/envs/tf2gpu/share/psi4/basis/cc-pvdz.gbs

         ---------------------------------------------------------
                                   SCF
               by Justin Turney, Rob Parrish, Andy Simmonett
                          and Daniel G. A. Smith
                              RHF Reference
                        1 Threads,    500 MiB Core
         ---------------------------------------------------------

  ==> Geometry <==

    Molecular point group: c1
    Full point group: C1

    Geometry (in Angstrom), charge = 0, multiplicity = 1:

       Center              X                  Y                   Z               Mass
    ------------   -----------------  -----------------  -----------------  -----------------
         C           -1.774198521681    -0.800070731709    -0.273601279581    12.000000000000
         C           -2.132198521681    -2.203070731709    -0.762601279581    12.000000000000
         H           -0.975198521681    -0.368070731709    -0.875601279581     1.007825032230
         H           -2.649198521681    -0.157070731709    -0.361601279581     1.007825032230
         H           -1.476198521681    -0.819070731709     0.773398720419     1.007825032230
         H           -2.467198521681    -2.126070731709    -1.797601279581     1.007825032230
         H           -1.256758521681    -2.867862731709    -0.721899279581     1.007825032230
         H           -2.964058521681    -2.615032731709    -0.172435279581     1.007825032230
         C            1.321801478319     1.484929268291     0.090398720419    12.000000000000
         C            2.587801478319     1.508929268291     0.953398720419    12.000000000000
         H            0.439801478319     1.280929268291     0.696398720419     1.007825032230
         H            1.196801478319     2.459929268291    -0.379601279581     1.007825032230
         H            1.403801478319     0.740929268291    -0.700601279581     1.007825032230
         H            3.424801478319     1.800929268291     0.317398720419     1.007825032230
         H            2.802641478319     0.519376268291     1.383082320419     1.007825032230
         H            2.482591478319     2.261615268291     1.748631520419     1.007825032230

  Running in c1 symmetry.

  Rotational constants: A =      0.61996  B =      0.04015  C =      0.03935 [cm^-1]
  Rotational constants: A =  18586.07400  B =   1203.57474  C =   1179.60610 [MHz]
  Nuclear repulsion =  119.295590096607313

  Charge       = 0
  Multiplicity = 1
  Electrons    = 36
  Nalpha       = 18
  Nbeta        = 18

  ==> Algorithm <==

  SCF Algorithm Type is PK.
  DIIS enabled.
  MOM disabled.
  Fractional occupation disabled.
  Guess Type is SAD.
  Energy threshold   = 1.00e-06
  Density threshold  = 1.00e-10
  Integral threshold = 0.00e+00

  ==> Primary Basis <==

  Basis Set: CC-PVDZ
    Blend: CC-PVDZ
    Number of shells: 60
    Number of basis function: 116
    Number of Cartesian functions: 120
    Spherical Harmonics?: true
    Max angular momentum: 2

  ==> Pre-Iterations <==

   -------------------------------------------------------
    Irrep   Nso     Nmo     Nalpha   Nbeta   Ndocc  Nsocc
   -------------------------------------------------------
     A        116     116       0       0       0       0
   -------------------------------------------------------
    Total     116     116      18      18      18       0
   -------------------------------------------------------

  ==> Integral Setup <==

  Using integral reordering PK algorithm.
  Sizing the integral batches needed.
  Building batch lookup table.
   Calculation information:
      Number of atoms:                  16
      Number of AO shells:              60
      Number of primitives:            148
      Number of atomic orbitals:       120
      Number of basis functions:       116

      Integral cutoff                 1.00e-12
      Number of threads:                 1

	Batch   1 pq = [       0,    6786] index = [             0,23028291] size =     23028291
  Task number: 3
  Buffer size: 11059200
  Buffer per thread: 2
  We computed 1325305 shell quartets total.
  Whereas there are 1675365 unique shell quartets.

  ==> DiskJK: Disk-Based J/K Matrices <==

    J tasked:                  Yes
    K tasked:                  Yes
    wK tasked:                  No
    Memory [MiB]:              375
    Schwarz Cutoff:          1E-12

    OpenMP threads:              1

  Minimum eigenvalue in the overlap matrix is 6.7386063099E-03.
  Using Symmetric Orthogonalization.

  SCF Guess: Superposition of Atomic Densities via on-the-fly atomic UHF.

  ==> Iterations <==

                        Total Energy        Delta E     RMS |[F,P]|

   @RHF iter SAD:  -157.33411638111693   -1.57334e+02   0.00000e+00
   @RHF iter   1:  -158.30882863471305   -9.74712e-01   4.20781e-03 DIIS
   @RHF iter   2:  -158.44183553780252   -1.33007e-01   1.79808e-03 DIIS
   @RHF iter   3:  -158.46527996700019   -2.34444e-02   3.49576e-04 DIIS
   @RHF iter   4:  -158.46711149845606   -1.83153e-03   3.89938e-05 DIIS
   @RHF iter   5:  -158.46713534414630   -2.38457e-05   6.73686e-06 DIIS
   @RHF iter   6:  -158.46713599996775   -6.55821e-07   1.21730e-06 DIIS
   @RHF iter   7:  -158.46713601392079   -1.39530e-08   3.21691e-07 DIIS
   @RHF iter   8:  -158.46713601487932   -9.58522e-10   3.96545e-08 DIIS
   @RHF iter   9:  -158.46713601490563   -2.63185e-11   7.21778e-09 DIIS
   @RHF iter  10:  -158.46713601490694   -1.30740e-12   1.97446e-09 DIIS
   @RHF iter  11:  -158.46713601490637    5.68434e-13   4.96859e-10 DIIS
   @RHF iter  12:  -158.46713601490706   -6.82121e-13   1.26327e-10 DIIS
   @RHF iter  13:  -158.46713601490643    6.25278e-13   2.08957e-11 DIIS
  Energy and wave function converged.

  ==> Post-Iterations <==

    Orbital Energies [Eh]
    ---------------------

    Doubly Occupied:

       1A    -11.219681     2A    -11.219146     3A    -11.216371
       4A    -11.215667     5A     -1.018123     6A     -1.016412
       7A     -0.839288     8A     -0.834486     9A     -0.599601
      10A     -0.597969    11A     -0.595940    12A     -0.594417
      13A     -0.504671    14A     -0.497309    15A     -0.488933
      16A     -0.486545    17A     -0.483379    18A     -0.480739

    Virtual:

      19A      0.176175    20A      0.194383    21A      0.224154
      22A      0.230143    23A      0.249969    24A      0.254195
      25A      0.265380    26A      0.274930    27A      0.282722
      28A      0.286422    29A      0.302918    30A      0.326643
      31A      0.403976    32A      0.408738    33A      0.580855
      34A      0.594262    35A      0.598090    36A      0.598308
      37A      0.605226    38A      0.642487    39A      0.656101
      40A      0.684596    41A      0.686994    42A      0.783454
      43A      0.838495    44A      0.866689    45A      0.890481
      46A      0.893252    47A      0.893399    48A      0.894738
      49A      0.897488    50A      0.898837    51A      0.914350
      52A      0.917796    53A      0.918827    54A      0.951900
      55A      0.980839    56A      0.984580    57A      1.124836
      58A      1.126323    59A      1.130520    60A      1.151776
      61A      1.234671    62A      1.242542    63A      1.462641
      64A      1.470592    65A      1.476219    66A      1.484065
      67A      1.564314    68A      1.587412    69A      1.680624
      70A      1.681611    71A      1.695576    72A      1.698784
      73A      1.845826    74A      1.863707    75A      1.868860
      76A      1.881756    77A      1.885703    78A      1.919369
      79A      1.931894    80A      1.940905    81A      1.944236
      82A      1.947366    83A      1.950654    84A      1.954378
      85A      1.960547    86A      1.971624    87A      1.982335
      88A      2.003731    89A      2.090158    90A      2.095640
      91A      2.114640    92A      2.118549    93A      2.294996
      94A      2.309745    95A      2.314662    96A      2.322465
      97A      2.449351    98A      2.452570    99A      2.460342
     100A      2.484688   101A      2.555137   102A      2.561840
     103A      2.569226   104A      2.570909   105A      2.757449
     106A      2.760347   107A      2.783900   108A      2.791523
     109A      2.847363   110A      2.853623   111A      2.856908
     112A      2.865466   113A      2.940839   114A      2.945433
     115A      2.951865   116A      2.989041

    Final Occupation by Irrep:
              A
    DOCC [    18 ]

  @RHF Final Energy:  -158.46713601490643

   => Energetics <=

    Nuclear Repulsion Energy =            119.2955900966073131
    One-Electron Energy =                -447.7080962348392177
    Two-Electron Energy =                 169.9453701233254606
    Total Energy =                       -158.4671360149064299

Computation Completed

Properties will be evaluated at   0.000000,   0.000000,   0.000000 [a0]

Properties computed using the SCF density matrix

  Nuclear Dipole Moment: [e a0]
     X:    -0.0358      Y:     0.1036      Z:    -0.0848

  Electronic Dipole Moment: [e a0]
     X:     0.0312      Y:    -0.0811      Z:     0.0686

  Dipole Moment: [e a0]
     X:    -0.0046      Y:     0.0225      Z:    -0.0162     Total:     0.0281

  Dipole Moment: [D]
     X:    -0.0117      Y:     0.0572      Z:    -0.0412     Total:     0.0715

*** tstop() called on ds3 at Tue Apr 28 03:37:38 2020
Module time:
	user time   =       7.65 seconds =       0.13 minutes
	system time =       3.28 seconds =       0.05 minutes
	total time  =         11 seconds =       0.18 minutes
Total time:
	user time   =       7.65 seconds =       0.13 minutes
	system time =       3.28 seconds =       0.05 minutes
	total time  =         11 seconds =       0.18 minutes
                                     G D M A

                                 by Anthony Stone

                           version 2.2.06, 22 June 2011

               Distributed Multipoles from Gaussian wavefunctions

Starting at 3:37:38 on 28 Apr 2020

Using SCF density matrix from file ./SSI/SSI-003VAL-081THR-1-dimer.test.28052.fchk

                         Distributed Multipole Analysis

Standard DMA

Positions and radii in angstrom
Multipole moments in atomic units, ea_0^k for rank k

C          x = -1.774199  y = -0.800071  z = -0.273601 angstrom
           Maximum rank =  0   Radius =  0.650 angstrom
                   Q00  =  -0.243988

C          x = -2.132199  y = -2.203071  z = -0.762601 angstrom
           Maximum rank =  0   Radius =  0.650 angstrom
                   Q00  =  -0.232285

H          x = -0.975199  y = -0.368071  z = -0.875601 angstrom
           Maximum rank =  0   Radius =  0.325 angstrom
                   Q00  =   0.084320

H          x = -2.649199  y = -0.157071  z = -0.361601 angstrom
           Maximum rank =  0   Radius =  0.325 angstrom
                   Q00  =   0.077352

H          x = -1.476199  y = -0.819071  z =  0.773399 angstrom
           Maximum rank =  0   Radius =  0.325 angstrom
                   Q00  =   0.077605

H          x = -2.467199  y = -2.126071  z = -1.797601 angstrom
           Maximum rank =  0   Radius =  0.325 angstrom
                   Q00  =   0.077466

H          x = -1.256759  y = -2.867863  z = -0.721899 angstrom
           Maximum rank =  0   Radius =  0.325 angstrom
                   Q00  =   0.079492

H          x = -2.964059  y = -2.615033  z = -0.172435 angstrom
           Maximum rank =  0   Radius =  0.325 angstrom
                   Q00  =   0.079611

C          x =  1.321801  y =  1.484929  z =  0.090399 angstrom
           Maximum rank =  0   Radius =  0.650 angstrom
                   Q00  =  -0.243195

C          x =  2.587801  y =  1.508929  z =  0.953399 angstrom
           Maximum rank =  0   Radius =  0.650 angstrom
                   Q00  =  -0.233520

H          x =  0.439801  y =  1.280929  z =  0.696399 angstrom
           Maximum rank =  0   Radius =  0.325 angstrom
                   Q00  =   0.083037

H          x =  1.196801  y =  2.459929  z = -0.379601 angstrom
           Maximum rank =  0   Radius =  0.325 angstrom
                   Q00  =   0.077872

H          x =  1.403801  y =  0.740929  z = -0.700601 angstrom
           Maximum rank =  0   Radius =  0.325 angstrom
                   Q00  =   0.078753

H          x =  3.424801  y =  1.800929  z =  0.317399 angstrom
           Maximum rank =  0   Radius =  0.325 angstrom
                   Q00  =   0.077664

H          x =  2.802641  y =  0.519376  z =  1.383082 angstrom
           Maximum rank =  0   Radius =  0.325 angstrom
                   Q00  =   0.080242

H          x =  2.482591  y =  2.261615  z =  1.748632 angstrom
           Maximum rank =  0   Radius =  0.325 angstrom
                   Q00  =   0.079575

Total multipoles referred to origin at
           x =   0.000000,  y =    0.000000,  z =    0.000000 angstrom
                   Q00  =  -0.000000

Finished at 3:37:38 on 28 Apr 2020

  DMA results are available in the Python driver through the
	  variable('DMA DISTRIBUTED MULTIPOLES')
  and
	  variable('DMA TOTAL MULTIPOLES')
  commands.

    Psi4 stopped on: Tuesday, 28 April 2020 03:37AM
    Psi4 wall time for execution: 0:00:10.78

*** Psi4 exiting successfully. Buy a developer a beer!
