                               Psi4 1.3.2 release

  ==> Input File <==

--------------------------------------------------------------------------
import numpy as np
set {scf_type pk
basis cc-pvdz
d_convergence 10
gdma_switch   0
gdma_limit    0
gdma_origin   [ 0.0,  0.0,  0.0 ]
}
molecule test {
    units Angstrom
    0 1
    --
    0 1
    C                1.496961356299588     3.179860054535528     1.323713673491872
    C               -0.601038643700412     0.065860054535528    -0.813286326508127
    C               -1.324038643700412     1.008860054535528    -0.087286326508128
    C                0.796961356299588     0.136860054535528    -0.848286326508128
    C               -0.646038643700412     2.025860054535527     0.595713673491872
    C                1.465961356299588     1.149860054535528    -0.150286326508128
    C                0.753961356299588     2.096860054535528     0.573713673491872
    H               -1.116038643700412    -0.714139945464472    -1.357286326508128
    H               -2.403038643700412     0.967860054535528    -0.056286326508128
    H                1.359961356299588    -0.594139945464472    -1.411286326508127
    H               -1.217038643700412     2.766860054535528     1.135713673491872
    H                2.546961356299588     1.191860054535528    -0.179286326508128
    H                0.857961356299588     4.062860054535528     1.349713673491872
    H                2.388961356299588     3.460860054535528     0.765713673491872
    H                1.771781356299588     2.912160054535528     2.354643673491872
    C               -0.814038643700412    -3.615139945464473    -0.063286326508128
    C               -1.013038643700412    -5.046139945464472    -0.584286326508128
    H                0.150961356299588    -3.227139945464472    -0.391286326508128
    H               -1.598038643700412    -2.976139945464472    -0.459286326508128
    H               -0.867038643700412    -3.603139945464472     1.022713673491872
    H               -1.916038643700412    -5.450139945464472    -0.126286326508128
    H               -0.163388643700412    -5.699549945464472    -0.337006326508128
    H               -1.173018643700412    -5.037529945464472    -1.672556326508128

}
e, wfn = energy('scf', return_wfn=True)
gdma(wfn)
dmavals = variable('DMA DISTRIBUTED MULTIPOLES')
charges = np.array(dmavals)
print(charges)
np.save('SSI-042PHE-061LEU-1-dimer.npy', np.array(charges))--------------------------------------------------------------------------

*** tstart() called on ds3
*** at Sun Apr 26 17:22:38 2020

   => Loading Basis Set <=

    Name: CC-PVDZ
    Role: ORBITAL
    Keyword: BASIS
    atoms 1-7, 16-17  entry C          line   138 file /theoryfs2/ds/metcalf/miniconda2/envs/tf2gpu/share/psi4/basis/cc-pvdz.gbs
    atoms 8-15, 18-23 entry H          line    22 file /theoryfs2/ds/metcalf/miniconda2/envs/tf2gpu/share/psi4/basis/cc-pvdz.gbs

         ---------------------------------------------------------
                                   SCF
               by Justin Turney, Rob Parrish, Andy Simmonett
                          and Daniel G. A. Smith
                              RHF Reference
                        1 Threads,    500 MiB Core
         ---------------------------------------------------------

  ==> Geometry <==

    Molecular point group: c1
    Full point group: C1

    Geometry (in Angstrom), charge = 0, multiplicity = 1:

       Center              X                  Y                   Z               Mass
    ------------   -----------------  -----------------  -----------------  -----------------
         C            1.496961356300     3.179860054536     1.323713673492    12.000000000000
         C           -0.601038643700     0.065860054536    -0.813286326508    12.000000000000
         C           -1.324038643700     1.008860054536    -0.087286326508    12.000000000000
         C            0.796961356300     0.136860054536    -0.848286326508    12.000000000000
         C           -0.646038643700     2.025860054536     0.595713673492    12.000000000000
         C            1.465961356300     1.149860054536    -0.150286326508    12.000000000000
         C            0.753961356300     2.096860054536     0.573713673492    12.000000000000
         H           -1.116038643700    -0.714139945464    -1.357286326508     1.007825032230
         H           -2.403038643700     0.967860054536    -0.056286326508     1.007825032230
         H            1.359961356300    -0.594139945464    -1.411286326508     1.007825032230
         H           -1.217038643700     2.766860054536     1.135713673492     1.007825032230
         H            2.546961356300     1.191860054536    -0.179286326508     1.007825032230
         H            0.857961356300     4.062860054536     1.349713673492     1.007825032230
         H            2.388961356300     3.460860054536     0.765713673492     1.007825032230
         H            1.771781356300     2.912160054536     2.354643673492     1.007825032230
         C           -0.814038643700    -3.615139945464    -0.063286326508    12.000000000000
         C           -1.013038643700    -5.046139945464    -0.584286326508    12.000000000000
         H            0.150961356300    -3.227139945464    -0.391286326508     1.007825032230
         H           -1.598038643700    -2.976139945464    -0.459286326508     1.007825032230
         H           -0.867038643700    -3.603139945464     1.022713673492     1.007825032230
         H           -1.916038643700    -5.450139945464    -0.126286326508     1.007825032230
         H           -0.163388643700    -5.699549945464    -0.337006326508     1.007825032230
         H           -1.173018643700    -5.037529945464    -1.672556326508     1.007825032230

  Running in c1 symmetry.

  Rotational constants: A =      0.11642  B =      0.01681  C =      0.01590 [cm^-1]
  Rotational constants: A =   3490.16820  B =    503.97988  C =    476.73004 [MHz]
  Nuclear repulsion =  394.531052871075246

  Charge       = 0
  Multiplicity = 1
  Electrons    = 68
  Nalpha       = 34
  Nbeta        = 34

  ==> Algorithm <==

  SCF Algorithm Type is PK.
  DIIS enabled.
  MOM disabled.
  Fractional occupation disabled.
  Guess Type is SAD.
  Energy threshold   = 1.00e-06
  Density threshold  = 1.00e-10
  Integral threshold = 0.00e+00

  ==> Primary Basis <==

  Basis Set: CC-PVDZ
    Blend: CC-PVDZ
    Number of shells: 96
    Number of basis function: 196
    Number of Cartesian functions: 205
    Spherical Harmonics?: true
    Max angular momentum: 2

  ==> Pre-Iterations <==

   -------------------------------------------------------
    Irrep   Nso     Nmo     Nalpha   Nbeta   Ndocc  Nsocc
   -------------------------------------------------------
     A        196     196       0       0       0       0
   -------------------------------------------------------
    Total     196     196      34      34      34       0
   -------------------------------------------------------

  ==> Integral Setup <==

  Using integral reordering PK algorithm.
  Sizing the integral batches needed.
  Building batch lookup table.
   Calculation information:
      Number of atoms:                  23
      Number of AO shells:              96
      Number of primitives:            268
      Number of atomic orbitals:       205
      Number of basis functions:       196

      Integral cutoff                 1.00e-12
      Number of threads:                 1

	Batch   1 pq = [       0,    9405] index = [             0,44231715] size =     44231715
	Batch   2 pq = [    9405,   13301] index = [      44231715,88464951] size =     44233236
	Batch   3 pq = [   13301,   16290] index = [      88464951,132690195] size =     44225244
	Batch   4 pq = [   16290,   18810] index = [     132690195,176917455] size =     44227260
	Batch   5 pq = [   18810,   19306] index = [     176917455,186370471] size =      9453016
  Task number: 17
  Buffer size: 11059200
  Buffer per thread: 2
  We computed 8083774 shell quartets total.
  Whereas there are 10841496 unique shell quartets.

  ==> DiskJK: Disk-Based J/K Matrices <==

    J tasked:                  Yes
    K tasked:                  Yes
    wK tasked:                  No
    Memory [MiB]:              375
    Schwarz Cutoff:          1E-12

    OpenMP threads:              1

  Minimum eigenvalue in the overlap matrix is 3.1878810835E-04.
  Using Symmetric Orthogonalization.

  SCF Guess: Superposition of Atomic Densities via on-the-fly atomic UHF.

  ==> Iterations <==

                        Total Energy        Delta E     RMS |[F,P]|

   @RHF iter SAD:  -347.78697888629040   -3.47787e+02   0.00000e+00
   @RHF iter   1:  -348.76977347841080   -9.82795e-01   2.87387e-03 DIIS
   @RHF iter   2:  -348.96050945060148   -1.90736e-01   1.18630e-03 DIIS
   @RHF iter   3:  -348.99005223829636   -2.95428e-02   2.57532e-04 DIIS
   @RHF iter   4:  -348.99250534388523   -2.45311e-03   5.50198e-05 DIIS
   @RHF iter   5:  -348.99258265589651   -7.73120e-05   1.90240e-05 DIIS
   @RHF iter   6:  -348.99259140783050   -8.75193e-06   4.90088e-06 DIIS
   @RHF iter   7:  -348.99259208618611   -6.78356e-07   1.19494e-06 DIIS
   @RHF iter   8:  -348.99259213339343   -4.72073e-08   2.99537e-07 DIIS
   @RHF iter   9:  -348.99259213858977   -5.19634e-09   1.29994e-07 DIIS
   @RHF iter  10:  -348.99259213968145   -1.09168e-09   6.15295e-08 DIIS
   @RHF iter  11:  -348.99259214010465   -4.23199e-10   2.41951e-08 DIIS
   @RHF iter  12:  -348.99259214017110   -6.64500e-11   1.03234e-08 DIIS
   @RHF iter  13:  -348.99259214017877   -7.67386e-12   3.92867e-09 DIIS
   @RHF iter  14:  -348.99259214017911   -3.41061e-13   9.85133e-10 DIIS
   @RHF iter  15:  -348.99259214018116   -2.04636e-12   3.53821e-10 DIIS
   @RHF iter  16:  -348.99259214018082    3.41061e-13   8.21167e-11 DIIS
  Energy and wave function converged.

  ==> Post-Iterations <==

    Orbital Energies [Eh]
    ---------------------

    Doubly Occupied:

       1A    -11.240925     2A    -11.236582     3A    -11.236174
       4A    -11.232174     5A    -11.231988     6A    -11.230489
       7A    -11.229341     8A    -11.218324     9A    -11.215009
      10A     -1.149020    11A     -1.041960    12A     -1.015087
      13A     -1.008502    14A     -0.929981    15A     -0.836356
      16A     -0.823759    17A     -0.794145    18A     -0.689077
      19A     -0.630521    20A     -0.628213    21A     -0.596077
      22A     -0.595622    23A     -0.581015    24A     -0.576623
      25A     -0.561186    26A     -0.533019    27A     -0.498458
      28A     -0.487144    29A     -0.485421    30A     -0.484851
      31A     -0.481695    32A     -0.478863    33A     -0.330158
      34A     -0.321116

    Virtual:

      35A      0.134215    36A      0.140458    37A      0.174154
      38A      0.191705    39A      0.206868    40A      0.213315
      41A      0.233637    42A      0.240652    43A      0.249993
      44A      0.258059    45A      0.268608    46A      0.279195
      47A      0.285944    48A      0.292667    49A      0.304912
      50A      0.329415    51A      0.365592    52A      0.378024
      53A      0.395058    54A      0.451146    55A      0.465941
      56A      0.480038    57A      0.489476    58A      0.561859
      59A      0.586902    60A      0.597276    61A      0.597436
      62A      0.609953    63A      0.639669    64A      0.676066
      65A      0.678564    66A      0.690382    67A      0.693488
      68A      0.712573    69A      0.718644    70A      0.738703
      71A      0.742854    72A      0.747134    73A      0.756323
      74A      0.763425    75A      0.776108    76A      0.798098
      77A      0.833360    78A      0.839029    79A      0.862836
      80A      0.874336    81A      0.878789    82A      0.890809
      83A      0.892864    84A      0.894782    85A      0.899103
      86A      0.902797    87A      0.909443    88A      0.917780
      89A      0.924649    90A      0.937039    91A      0.941779
      92A      0.971332    93A      0.979226    94A      0.995173
      95A      1.011378    96A      1.050465    97A      1.111216
      98A      1.123105    99A      1.135311   100A      1.143781
     101A      1.152278   102A      1.155003   103A      1.184161
     104A      1.224436   105A      1.239061   106A      1.248367
     107A      1.252197   108A      1.267886   109A      1.295510
     110A      1.308759   111A      1.316471   112A      1.330022
     113A      1.413779   114A      1.468133   115A      1.482956
     116A      1.508239   117A      1.517138   118A      1.552658
     119A      1.578941   120A      1.600032   121A      1.677569
     122A      1.684774   123A      1.696664   124A      1.702099
     125A      1.734118   126A      1.746665   127A      1.761321
     128A      1.788257   129A      1.805281   130A      1.852939
     131A      1.864256   132A      1.876236   133A      1.882263
     134A      1.886802   135A      1.899927   136A      1.910121
     137A      1.912670   138A      1.928165   139A      1.936320
     140A      1.942455   141A      1.946987   142A      1.949106
     143A      1.954279   144A      1.961423   145A      1.969096
     146A      1.983623   147A      1.989127   148A      1.997254
     149A      2.042892   150A      2.061510   151A      2.064721
     152A      2.101886   153A      2.107815   154A      2.126546
     155A      2.143114   156A      2.150769   157A      2.159659
     158A      2.171781   159A      2.178483   160A      2.254376
     161A      2.273540   162A      2.290334   163A      2.299905
     164A      2.302532   165A      2.307026   166A      2.312220
     167A      2.336087   168A      2.446228   169A      2.462413
     170A      2.466092   171A      2.478910   172A      2.489683
     173A      2.535065   174A      2.563350   175A      2.580443
     176A      2.615268   177A      2.737922   178A      2.751244
     179A      2.759887   180A      2.767610   181A      2.785193
     182A      2.794662   183A      2.805972   184A      2.848340
     185A      2.850194   186A      2.858234   187A      2.872008
     188A      2.946600   189A      2.966743   190A      2.974088
     191A      3.000928   192A      3.016104   193A      3.145193
     194A      3.192506   195A      3.284451   196A      3.949264

    Final Occupation by Irrep:
              A
    DOCC [    34 ]

  @RHF Final Energy:  -348.99259214018082

   => Energetics <=

    Nuclear Repulsion Energy =            394.5310528710752465
    One-Electron Energy =               -1251.7895349421114588
    Two-Electron Energy =                 508.2658899308554510
    Total Energy =                       -348.9925921401808182

Computation Completed

Properties will be evaluated at   0.000000,   0.000000,   0.000000 [a0]

Properties computed using the SCF density matrix

  Nuclear Dipole Moment: [e a0]
     X:    -1.2909      Y:   -11.1929      Z:     0.5980

  Electronic Dipole Moment: [e a0]
     X:     1.3442      Y:    11.3036      Z:    -0.5237

  Dipole Moment: [e a0]
     X:     0.0533      Y:     0.1107      Z:     0.0744     Total:     0.1436

  Dipole Moment: [D]
     X:     0.1354      Y:     0.2814      Z:     0.1891     Total:     0.3650

*** tstop() called on ds3 at Sun Apr 26 17:24:30 2020
Module time:
	user time   =      83.93 seconds =       1.40 minutes
	system time =      32.90 seconds =       0.55 minutes
	total time  =        112 seconds =       1.87 minutes
Total time:
	user time   =      83.93 seconds =       1.40 minutes
	system time =      32.90 seconds =       0.55 minutes
	total time  =        112 seconds =       1.87 minutes
                                     G D M A

                                 by Anthony Stone

                           version 2.2.06, 22 June 2011

               Distributed Multipoles from Gaussian wavefunctions

Starting at 17:24:30 on 26 Apr 2020

Using SCF density matrix from file ./SSI/SSI-042PHE-061LEU-1-dimer.test.18324.fchk

                         Distributed Multipole Analysis

Standard DMA

Positions and radii in angstrom
Multipole moments in atomic units, ea_0^k for rank k

C          x =  1.496961  y =  3.179860  z =  1.323714 angstrom
           Maximum rank =  0   Radius =  0.650 angstrom
                   Q00  =  -0.204986

C          x = -0.601039  y =  0.065860  z = -0.813286 angstrom
           Maximum rank =  0   Radius =  0.650 angstrom
                   Q00  =  -0.084697

C          x = -1.324039  y =  1.008860  z = -0.087286 angstrom
           Maximum rank =  0   Radius =  0.650 angstrom
                   Q00  =  -0.069706

C          x =  0.796961  y =  0.136860  z = -0.848286 angstrom
           Maximum rank =  0   Radius =  0.650 angstrom
                   Q00  =  -0.065686

C          x = -0.646039  y =  2.025860  z =  0.595714 angstrom
           Maximum rank =  0   Radius =  0.650 angstrom
                   Q00  =  -0.000628

C          x =  1.465961  y =  1.149860  z = -0.150286 angstrom
           Maximum rank =  0   Radius =  0.650 angstrom
                   Q00  =  -0.087031

C          x =  0.753961  y =  2.096860  z =  0.573714 angstrom
           Maximum rank =  0   Radius =  0.650 angstrom
                   Q00  =  -0.099384

H          x = -1.116039  y = -0.714140  z = -1.357286 angstrom
           Maximum rank =  0   Radius =  0.325 angstrom
                   Q00  =   0.063531

H          x = -2.403039  y =  0.967860  z = -0.056286 angstrom
           Maximum rank =  0   Radius =  0.325 angstrom
                   Q00  =   0.066006

H          x =  1.359961  y = -0.594140  z = -1.411286 angstrom
           Maximum rank =  0   Radius =  0.325 angstrom
                   Q00  =   0.065768

H          x = -1.217039  y =  2.766860  z =  1.135714 angstrom
           Maximum rank =  0   Radius =  0.325 angstrom
                   Q00  =   0.058130

H          x =  2.546961  y =  1.191860  z = -0.179286 angstrom
           Maximum rank =  0   Radius =  0.325 angstrom
                   Q00  =   0.057008

H          x =  0.857961  y =  4.062860  z =  1.349714 angstrom
           Maximum rank =  0   Radius =  0.325 angstrom
                   Q00  =   0.096449

H          x =  2.388961  y =  3.460860  z =  0.765714 angstrom
           Maximum rank =  0   Radius =  0.325 angstrom
                   Q00  =   0.098942

H          x =  1.771781  y =  2.912160  z =  2.354644 angstrom
           Maximum rank =  0   Radius =  0.325 angstrom
                   Q00  =   0.106225

C          x = -0.814039  y = -3.615140  z = -0.063286 angstrom
           Maximum rank =  0   Radius =  0.650 angstrom
                   Q00  =  -0.228087

C          x = -1.013039  y = -5.046140  z = -0.584286 angstrom
           Maximum rank =  0   Radius =  0.650 angstrom
                   Q00  =  -0.244312

H          x =  0.150961  y = -3.227140  z = -0.391286 angstrom
           Maximum rank =  0   Radius =  0.325 angstrom
                   Q00  =   0.078248

H          x = -1.598039  y = -2.976140  z = -0.459286 angstrom
           Maximum rank =  0   Radius =  0.325 angstrom
                   Q00  =   0.075705

H          x = -0.867039  y = -3.603140  z =  1.022714 angstrom
           Maximum rank =  0   Radius =  0.325 angstrom
                   Q00  =   0.083365

H          x = -1.916039  y = -5.450140  z = -0.126286 angstrom
           Maximum rank =  0   Radius =  0.325 angstrom
                   Q00  =   0.077305

H          x = -0.163389  y = -5.699550  z = -0.337006 angstrom
           Maximum rank =  0   Radius =  0.325 angstrom
                   Q00  =   0.081327

H          x = -1.173019  y = -5.037530  z = -1.672556 angstrom
           Maximum rank =  0   Radius =  0.325 angstrom
                   Q00  =   0.076511

Total multipoles referred to origin at
           x =   0.000000,  y =    0.000000,  z =    0.000000 angstrom
                   Q00  =  -0.000000

Finished at 17:24:30 on 26 Apr 2020

  DMA results are available in the Python driver through the
	  variable('DMA DISTRIBUTED MULTIPOLES')
  and
	  variable('DMA TOTAL MULTIPOLES')
  commands.

    Psi4 stopped on: Sunday, 26 April 2020 05:24PM
    Psi4 wall time for execution: 0:01:52.46

*** Psi4 exiting successfully. Buy a developer a beer!
