                               Psi4 1.3.2 release

  ==> Input File <==

--------------------------------------------------------------------------
import numpy as np
set {scf_type pk
basis cc-pvdz
d_convergence 10
gdma_switch   0
gdma_limit    0
gdma_origin   [ 0.0,  0.0,  0.0 ]
}
molecule test {
    units Angstrom
    0 1
    --
    0 1
    C                1.654823170605309     0.590618184611523     3.214731356987889
    C                2.839823170605309     1.107618184611524     2.391731356987889
    O                3.707823170605309     1.844618184611524     2.880731356987889
    N                2.853823170605308     0.749618184611524     1.113731356987889
    H                3.565823170605309     1.135618184611524     0.503731356987889
    H                2.125823170605309     0.149618184611524     0.745731356987889
    H                1.376823170605309    -0.404381815388476     2.864731356987889
    H                0.811823170605309     1.241618184611524     3.005731356987889
    H                1.858963170605309     0.563928184611523     4.295293356987888
    C               -4.091176829394692     0.083618184611524    -2.544268643012111
    C               -0.302176829394691    -0.895381815388476    -0.713268643012111
    C               -0.536176829394692    -1.229381815388476    -2.036268643012111
    C               -1.282176829394691    -0.256381815388476     0.013731356987889
    C               -1.784176829394692    -0.922381815388476    -2.615268643012111
    C               -2.518176829394692     0.018618184611524    -0.564268643012111
    C               -2.788176829394692    -0.287381815388476    -1.885268643012111
    O                0.915823170605309    -1.109381815388476    -0.135268643012111
    H                1.507823170605309    -1.569381815388476    -0.745268643012111
    H                0.234823170605309    -1.704381815388476    -2.627268643012111
    H               -1.091176829394692     0.018618184611524     1.041731356987889
    H               -1.950176829394691    -1.159381815388476    -3.656268643012111
    H               -3.277176829394691     0.503618184611524     0.031731356987889
    H               -4.785176829394691     0.450618184611524    -1.786268643012111
    H               -4.519176829394691    -0.823381815388476    -2.953268643012111
    H               -4.021176829394691     0.831498184611524    -3.347868643012111

}
e, wfn = energy('scf', return_wfn=True)
gdma(wfn)
dmavals = variable('DMA DISTRIBUTED MULTIPOLES')
charges = np.array(dmavals)
print(charges)
np.save('SSI-024ASN-058TYR-1-dimer.npy', np.array(charges))--------------------------------------------------------------------------

*** tstart() called on ds3
*** at Mon Apr 27 07:33:18 2020

   => Loading Basis Set <=

    Name: CC-PVDZ
    Role: ORBITAL
    Keyword: BASIS
    atoms 1-2, 10-16 entry C          line   138 file /theoryfs2/ds/metcalf/miniconda2/envs/tf2gpu/share/psi4/basis/cc-pvdz.gbs
    atoms 3, 17      entry O          line   198 file /theoryfs2/ds/metcalf/miniconda2/envs/tf2gpu/share/psi4/basis/cc-pvdz.gbs
    atoms 4          entry N          line   168 file /theoryfs2/ds/metcalf/miniconda2/envs/tf2gpu/share/psi4/basis/cc-pvdz.gbs
    atoms 5-9, 18-25 entry H          line    22 file /theoryfs2/ds/metcalf/miniconda2/envs/tf2gpu/share/psi4/basis/cc-pvdz.gbs

         ---------------------------------------------------------
                                   SCF
               by Justin Turney, Rob Parrish, Andy Simmonett
                          and Daniel G. A. Smith
                              RHF Reference
                        1 Threads,    500 MiB Core
         ---------------------------------------------------------

  ==> Geometry <==

    Molecular point group: c1
    Full point group: C1

    Geometry (in Angstrom), charge = 0, multiplicity = 1:

       Center              X                  Y                   Z               Mass
    ------------   -----------------  -----------------  -----------------  -----------------
         C            1.654823170605     0.590618184612     3.214731356988    12.000000000000
         C            2.839823170605     1.107618184612     2.391731356988    12.000000000000
         O            3.707823170605     1.844618184612     2.880731356988    15.994914619570
         N            2.853823170605     0.749618184612     1.113731356988    14.003074004430
         H            3.565823170605     1.135618184612     0.503731356988     1.007825032230
         H            2.125823170605     0.149618184612     0.745731356988     1.007825032230
         H            1.376823170605    -0.404381815388     2.864731356988     1.007825032230
         H            0.811823170605     1.241618184612     3.005731356988     1.007825032230
         H            1.858963170605     0.563928184612     4.295293356988     1.007825032230
         C           -4.091176829395     0.083618184612    -2.544268643012    12.000000000000
         C           -0.302176829395    -0.895381815388    -0.713268643012    12.000000000000
         C           -0.536176829395    -1.229381815388    -2.036268643012    12.000000000000
         C           -1.282176829395    -0.256381815388     0.013731356988    12.000000000000
         C           -1.784176829395    -0.922381815388    -2.615268643012    12.000000000000
         C           -2.518176829395     0.018618184612    -0.564268643012    12.000000000000
         C           -2.788176829395    -0.287381815388    -1.885268643012    12.000000000000
         O            0.915823170605    -1.109381815388    -0.135268643012    15.994914619570
         H            1.507823170605    -1.569381815388    -0.745268643012     1.007825032230
         H            0.234823170605    -1.704381815388    -2.627268643012     1.007825032230
         H           -1.091176829395     0.018618184612     1.041731356988     1.007825032230
         H           -1.950176829395    -1.159381815388    -3.656268643012     1.007825032230
         H           -3.277176829395     0.503618184612     0.031731356988     1.007825032230
         H           -4.785176829395     0.450618184612    -1.786268643012     1.007825032230
         H           -4.519176829395    -0.823381815388    -2.953268643012     1.007825032230
         H           -4.021176829395     0.831498184612    -3.347868643012     1.007825032230

  Running in c1 symmetry.

  Rotational constants: A =      0.07575  B =      0.01003  C =      0.00937 [cm^-1]
  Rotational constants: A =   2270.78229  B =    300.60785  C =    280.94697 [MHz]
  Nuclear repulsion =  640.654047257478169

  Charge       = 0
  Multiplicity = 1
  Electrons    = 90
  Nalpha       = 45
  Nbeta        = 45

  ==> Algorithm <==

  SCF Algorithm Type is PK.
  DIIS enabled.
  MOM disabled.
  Fractional occupation disabled.
  Guess Type is SAD.
  Energy threshold   = 1.00e-06
  Density threshold  = 1.00e-10
  Integral threshold = 0.00e+00

  ==> Primary Basis <==

  Basis Set: CC-PVDZ
    Blend: CC-PVDZ
    Number of shells: 111
    Number of basis function: 233
    Number of Cartesian functions: 245
    Spherical Harmonics?: true
    Max angular momentum: 2

  ==> Pre-Iterations <==

   -------------------------------------------------------
    Irrep   Nso     Nmo     Nalpha   Nbeta   Ndocc  Nsocc
   -------------------------------------------------------
     A        233     233       0       0       0       0
   -------------------------------------------------------
    Total     233     233      45      45      45       0
   -------------------------------------------------------

  ==> Integral Setup <==

  Using integral reordering PK algorithm.
  Sizing the integral batches needed.
  Building batch lookup table.
   Calculation information:
      Number of atoms:                  25
      Number of AO shells:             111
      Number of primitives:            329
      Number of atomic orbitals:       245
      Number of basis functions:       233

      Integral cutoff                 1.00e-12
      Number of threads:                 1

	Batch   1 pq = [       0,    9405] index = [             0,44231715] size =     44231715
	Batch   2 pq = [    9405,   13301] index = [      44231715,88464951] size =     44233236
	Batch   3 pq = [   13301,   16290] index = [      88464951,132690195] size =     44225244
	Batch   4 pq = [   16290,   18810] index = [     132690195,176917455] size =     44227260
	Batch   5 pq = [   18810,   21030] index = [     176917455,221140965] size =     44223510
	Batch   6 pq = [   21030,   23037] index = [     221140965,265363203] size =     44222238
	Batch   7 pq = [   23037,   24883] index = [     265363203,309594286] size =     44231083
	Batch   8 pq = [   24883,   26601] index = [     309594286,353819901] size =     44225615
	Batch   9 pq = [   26601,   27261] index = [     353819901,371594691] size =     17774790
  Task number: 34
  Buffer size: 11059200
  Buffer per thread: 2
  We computed 15433409 shell quartets total.
  Whereas there are 19322436 unique shell quartets.

  ==> DiskJK: Disk-Based J/K Matrices <==

    J tasked:                  Yes
    K tasked:                  Yes
    wK tasked:                  No
    Memory [MiB]:              375
    Schwarz Cutoff:          1E-12

    OpenMP threads:              1

  Minimum eigenvalue in the overlap matrix is 3.0784977862E-04.
  Using Symmetric Orthogonalization.

  SCF Guess: Superposition of Atomic Densities via on-the-fly atomic UHF.

  ==> Iterations <==

                        Total Energy        Delta E     RMS |[F,P]|

   @RHF iter SAD:  -551.28883625239109   -5.51289e+02   0.00000e+00
   @RHF iter   1:  -552.29907569396096   -1.01024e+00   3.20859e-03 DIIS
   @RHF iter   2:  -552.55300091080733   -2.53925e-01   1.69432e-03 DIIS
   @RHF iter   3:  -552.61455780040637   -6.15569e-02   3.97460e-04 DIIS
   @RHF iter   4:  -552.61945905766061   -4.90126e-03   1.57106e-04 DIIS
   @RHF iter   5:  -552.62026447702635   -8.05419e-04   2.37609e-05 DIIS
   @RHF iter   6:  -552.62030220598581   -3.77290e-05   1.10998e-05 DIIS
   @RHF iter   7:  -552.62030860190589   -6.39592e-06   4.06788e-06 DIIS
   @RHF iter   8:  -552.62030992061955   -1.31871e-06   1.58709e-06 DIIS
   @RHF iter   9:  -552.62031009539783   -1.74778e-07   6.15925e-07 DIIS
   @RHF iter  10:  -552.62031012087505   -2.54772e-08   2.09244e-07 DIIS
   @RHF iter  11:  -552.62031012421812   -3.34308e-09   5.94933e-08 DIIS
   @RHF iter  12:  -552.62031012452917   -3.11047e-10   2.90529e-08 DIIS
   @RHF iter  13:  -552.62031012459556   -6.63931e-11   1.25310e-08 DIIS
   @RHF iter  14:  -552.62031012461682   -2.12594e-11   6.19275e-09 DIIS
   @RHF iter  15:  -552.62031012462171   -4.88853e-12   2.52395e-09 DIIS
   @RHF iter  16:  -552.62031012462376   -2.04636e-12   7.95997e-10 DIIS
   @RHF iter  17:  -552.62031012462739   -3.63798e-12   2.93886e-10 DIIS
   @RHF iter  18:  -552.62031012462489    2.50111e-12   8.54997e-11 DIIS
  Energy and wave function converged.

  ==> Post-Iterations <==

    Orbital Energies [Eh]
    ---------------------

    Doubly Occupied:

       1A    -20.616463     2A    -20.487554     3A    -15.566437
       4A    -11.334312     5A    -11.315331     6A    -11.254564
       7A    -11.252049     8A    -11.250430     9A    -11.247455
      10A    -11.244422    11A    -11.238670    12A    -11.231519
      13A     -1.431204    14A     -1.344223    15A     -1.196265
      16A     -1.168255    17A     -1.056317    18A     -1.030801
      19A     -0.983977    20A     -0.943747    21A     -0.863836
      22A     -0.820534    23A     -0.782010    24A     -0.752483
      25A     -0.715336    26A     -0.683321    27A     -0.657352
      28A     -0.636074    29A     -0.625314    30A     -0.613298
      31A     -0.599095    32A     -0.596867    33A     -0.592226
      34A     -0.582816    35A     -0.549316    36A     -0.546765
      37A     -0.541073    38A     -0.513511    39A     -0.505820
      40A     -0.501329    41A     -0.485206    42A     -0.393182
      43A     -0.384585    44A     -0.350870    45A     -0.323424

    Virtual:

      46A      0.114106    47A      0.142519    48A      0.155167
      49A      0.173707    50A      0.183271    51A      0.203262
      52A      0.217830    53A      0.220086    54A      0.227611
      55A      0.255969    56A      0.261042    57A      0.264905
      58A      0.273668    59A      0.287608    60A      0.306428
      61A      0.328127    62A      0.359192    63A      0.364855
      64A      0.398029    65A      0.422385    66A      0.441257
      67A      0.470243    68A      0.476281    69A      0.481458
      70A      0.502144    71A      0.576250    72A      0.597935
      73A      0.614238    74A      0.630591    75A      0.643132
      76A      0.653321    77A      0.657642    78A      0.671720
      79A      0.688092    80A      0.696771    81A      0.710525
      82A      0.717588    83A      0.724026    84A      0.728306
      85A      0.745990    86A      0.746630    87A      0.752939
      88A      0.766025    89A      0.769286    90A      0.777047
      91A      0.783712    92A      0.810249    93A      0.834857
      94A      0.842316    95A      0.864734    96A      0.871731
      97A      0.878495    98A      0.879252    99A      0.886728
     100A      0.894563   101A      0.901332   102A      0.918170
     103A      0.923136   104A      0.925577   105A      0.930180
     106A      0.937951   107A      0.969482   108A      1.010275
     109A      1.028716   110A      1.032840   111A      1.041665
     112A      1.052067   113A      1.105320   114A      1.111272
     115A      1.137177   116A      1.140487   117A      1.147371
     118A      1.158709   119A      1.191837   120A      1.207202
     121A      1.222828   122A      1.235119   123A      1.260128
     124A      1.272593   125A      1.289047   126A      1.295443
     127A      1.312304   128A      1.325034   129A      1.350295
     130A      1.363541   131A      1.367595   132A      1.375678
     133A      1.394981   134A      1.416616   135A      1.454204
     136A      1.464560   137A      1.486337   138A      1.506510
     139A      1.521126   140A      1.538152   141A      1.552335
     142A      1.611911   143A      1.621922   144A      1.664310
     145A      1.667786   146A      1.675609   147A      1.679883
     148A      1.712199   149A      1.730125   150A      1.737755
     151A      1.772429   152A      1.785658   153A      1.793732
     154A      1.817631   155A      1.848704   156A      1.873370
     157A      1.882986   158A      1.889543   159A      1.893840
     160A      1.898787   161A      1.914036   162A      1.918297
     163A      1.927809   164A      1.936065   165A      1.938292
     166A      1.947070   167A      1.957774   168A      1.981912
     169A      1.996813   170A      1.999907   171A      2.010582
     172A      2.038779   173A      2.049693   174A      2.052152
     175A      2.062054   176A      2.066664   177A      2.115127
     178A      2.138206   179A      2.150064   180A      2.170994
     181A      2.181242   182A      2.195924   183A      2.212338
     184A      2.251750   185A      2.256955   186A      2.277122
     187A      2.290012   188A      2.292869   189A      2.346019
     190A      2.359352   191A      2.387015   192A      2.418214
     193A      2.436468   194A      2.461000   195A      2.465455
     196A      2.491209   197A      2.515510   198A      2.520041
     199A      2.541347   200A      2.580927   201A      2.603189
     202A      2.624856   203A      2.629246   204A      2.666444
     205A      2.727751   206A      2.735849   207A      2.761555
     208A      2.766450   209A      2.781780   210A      2.802873
     211A      2.819725   212A      2.848235   213A      2.875581
     214A      2.887165   215A      2.945659   216A      2.997159
     217A      3.002326   218A      3.078574   219A      3.103681
     220A      3.114010   221A      3.146178   222A      3.222455
     223A      3.270198   224A      3.298507   225A      3.349192
     226A      3.512163   227A      3.536603   228A      3.583201
     229A      3.664479   230A      3.862247   231A      3.907040
     232A      3.938623   233A      4.173360

    Final Occupation by Irrep:
              A
    DOCC [    45 ]

  @RHF Final Energy:  -552.62031012462489

   => Energetics <=

    Nuclear Repulsion Energy =            640.6540472574781688
    One-Electron Energy =               -2022.9294468281020727
    Two-Electron Energy =                 829.6550894459990104
    Total Energy =                       -552.6203101246248934

Computation Completed

Properties will be evaluated at   0.000000,   0.000000,   0.000000 [a0]

Properties computed using the SCF density matrix

  Nuclear Dipole Moment: [e a0]
     X:    -7.6378      Y:    -0.7165      Z:    -2.4533

  Electronic Dipole Moment: [e a0]
     X:     6.1769      Y:    -0.5367      Z:     0.6266

  Dipole Moment: [e a0]
     X:    -1.4609      Y:    -1.2532      Z:    -1.8266     Total:     2.6536

  Dipole Moment: [D]
     X:    -3.7133      Y:    -3.1853      Z:    -4.6428     Total:     6.7447

*** tstop() called on ds3 at Mon Apr 27 07:37:05 2020
Module time:
	user time   =     127.20 seconds =       2.12 minutes
	system time =      57.77 seconds =       0.96 minutes
	total time  =        227 seconds =       3.78 minutes
Total time:
	user time   =     127.20 seconds =       2.12 minutes
	system time =      57.77 seconds =       0.96 minutes
	total time  =        227 seconds =       3.78 minutes
                                     G D M A

                                 by Anthony Stone

                           version 2.2.06, 22 June 2011

               Distributed Multipoles from Gaussian wavefunctions

Starting at 7:37:5 on 27 Apr 2020

Using SCF density matrix from file ./SSI/SSI-024ASN-058TYR-1-dimer.test.24293.fchk

                         Distributed Multipole Analysis

Standard DMA

Positions and radii in angstrom
Multipole moments in atomic units, ea_0^k for rank k

C          x =  1.654823  y =  0.590618  z =  3.214731 angstrom
           Maximum rank =  0   Radius =  0.650 angstrom
                   Q00  =  -0.265093

C          x =  2.839823  y =  1.107618  z =  2.391731 angstrom
           Maximum rank =  0   Radius =  0.650 angstrom
                   Q00  =   0.811700

O          x =  3.707823  y =  1.844618  z =  2.880731 angstrom
           Maximum rank =  0   Radius =  0.650 angstrom
                   Q00  =  -0.810085

N          x =  2.853823  y =  0.749618  z =  1.113731 angstrom
           Maximum rank =  0   Radius =  0.650 angstrom
                   Q00  =  -0.541757

H          x =  3.565823  y =  1.135618  z =  0.503731 angstrom
           Maximum rank =  0   Radius =  0.325 angstrom
                   Q00  =   0.210231

H          x =  2.125823  y =  0.149618  z =  0.745731 angstrom
           Maximum rank =  0   Radius =  0.325 angstrom
                   Q00  =   0.246619

H          x =  1.376823  y = -0.404382  z =  2.864731 angstrom
           Maximum rank =  0   Radius =  0.325 angstrom
                   Q00  =   0.091211

H          x =  0.811823  y =  1.241618  z =  3.005731 angstrom
           Maximum rank =  0   Radius =  0.325 angstrom
                   Q00  =   0.119999

H          x =  1.858963  y =  0.563928  z =  4.295293 angstrom
           Maximum rank =  0   Radius =  0.325 angstrom
                   Q00  =   0.126575

C          x = -4.091177  y =  0.083618  z = -2.544269 angstrom
           Maximum rank =  0   Radius =  0.650 angstrom
                   Q00  =  -0.207063

C          x = -0.302177  y = -0.895382  z = -0.713269 angstrom
           Maximum rank =  0   Radius =  0.650 angstrom
                   Q00  =   0.274416

C          x = -0.536177  y = -1.229382  z = -2.036269 angstrom
           Maximum rank =  0   Radius =  0.650 angstrom
                   Q00  =  -0.186330

C          x = -1.282177  y = -0.256382  z =  0.013731 angstrom
           Maximum rank =  0   Radius =  0.650 angstrom
                   Q00  =  -0.099061

C          x = -1.784177  y = -0.922382  z = -2.615269 angstrom
           Maximum rank =  0   Radius =  0.650 angstrom
                   Q00  =  -0.026590

C          x = -2.518177  y =  0.018618  z = -0.564269 angstrom
           Maximum rank =  0   Radius =  0.650 angstrom
                   Q00  =   0.040268

C          x = -2.788177  y = -0.287382  z = -1.885269 angstrom
           Maximum rank =  0   Radius =  0.650 angstrom
                   Q00  =  -0.122131

O          x =  0.915823  y = -1.109382  z = -0.135269 angstrom
           Maximum rank =  0   Radius =  0.650 angstrom
                   Q00  =  -0.680851

H          x =  1.507823  y = -1.569382  z = -0.745269 angstrom
           Maximum rank =  0   Radius =  0.325 angstrom
                   Q00  =   0.412879

H          x =  0.234823  y = -1.704382  z = -2.627269 angstrom
           Maximum rank =  0   Radius =  0.325 angstrom
                   Q00  =   0.077025

H          x = -1.091177  y =  0.018618  z =  1.041731 angstrom
           Maximum rank =  0   Radius =  0.325 angstrom
                   Q00  =   0.082514

H          x = -1.950177  y = -1.159382  z = -3.656269 angstrom
           Maximum rank =  0   Radius =  0.325 angstrom
                   Q00  =   0.070797

H          x = -3.277177  y =  0.503618  z =  0.031731 angstrom
           Maximum rank =  0   Radius =  0.325 angstrom
                   Q00  =   0.067527

H          x = -4.785177  y =  0.450618  z = -1.786269 angstrom
           Maximum rank =  0   Radius =  0.325 angstrom
                   Q00  =   0.099819

H          x = -4.519177  y = -0.823382  z = -2.953269 angstrom
           Maximum rank =  0   Radius =  0.325 angstrom
                   Q00  =   0.102140

H          x = -4.021177  y =  0.831498  z = -3.347869 angstrom
           Maximum rank =  0   Radius =  0.325 angstrom
                   Q00  =   0.105241

Total multipoles referred to origin at
           x =   0.000000,  y =    0.000000,  z =    0.000000 angstrom
                   Q00  =  -0.000000

Finished at 7:37:5 on 27 Apr 2020

  DMA results are available in the Python driver through the
	  variable('DMA DISTRIBUTED MULTIPOLES')
  and
	  variable('DMA TOTAL MULTIPOLES')
  commands.

    Psi4 stopped on: Monday, 27 April 2020 07:37AM
    Psi4 wall time for execution: 0:03:46.89

*** Psi4 exiting successfully. Buy a developer a beer!
