                               Psi4 1.3.2 release

  ==> Input File <==

--------------------------------------------------------------------------
import numpy as np
set {scf_type pk
basis cc-pvdz
d_convergence 10
gdma_switch   0
gdma_limit    0
gdma_origin   [ 0.0,  0.0,  0.0 ]
}
molecule test {
    units Angstrom
    0 1
    --
    0 1
    C               -0.337521055649771    -0.079167293512447    -4.851096445235255
    C                2.007478944350229    -1.082167293512448    -1.376096445235255
    C                2.363478944350229     0.007832706487553    -2.178096445235254
    C                0.871478944350229    -1.842167293512448    -1.693096445235255
    C                1.585478944350229     0.330832706487553    -3.288096445235255
    C                0.098478944350229    -1.507167293512448    -2.804096445235255
    C                0.459478944350229    -0.424167293512447    -3.617096445235255
    H                2.604478944350229    -1.340167293512448    -0.515096445235255
    H                3.241478944350229     0.591832706487553    -1.939096445235255
    H                0.594478944350229    -2.683167293512448    -1.074096445236255
    H                1.871478944350229     1.166832706487553    -3.910096445235255
    H               -0.772521055649771    -2.099167293512448    -3.044096445235255
    H               -0.784521055649771    -0.997167293512447    -5.232096445235255
    H                0.346478944350229     0.280832706487553    -5.618096445235255
    H               -1.127333055649771     0.668320706487553    -4.685386445235256
    C                0.298478944350229     1.679832706487552     0.187903554764745
    C               -0.277521055649771     3.081832706487553     0.106903554764745
    C               -0.276521055649771     0.884832706487553     1.330903554764745
    C                0.104478944350229     1.164832706487553     2.642903554764745
    C               -1.201521055649771    -0.135167293512447     1.100903554764745
    C               -0.410521055649771     0.432832706487553     3.709903554764745
    C               -1.725521055649771    -0.879167293512447     2.161903554763745
    C               -1.320521055649771    -0.592167293512447     3.470903554764745
    O               -1.780521055649771    -1.307167293512447     4.529903554764745
    H                0.118478944350229     1.156832706487553    -0.753096445235255
    H                1.379478944350229     1.747832706487553     0.325903554763745
    H               -0.183521055649771     3.544832706487552     1.090903554764745
    H                0.821478944350229     1.952832706487553     2.836903554764745
    H               -1.504521055649771    -0.363167293512447     0.086903554764745
    H               -0.093521055649771     0.657832706487553     4.718903554764745
    H               -2.428521055649771    -1.675167293512448     1.979903554764745
    H               -1.405521055649771    -0.990167293512447     5.352903554764744
    H               -1.330787055649771     3.028444906487552    -0.205796445235255
    H                0.249514944350229     3.696587206487552    -0.637616445235255

}
e, wfn = energy('scf', return_wfn=True)
gdma(wfn)
dmavals = variable('DMA DISTRIBUTED MULTIPOLES')
charges = np.array(dmavals)
print(charges)
np.save('SSI-082PHE-102TYR-1-dimer.npy', np.array(charges))--------------------------------------------------------------------------

*** tstart() called on ds3
*** at Tue Apr 28 12:12:41 2020

   => Loading Basis Set <=

    Name: CC-PVDZ
    Role: ORBITAL
    Keyword: BASIS
    atoms 1-7, 16-23  entry C          line   138 file /theoryfs2/ds/metcalf/miniconda2/envs/tf2gpu/share/psi4/basis/cc-pvdz.gbs
    atoms 8-15, 25-34 entry H          line    22 file /theoryfs2/ds/metcalf/miniconda2/envs/tf2gpu/share/psi4/basis/cc-pvdz.gbs
    atoms 24          entry O          line   198 file /theoryfs2/ds/metcalf/miniconda2/envs/tf2gpu/share/psi4/basis/cc-pvdz.gbs

         ---------------------------------------------------------
                                   SCF
               by Justin Turney, Rob Parrish, Andy Simmonett
                          and Daniel G. A. Smith
                              RHF Reference
                        1 Threads,    500 MiB Core
         ---------------------------------------------------------

  ==> Geometry <==

    Molecular point group: c1
    Full point group: C1

    Geometry (in Angstrom), charge = 0, multiplicity = 1:

       Center              X                  Y                   Z               Mass
    ------------   -----------------  -----------------  -----------------  -----------------
         C           -0.337521055650    -0.079167293512    -4.851096445235    12.000000000000
         C            2.007478944350    -1.082167293512    -1.376096445235    12.000000000000
         C            2.363478944350     0.007832706488    -2.178096445235    12.000000000000
         C            0.871478944350    -1.842167293512    -1.693096445235    12.000000000000
         C            1.585478944350     0.330832706488    -3.288096445235    12.000000000000
         C            0.098478944350    -1.507167293512    -2.804096445235    12.000000000000
         C            0.459478944350    -0.424167293512    -3.617096445235    12.000000000000
         H            2.604478944350    -1.340167293512    -0.515096445235     1.007825032230
         H            3.241478944350     0.591832706488    -1.939096445235     1.007825032230
         H            0.594478944350    -2.683167293512    -1.074096445236     1.007825032230
         H            1.871478944350     1.166832706488    -3.910096445235     1.007825032230
         H           -0.772521055650    -2.099167293512    -3.044096445235     1.007825032230
         H           -0.784521055650    -0.997167293512    -5.232096445235     1.007825032230
         H            0.346478944350     0.280832706488    -5.618096445235     1.007825032230
         H           -1.127333055650     0.668320706488    -4.685386445235     1.007825032230
         C            0.298478944350     1.679832706488     0.187903554765    12.000000000000
         C           -0.277521055650     3.081832706488     0.106903554765    12.000000000000
         C           -0.276521055650     0.884832706488     1.330903554765    12.000000000000
         C            0.104478944350     1.164832706488     2.642903554765    12.000000000000
         C           -1.201521055650    -0.135167293512     1.100903554765    12.000000000000
         C           -0.410521055650     0.432832706488     3.709903554765    12.000000000000
         C           -1.725521055650    -0.879167293512     2.161903554764    12.000000000000
         C           -1.320521055650    -0.592167293512     3.470903554765    12.000000000000
         O           -1.780521055650    -1.307167293512     4.529903554765    15.994914619570
         H            0.118478944350     1.156832706488    -0.753096445235     1.007825032230
         H            1.379478944350     1.747832706488     0.325903554764     1.007825032230
         H           -0.183521055650     3.544832706488     1.090903554765     1.007825032230
         H            0.821478944350     1.952832706488     2.836903554765     1.007825032230
         H           -1.504521055650    -0.363167293512     0.086903554765     1.007825032230
         H           -0.093521055650     0.657832706488     4.718903554765     1.007825032230
         H           -2.428521055650    -1.675167293512     1.979903554765     1.007825032230
         H           -1.405521055650    -0.990167293512     5.352903554765     1.007825032230
         H           -1.330787055650     3.028444906488    -0.205796445235     1.007825032230
         H            0.249514944350     3.696587206488    -0.637616445235     1.007825032230

  Running in c1 symmetry.

  Rotational constants: A =      0.03012  B =      0.00807  C =      0.00740 [cm^-1]
  Rotational constants: A =    903.12318  B =    241.86775  C =    221.85360 [MHz]
  Nuclear repulsion =  999.475232836165560

  Charge       = 0
  Multiplicity = 1
  Electrons    = 116
  Nalpha       = 58
  Nbeta        = 58

  ==> Algorithm <==

  SCF Algorithm Type is PK.
  DIIS enabled.
  MOM disabled.
  Fractional occupation disabled.
  Guess Type is SAD.
  Energy threshold   = 1.00e-06
  Density threshold  = 1.00e-10
  Integral threshold = 0.00e+00

  ==> Primary Basis <==

  Basis Set: CC-PVDZ
    Blend: CC-PVDZ
    Number of shells: 150
    Number of basis function: 314
    Number of Cartesian functions: 330
    Spherical Harmonics?: true
    Max angular momentum: 2

  ==> Pre-Iterations <==

   -------------------------------------------------------
    Irrep   Nso     Nmo     Nalpha   Nbeta   Ndocc  Nsocc
   -------------------------------------------------------
     A        314     314       0       0       0       0
   -------------------------------------------------------
    Total     314     314      58      58      58       0
   -------------------------------------------------------

  ==> Integral Setup <==

  Using integral reordering PK algorithm.
  Sizing the integral batches needed.
  Building batch lookup table.
   Calculation information:
      Number of atoms:                  34
      Number of AO shells:             150
      Number of primitives:            442
      Number of atomic orbitals:       330
      Number of basis functions:       314

      Integral cutoff                 1.00e-12
      Number of threads:                 1

	Batch   1 pq = [       0,    9405] index = [             0,44231715] size =     44231715
	Batch   2 pq = [    9405,   13301] index = [      44231715,88464951] size =     44233236
	Batch   3 pq = [   13301,   16290] index = [      88464951,132690195] size =     44225244
	Batch   4 pq = [   16290,   18810] index = [     132690195,176917455] size =     44227260
	Batch   5 pq = [   18810,   21030] index = [     176917455,221140965] size =     44223510
	Batch   6 pq = [   21030,   23037] index = [     221140965,265363203] size =     44222238
	Batch   7 pq = [   23037,   24883] index = [     265363203,309594286] size =     44231083
	Batch   8 pq = [   24883,   26601] index = [     309594286,353819901] size =     44225615
	Batch   9 pq = [   26601,   28214] index = [     353819901,398029005] size =     44209104
	Batch  10 pq = [   28214,   29740] index = [     398029005,442248670] size =     44219665
	Batch  11 pq = [   29740,   31191] index = [     442248670,486454836] size =     44206166
	Batch  12 pq = [   31191,   32578] index = [     486454836,530679331] size =     44224495
	Batch  13 pq = [   32578,   33908] index = [     530679331,574893186] size =     44213855
	Batch  14 pq = [   33908,   35188] index = [     574893186,619115266] size =     44222080
	Batch  15 pq = [   35188,   36423] index = [     619115266,663335676] size =     44220410
	Batch  16 pq = [   36423,   37617] index = [     663335676,707538153] size =     44202477
	Batch  17 pq = [   37617,   38775] index = [     707538153,751769700] size =     44231547
	Batch  18 pq = [   38775,   39899] index = [     751769700,795985050] size =     44215350
	Batch  19 pq = [   39899,   40992] index = [     795985050,840192528] size =     44207478
	Batch  20 pq = [   40992,   42057] index = [     840192528,884416653] size =     44224125
	Batch  21 pq = [   42057,   43095] index = [     884416653,928611060] size =     44194407
	Batch  22 pq = [   43095,   44109] index = [     928611060,972823995] size =     44212935
	Batch  23 pq = [   44109,   45100] index = [     972823995,1017027550] size =     44203555
	Batch  24 pq = [   45100,   46070] index = [    1017027550,1061245485] size =     44217935
	Batch  25 pq = [   46070,   47020] index = [    1061245485,1105463710] size =     44218225
	Batch  26 pq = [   47020,   47951] index = [    1105463710,1149673176] size =     44209466
	Batch  27 pq = [   47951,   48864] index = [    1149673176,1193869680] size =     44196504
	Batch  28 pq = [   48864,   49455] index = [    1193869680,1222923240] size =     29053560
  Task number: 111
  Buffer size: 11059200
  Buffer per thread: 2
  We computed 66834049 shell quartets total.
  Whereas there are 64133475 unique shell quartets.
     4.21 percent of shell quartets recomputed by reordering.

  ==> DiskJK: Disk-Based J/K Matrices <==

    J tasked:                  Yes
    K tasked:                  Yes
    wK tasked:                  No
    Memory [MiB]:              375
    Schwarz Cutoff:          1E-12

    OpenMP threads:              1

  Minimum eigenvalue in the overlap matrix is 3.1079976515E-04.
  Using Symmetric Orthogonalization.

  SCF Guess: Superposition of Atomic Densities via on-the-fly atomic UHF.

  ==> Iterations <==

                        Total Energy        Delta E     RMS |[F,P]|

   @RHF iter SAD:  -652.17578534977383   -6.52176e+02   0.00000e+00
   @RHF iter   1:  -653.06973193431327   -8.93947e-01   2.27957e-03 DIIS
   @RHF iter   2:  -653.36695278613740   -2.97221e-01   9.58172e-04 DIIS
   @RHF iter   3:  -653.41340429249101   -4.64515e-02   2.36202e-04 DIIS
   @RHF iter   4:  -653.41749804333494   -4.09375e-03   1.00085e-04 DIIS
   @RHF iter   5:  -653.41807352783098   -5.75484e-04   1.57018e-05 DIIS
   @RHF iter   6:  -653.41809579649203   -2.22687e-05   5.13375e-06 DIIS
   @RHF iter   7:  -653.41809794308335   -2.14659e-06   1.55900e-06 DIIS
   @RHF iter   8:  -653.41809820780156   -2.64718e-07   5.92016e-07 DIIS
   @RHF iter   9:  -653.41809824551046   -3.77089e-08   2.11330e-07 DIIS
   @RHF iter  10:  -653.41809825107907   -5.56861e-09   7.92059e-08 DIIS
   @RHF iter  11:  -653.41809825234350   -1.26443e-09   3.85091e-08 DIIS
   @RHF iter  12:  -653.41809825268774   -3.44244e-10   2.04049e-08 DIIS
   @RHF iter  13:  -653.41809825279779   -1.10049e-10   7.00838e-09 DIIS
   @RHF iter  14:  -653.41809825279779    0.00000e+00   2.07686e-09 DIIS
   @RHF iter  15:  -653.41809825280018   -2.38742e-12   5.94646e-10 DIIS
   @RHF iter  16:  -653.41809825280177   -1.59162e-12   2.54335e-10 DIIS
   @RHF iter  17:  -653.41809825280234   -5.68434e-13   8.18410e-11 DIIS
  Energy and wave function converged.

  ==> Post-Iterations <==

    Orbital Energies [Eh]
    ---------------------

    Doubly Occupied:

       1A    -20.579571     2A    -11.296314     3A    -11.244174
       4A    -11.238381     5A    -11.237976     6A    -11.234502
       7A    -11.234138     8A    -11.233559     9A    -11.233507
      10A    -11.232209    11A    -11.231124    12A    -11.228722
      13A    -11.227213    14A    -11.223970    15A    -11.216027
      16A    -11.214565    17A     -1.400121    18A     -1.151504
      19A     -1.145808    20A     -1.052658    21A     -1.043125
      22A     -1.013014    23A     -1.012335    24A     -0.970152
      25A     -0.931479    26A     -0.852618    27A     -0.839358
      28A     -0.824786    29A     -0.796863    30A     -0.785836
      31A     -0.728411    32A     -0.690816    33A     -0.668883
      34A     -0.639988    35A     -0.632302    36A     -0.630609
      37A     -0.607098    38A     -0.593143    39A     -0.584642
      40A     -0.582617    41A     -0.580362    42A     -0.579173
      43A     -0.566793    44A     -0.561693    45A     -0.541017
      46A     -0.535620    47A     -0.511282    48A     -0.492674
      49A     -0.489229    50A     -0.485455    51A     -0.483480
      52A     -0.465702    53A     -0.465168    54A     -0.458074
      55A     -0.336579    56A     -0.331825    57A     -0.321398
      58A     -0.295169

    Virtual:

      59A      0.128872    60A      0.134711    61A      0.139000
      62A      0.159531    63A      0.177130    64A      0.182505
      65A      0.196507    66A      0.199701    67A      0.203402
      68A      0.226185    69A      0.230609    70A      0.239776
      71A      0.249231    72A      0.254718    73A      0.263980
      74A      0.265276    75A      0.271029    76A      0.281594
      77A      0.289581    78A      0.303517    79A      0.317086
      80A      0.318034    81A      0.356213    82A      0.366290
      83A      0.373374    84A      0.387756    85A      0.419433
      86A      0.430371    87A      0.449881    88A      0.459099
      89A      0.473568    90A      0.478369    91A      0.490028
      92A      0.492171    93A      0.503218    94A      0.520926
      95A      0.560822    96A      0.578698    97A      0.601484
      98A      0.602658    99A      0.629370   100A      0.638131
     101A      0.652742   102A      0.656127   103A      0.671031
     104A      0.672227   105A      0.680984   106A      0.697735
     107A      0.702021   108A      0.715678   109A      0.718126
     110A      0.723283   111A      0.730122   112A      0.735132
     113A      0.739456   114A      0.747005   115A      0.755246
     116A      0.758686   117A      0.766840   118A      0.771082
     119A      0.774974   120A      0.790920   121A      0.798125
     122A      0.811130   123A      0.825586   124A      0.834910
     125A      0.843290   126A      0.853566   127A      0.855852
     128A      0.871827   129A      0.873852   130A      0.878309
     131A      0.885598   132A      0.886970   133A      0.893886
     134A      0.895105   135A      0.897709   136A      0.904771
     137A      0.906988   138A      0.916280   139A      0.924876
     140A      0.925997   141A      0.937552   142A      0.941197
     143A      0.945770   144A      0.963127   145A      0.975130
     146A      0.980594   147A      0.991533   148A      0.992783
     149A      1.010080   150A      1.029221   151A      1.033239
     152A      1.046610   153A      1.092180   154A      1.112708
     155A      1.120681   156A      1.132608   157A      1.138497
     158A      1.146069   159A      1.151538   160A      1.154729
     161A      1.169349   162A      1.180228   163A      1.196058
     164A      1.206977   165A      1.221959   166A      1.234377
     167A      1.248343   168A      1.252977   169A      1.254607
     170A      1.261580   171A      1.278083   172A      1.288164
     173A      1.290086   174A      1.301154   175A      1.302253
     176A      1.314428   177A      1.315530   178A      1.322304
     179A      1.332944   180A      1.361220   181A      1.367238
     182A      1.398308   183A      1.416545   184A      1.426258
     185A      1.450911   186A      1.493264   187A      1.508306
     188A      1.512987   189A      1.519364   190A      1.547857
     191A      1.555615   192A      1.594260   193A      1.613910
     194A      1.623469   195A      1.639657   196A      1.682326
     197A      1.687674   198A      1.699275   199A      1.703813
     200A      1.718877   201A      1.735834   202A      1.749118
     203A      1.768721   204A      1.775755   205A      1.785400
     206A      1.791551   207A      1.800654   208A      1.826032
     209A      1.839939   210A      1.857954   211A      1.861575
     212A      1.881551   213A      1.885108   214A      1.891590
     215A      1.898987   216A      1.901852   217A      1.906153
     218A      1.908546   219A      1.913379   220A      1.918971
     221A      1.922091   222A      1.932481   223A      1.941332
     224A      1.947792   225A      1.950309   226A      1.954647
     227A      1.965317   228A      1.968833   229A      1.977775
     230A      1.988747   231A      1.995364   232A      2.002470
     233A      2.014824   234A      2.026103   235A      2.034907
     236A      2.046710   237A      2.053144   238A      2.057475
     239A      2.064562   240A      2.073610   241A      2.090557
     242A      2.097240   243A      2.103704   244A      2.115598
     245A      2.130877   246A      2.149681   247A      2.153700
     248A      2.158247   249A      2.162532   250A      2.170344
     251A      2.177694   252A      2.190280   253A      2.199404
     254A      2.243844   255A      2.252733   256A      2.266555
     257A      2.273755   258A      2.278503   259A      2.290915
     260A      2.299896   261A      2.306147   262A      2.312183
     263A      2.323286   264A      2.337061   265A      2.366292
     266A      2.377165   267A      2.455386   268A      2.466343
     269A      2.469496   270A      2.473594   271A      2.475698
     272A      2.483453   273A      2.494777   274A      2.528317
     275A      2.537460   276A      2.543246   277A      2.545988
     278A      2.589619   279A      2.614890   280A      2.641598
     281A      2.657882   282A      2.745152   283A      2.750489
     284A      2.757177   285A      2.766878   286A      2.776096
     287A      2.788452   288A      2.802962   289A      2.804894
     290A      2.819588   291A      2.850852   292A      2.866701
     293A      2.873939   294A      2.886673   295A      2.923951
     296A      2.962048   297A      2.982262   298A      2.995508
     299A      3.003202   300A      3.023958   301A      3.029946
     302A      3.098358   303A      3.143678   304A      3.183860
     305A      3.191855   306A      3.261003   307A      3.285677
     308A      3.288973   309A      3.350482   310A      3.585695
     311A      3.676120   312A      3.951326   313A      3.985325
     314A      4.193947

    Final Occupation by Irrep:
              A
    DOCC [    58 ]

  @RHF Final Energy:  -653.41809825280234

   => Energetics <=

    Nuclear Repulsion Energy =            999.4752328361655600
    One-Electron Energy =               -2870.2170401760145069
    Two-Electron Energy =                1217.3237090870466091
    Total Energy =                       -653.4180982528023378

Computation Completed

Properties will be evaluated at   0.000000,   0.000000,   0.000000 [a0]

Properties computed using the SCF density matrix

  Nuclear Dipole Moment: [e a0]
     X:     1.4882      Y:     7.8168      Z:   -10.4987

  Electronic Dipole Moment: [e a0]
     X:    -1.1119      Y:    -7.4741      Z:    10.4678

  Dipole Moment: [e a0]
     X:     0.3762      Y:     0.3427      Z:    -0.0310     Total:     0.5099

  Dipole Moment: [D]
     X:     0.9563      Y:     0.8711      Z:    -0.0788     Total:     1.2960

*** tstop() called on ds3 at Tue Apr 28 12:32:51 2020
Module time:
	user time   =     571.35 seconds =       9.52 minutes
	system time =     177.09 seconds =       2.95 minutes
	total time  =       1210 seconds =      20.17 minutes
Total time:
	user time   =     571.35 seconds =       9.52 minutes
	system time =     177.09 seconds =       2.95 minutes
	total time  =       1210 seconds =      20.17 minutes
                                     G D M A

                                 by Anthony Stone

                           version 2.2.06, 22 June 2011

               Distributed Multipoles from Gaussian wavefunctions

Starting at 12:32:51 on 28 Apr 2020

Using SCF density matrix from file ./SSI/SSI-082PHE-102TYR-1-dimer.test.14413.fchk

                         Distributed Multipole Analysis

Standard DMA

Positions and radii in angstrom
Multipole moments in atomic units, ea_0^k for rank k

C          x = -0.337521  y = -0.079167  z = -4.851096 angstrom
           Maximum rank =  0   Radius =  0.650 angstrom
                   Q00  =  -0.202043

C          x =  2.007479  y = -1.082167  z = -1.376096 angstrom
           Maximum rank =  0   Radius =  0.650 angstrom
                   Q00  =  -0.085248

C          x =  2.363479  y =  0.007833  z = -2.178096 angstrom
           Maximum rank =  0   Radius =  0.650 angstrom
                   Q00  =  -0.074646

C          x =  0.871479  y = -1.842167  z = -1.693096 angstrom
           Maximum rank =  0   Radius =  0.650 angstrom
                   Q00  =  -0.065394

C          x =  1.585479  y =  0.330833  z = -3.288096 angstrom
           Maximum rank =  0   Radius =  0.650 angstrom
                   Q00  =  -0.017951

C          x =  0.098479  y = -1.507167  z = -2.804096 angstrom
           Maximum rank =  0   Radius =  0.650 angstrom
                   Q00  =  -0.063782

C          x =  0.459479  y = -0.424167  z = -3.617096 angstrom
           Maximum rank =  0   Radius =  0.650 angstrom
                   Q00  =  -0.105139

H          x =  2.604479  y = -1.340167  z = -0.515096 angstrom
           Maximum rank =  0   Radius =  0.325 angstrom
                   Q00  =   0.066903

H          x =  3.241479  y =  0.591833  z = -1.939096 angstrom
           Maximum rank =  0   Radius =  0.325 angstrom
                   Q00  =   0.065967

H          x =  0.594479  y = -2.683167  z = -1.074096 angstrom
           Maximum rank =  0   Radius =  0.325 angstrom
                   Q00  =   0.070364

H          x =  1.871479  y =  1.166833  z = -3.910096 angstrom
           Maximum rank =  0   Radius =  0.325 angstrom
                   Q00  =   0.056398

H          x = -0.772521  y = -2.099167  z = -3.044096 angstrom
           Maximum rank =  0   Radius =  0.325 angstrom
                   Q00  =   0.058940

H          x = -0.784521  y = -0.997167  z = -5.232096 angstrom
           Maximum rank =  0   Radius =  0.325 angstrom
                   Q00  =   0.097745

H          x =  0.346479  y =  0.280833  z = -5.618096 angstrom
           Maximum rank =  0   Radius =  0.325 angstrom
                   Q00  =   0.099201

H          x = -1.127333  y =  0.668321  z = -4.685386 angstrom
           Maximum rank =  0   Radius =  0.325 angstrom
                   Q00  =   0.105227

C          x =  0.298479  y =  1.679833  z =  0.187904 angstrom
           Maximum rank =  0   Radius =  0.650 angstrom
                   Q00  =  -0.024552

C          x = -0.277521  y =  3.081833  z =  0.106904 angstrom
           Maximum rank =  0   Radius =  0.650 angstrom
                   Q00  =  -0.231454

C          x = -0.276521  y =  0.884833  z =  1.330904 angstrom
           Maximum rank =  0   Radius =  0.650 angstrom
                   Q00  =  -0.141764

C          x =  0.104479  y =  1.164833  z =  2.642904 angstrom
           Maximum rank =  0   Radius =  0.650 angstrom
                   Q00  =   0.017800

C          x = -1.201521  y = -0.135167  z =  1.100904 angstrom
           Maximum rank =  0   Radius =  0.650 angstrom
                   Q00  =  -0.004940

C          x = -0.410521  y =  0.432833  z =  3.709904 angstrom
           Maximum rank =  0   Radius =  0.650 angstrom
                   Q00  =  -0.184369

C          x = -1.725521  y = -0.879167  z =  2.161904 angstrom
           Maximum rank =  0   Radius =  0.650 angstrom
                   Q00  =  -0.126445

C          x = -1.320521  y = -0.592167  z =  3.470904 angstrom
           Maximum rank =  0   Radius =  0.650 angstrom
                   Q00  =   0.279545

O          x = -1.780521  y = -1.307167  z =  4.529904 angstrom
           Maximum rank =  0   Radius =  0.650 angstrom
                   Q00  =  -0.636560

H          x =  0.118479  y =  1.156833  z = -0.753096 angstrom
           Maximum rank =  0   Radius =  0.325 angstrom
                   Q00  =   0.076116

H          x =  1.379479  y =  1.747833  z =  0.325904 angstrom
           Maximum rank =  0   Radius =  0.325 angstrom
                   Q00  =   0.055411

H          x = -0.183521  y =  3.544833  z =  1.090904 angstrom
           Maximum rank =  0   Radius =  0.325 angstrom
                   Q00  =   0.075721

H          x =  0.821479  y =  1.952833  z =  2.836904 angstrom
           Maximum rank =  0   Radius =  0.325 angstrom
                   Q00  =   0.066282

H          x = -1.504521  y = -0.363167  z =  0.086904 angstrom
           Maximum rank =  0   Radius =  0.325 angstrom
                   Q00  =   0.067803

H          x = -0.093521  y =  0.657833  z =  4.718904 angstrom
           Maximum rank =  0   Radius =  0.325 angstrom
                   Q00  =   0.067531

H          x = -2.428521  y = -1.675167  z =  1.979904 angstrom
           Maximum rank =  0   Radius =  0.325 angstrom
                   Q00  =   0.078183

H          x = -1.405521  y = -0.990167  z =  5.352904 angstrom
           Maximum rank =  0   Radius =  0.325 angstrom
                   Q00  =   0.404450

H          x = -1.330787  y =  3.028445  z = -0.205796 angstrom
           Maximum rank =  0   Radius =  0.325 angstrom
                   Q00  =   0.078356

H          x =  0.249515  y =  3.696587  z = -0.637616 angstrom
           Maximum rank =  0   Radius =  0.325 angstrom
                   Q00  =   0.076343

Total multipoles referred to origin at
           x =   0.000000,  y =    0.000000,  z =    0.000000 angstrom
                   Q00  =  -0.000000

Finished at 12:32:51 on 28 Apr 2020

  DMA results are available in the Python driver through the
	  variable('DMA DISTRIBUTED MULTIPOLES')
  and
	  variable('DMA TOTAL MULTIPOLES')
  commands.

    Psi4 stopped on: Tuesday, 28 April 2020 12:32PM
    Psi4 wall time for execution: 0:20:10.59

*** Psi4 exiting successfully. Buy a developer a beer!
