                               Psi4 1.3.2 release

  ==> Input File <==

--------------------------------------------------------------------------
import numpy as np
set {scf_type pk
basis cc-pvdz
d_convergence 10
gdma_switch   0
gdma_limit    0
gdma_origin   [ 0.0,  0.0,  0.0 ]
}
molecule test {
    units Angstrom
    0 1
    --
    0 1
    C                2.098620201430615    -1.546440820684585    -0.022092202411376
    C                2.017620201430615    -3.053440820684584     0.250907797588624
    H                1.757620201430615    -0.998440820684585     0.853907797588624
    H                3.123620201430615    -1.271440820684585    -0.200092202411376
    H                1.479620201430615    -1.282440820684585    -0.878092202411376
    H                2.738620201430616    -3.268440820684585     1.038907797588624
    H                1.010325201430615    -3.327177820684584     0.597928797588624
    H                2.294034201430616    -3.638022820684585    -0.638956202411376
    C                0.522620201430615     2.180559179315416    -2.274092202411376
    C               -1.501379798569385    -0.378440820684585    -0.300092202411376
    C               -1.096379798569385    -0.091440820684585     1.008907797588624
    C               -0.977379798569385     0.365559179315415    -1.361092202411376
    C               -0.052379798569385     1.385559179315415    -1.131092202411376
    C               -0.186379798569385     0.933559179315415     1.247907797588624
    C                0.328620201430615     1.665559179315415     0.180907797588624
    O               -1.556379798569385    -0.806440820684585     2.067907797588624
    H               -2.204379798569385    -1.174440820684585    -0.482092202411376
    H               -1.280379798569385     0.137559179315415    -2.375092202411376
    H                0.130620201430615     1.158559179315415     2.256907797588624
    H               -1.181379798569385    -0.489440820684585     2.890907797588624
    H                0.342620201430615     1.657559179315415    -3.215092202411376
    H                1.603620201430616     2.248559179315416    -2.136092202411376
    H                1.045620201430616     2.453559179315415     0.374907797588624
    H                0.105194201430615     3.196585679315416    -2.332793202411376

}
e, wfn = energy('scf', return_wfn=True)
gdma(wfn)
dmavals = variable('DMA DISTRIBUTED MULTIPOLES')
charges = np.array(dmavals)
print(charges)
np.save('SSI-011LEU-102TYR-2-dimer.npy', np.array(charges))--------------------------------------------------------------------------

*** tstart() called on ds3
*** at Tue Apr 28 08:59:38 2020

   => Loading Basis Set <=

    Name: CC-PVDZ
    Role: ORBITAL
    Keyword: BASIS
    atoms 1-2, 9-15  entry C          line   138 file /theoryfs2/ds/metcalf/miniconda2/envs/tf2gpu/share/psi4/basis/cc-pvdz.gbs
    atoms 3-8, 17-24 entry H          line    22 file /theoryfs2/ds/metcalf/miniconda2/envs/tf2gpu/share/psi4/basis/cc-pvdz.gbs
    atoms 16         entry O          line   198 file /theoryfs2/ds/metcalf/miniconda2/envs/tf2gpu/share/psi4/basis/cc-pvdz.gbs

         ---------------------------------------------------------
                                   SCF
               by Justin Turney, Rob Parrish, Andy Simmonett
                          and Daniel G. A. Smith
                              RHF Reference
                        1 Threads,    500 MiB Core
         ---------------------------------------------------------

  ==> Geometry <==

    Molecular point group: c1
    Full point group: C1

    Geometry (in Angstrom), charge = 0, multiplicity = 1:

       Center              X                  Y                   Z               Mass
    ------------   -----------------  -----------------  -----------------  -----------------
         C            2.098620201431    -1.546440820685    -0.022092202411    12.000000000000
         C            2.017620201431    -3.053440820685     0.250907797589    12.000000000000
         H            1.757620201431    -0.998440820685     0.853907797589     1.007825032230
         H            3.123620201431    -1.271440820685    -0.200092202411     1.007825032230
         H            1.479620201431    -1.282440820685    -0.878092202411     1.007825032230
         H            2.738620201431    -3.268440820685     1.038907797589     1.007825032230
         H            1.010325201431    -3.327177820685     0.597928797589     1.007825032230
         H            2.294034201431    -3.638022820685    -0.638956202411     1.007825032230
         C            0.522620201431     2.180559179315    -2.274092202411    12.000000000000
         C           -1.501379798569    -0.378440820685    -0.300092202411    12.000000000000
         C           -1.096379798569    -0.091440820685     1.008907797589    12.000000000000
         C           -0.977379798569     0.365559179315    -1.361092202411    12.000000000000
         C           -0.052379798569     1.385559179315    -1.131092202411    12.000000000000
         C           -0.186379798569     0.933559179315     1.247907797589    12.000000000000
         C            0.328620201431     1.665559179315     0.180907797589    12.000000000000
         O           -1.556379798569    -0.806440820685     2.067907797589    15.994914619570
         H           -2.204379798569    -1.174440820685    -0.482092202411     1.007825032230
         H           -1.280379798569     0.137559179315    -2.375092202411     1.007825032230
         H            0.130620201431     1.158559179315     2.256907797589     1.007825032230
         H           -1.181379798569    -0.489440820685     2.890907797589     1.007825032230
         H            0.342620201431     1.657559179315    -3.215092202411     1.007825032230
         H            1.603620201431     2.248559179315    -2.136092202411     1.007825032230
         H            1.045620201431     2.453559179315     0.374907797589     1.007825032230
         H            0.105194201431     3.196585679315    -2.332793202411     1.007825032230

  Running in c1 symmetry.

  Rotational constants: A =      0.04297  B =      0.03157  C =      0.02304 [cm^-1]
  Rotational constants: A =   1288.33298  B =    946.35100  C =    690.72042 [MHz]
  Nuclear repulsion =  511.140583648417760

  Charge       = 0
  Multiplicity = 1
  Electrons    = 76
  Nalpha       = 38
  Nbeta        = 38

  ==> Algorithm <==

  SCF Algorithm Type is PK.
  DIIS enabled.
  MOM disabled.
  Fractional occupation disabled.
  Guess Type is SAD.
  Energy threshold   = 1.00e-06
  Density threshold  = 1.00e-10
  Integral threshold = 0.00e+00

  ==> Primary Basis <==

  Basis Set: CC-PVDZ
    Blend: CC-PVDZ
    Number of shells: 102
    Number of basis function: 210
    Number of Cartesian functions: 220
    Spherical Harmonics?: true
    Max angular momentum: 2

  ==> Pre-Iterations <==

   -------------------------------------------------------
    Irrep   Nso     Nmo     Nalpha   Nbeta   Ndocc  Nsocc
   -------------------------------------------------------
     A        210     210       0       0       0       0
   -------------------------------------------------------
    Total     210     210      38      38      38       0
   -------------------------------------------------------

  ==> Integral Setup <==

  Using integral reordering PK algorithm.
  Sizing the integral batches needed.
  Building batch lookup table.
   Calculation information:
      Number of atoms:                  24
      Number of AO shells:             102
      Number of primitives:            290
      Number of atomic orbitals:       220
      Number of basis functions:       210

      Integral cutoff                 1.00e-12
      Number of threads:                 1

	Batch   1 pq = [       0,    9405] index = [             0,44231715] size =     44231715
	Batch   2 pq = [    9405,   13301] index = [      44231715,88464951] size =     44233236
	Batch   3 pq = [   13301,   16290] index = [      88464951,132690195] size =     44225244
	Batch   4 pq = [   16290,   18810] index = [     132690195,176917455] size =     44227260
	Batch   5 pq = [   18810,   21030] index = [     176917455,221140965] size =     44223510
	Batch   6 pq = [   21030,   22155] index = [     221140965,245433090] size =     24292125
  Task number: 23
  Buffer size: 11059200
  Buffer per thread: 2
  We computed 13325037 shell quartets total.
  Whereas there are 13799631 unique shell quartets.

  ==> DiskJK: Disk-Based J/K Matrices <==

    J tasked:                  Yes
    K tasked:                  Yes
    wK tasked:                  No
    Memory [MiB]:              375
    Schwarz Cutoff:          1E-12

    OpenMP threads:              1

  Minimum eigenvalue in the overlap matrix is 3.2688603550E-04.
  Using Symmetric Orthogonalization.

  SCF Guess: Superposition of Atomic Densities via on-the-fly atomic UHF.

  ==> Iterations <==

                        Total Energy        Delta E     RMS |[F,P]|

   @RHF iter SAD:  -422.69526726799722   -4.22695e+02   0.00000e+00
   @RHF iter   1:  -423.59936173528831   -9.04094e-01   2.98266e-03 DIIS
   @RHF iter   2:  -423.81569009245158   -2.16328e-01   1.25583e-03 DIIS
   @RHF iter   3:  -423.85050621602886   -3.48161e-02   2.83215e-04 DIIS
   @RHF iter   4:  -423.85334294655706   -2.83673e-03   1.17632e-04 DIIS
   @RHF iter   5:  -423.85369894369660   -3.55997e-04   2.08668e-05 DIIS
   @RHF iter   6:  -423.85371661367640   -1.76700e-05   6.44819e-06 DIIS
   @RHF iter   7:  -423.85371825278810   -1.63911e-06   2.06838e-06 DIIS
   @RHF iter   8:  -423.85371847593808   -2.23150e-07   7.81982e-07 DIIS
   @RHF iter   9:  -423.85371851274073   -3.68026e-08   3.11596e-07 DIIS
   @RHF iter  10:  -423.85371851982137   -7.08064e-09   1.34484e-07 DIIS
   @RHF iter  11:  -423.85371852199518   -2.17381e-09   6.05357e-08 DIIS
   @RHF iter  12:  -423.85371852243287   -4.37694e-10   2.95860e-08 DIIS
   @RHF iter  13:  -423.85371852251626   -8.33893e-11   8.20878e-09 DIIS
   @RHF iter  14:  -423.85371852251842   -2.16005e-12   2.23809e-09 DIIS
   @RHF iter  15:  -423.85371852252456   -6.13909e-12   7.03541e-10 DIIS
   @RHF iter  16:  -423.85371852252200    2.55795e-12   2.23409e-10 DIIS
   @RHF iter  17:  -423.85371852252268   -6.82121e-13   9.19155e-11 DIIS
  Energy and wave function converged.

  ==> Post-Iterations <==

    Orbital Energies [Eh]
    ---------------------

    Doubly Occupied:

       1A    -20.583803     2A    -11.300973     3A    -11.240142
       4A    -11.239272     5A    -11.233680     6A    -11.233299
       7A    -11.232783     8A    -11.228625     9A    -11.209578
      10A    -11.201089    11A     -1.404300    12A     -1.150279
      13A     -1.037282    14A     -1.017999    15A     -1.006736
      16A     -0.925956    17A     -0.845031    18A     -0.826344
      19A     -0.803625    20A     -0.733458    21A     -0.669902
      22A     -0.642370    23A     -0.607559    24A     -0.595368
      25A     -0.587765    26A     -0.587726    27A     -0.581736
      28A     -0.571160    29A     -0.568199    30A     -0.526823
      31A     -0.498658    32A     -0.489708    33A     -0.485079
      34A     -0.481492    35A     -0.474909    36A     -0.458422
      37A     -0.338740    38A     -0.301055

    Virtual:

      39A      0.127157    40A      0.155195    41A      0.172601
      42A      0.183357    43A      0.201314    44A      0.213520
      45A      0.221959    46A      0.251517    47A      0.254732
      48A      0.265121    49A      0.268924    50A      0.276828
      51A      0.281833    52A      0.291591    53A      0.304472
      54A      0.313357    55A      0.369470    56A      0.372946
      57A      0.402110    58A      0.430877    59A      0.452688
      60A      0.483384    61A      0.494510    62A      0.507318
      63A      0.580581    64A      0.586186    65A      0.605392
      66A      0.613767    67A      0.640100    68A      0.647277
      69A      0.655132    70A      0.667842    71A      0.685196
      72A      0.695233    73A      0.703560    74A      0.727570
      75A      0.734856    76A      0.765238    77A      0.768280
      78A      0.774756    79A      0.788956    80A      0.811649
      81A      0.824926    82A      0.844586    83A      0.847031
      84A      0.865318    85A      0.876839    86A      0.889908
      87A      0.892170    88A      0.896941    89A      0.904130
      90A      0.906183    91A      0.919452    92A      0.924427
      93A      0.929365    94A      0.936137    95A      0.942942
      96A      0.951168    97A      0.963727    98A      0.991718
      99A      1.000748   100A      1.013965   101A      1.045913
     102A      1.076402   103A      1.123192   104A      1.133823
     105A      1.142388   106A      1.146456   107A      1.155910
     108A      1.191880   109A      1.203202   110A      1.233677
     111A      1.253958   112A      1.260534   113A      1.273630
     114A      1.289358   115A      1.298901   116A      1.309030
     117A      1.320087   118A      1.349720   119A      1.361033
     120A      1.389550   121A      1.471864   122A      1.485897
     123A      1.503861   124A      1.517941   125A      1.526993
     126A      1.553952   127A      1.588040   128A      1.618020
     129A      1.636331   130A      1.680630   131A      1.689779
     132A      1.693980   133A      1.713118   134A      1.738232
     135A      1.749173   136A      1.780364   137A      1.797963
     138A      1.811386   139A      1.865608   140A      1.875156
     141A      1.879392   142A      1.893353   143A      1.896536
     144A      1.907279   145A      1.910183   146A      1.920130
     147A      1.934468   148A      1.945401   149A      1.954033
     150A      1.957961   151A      1.965096   152A      1.975646
     153A      1.980489   154A      1.993188   155A      1.993565
     156A      2.016860   157A      2.035505   158A      2.047781
     159A      2.072808   160A      2.074517   161A      2.081765
     162A      2.119220   163A      2.125051   164A      2.134866
     165A      2.149539   166A      2.187437   167A      2.211143
     168A      2.219631   169A      2.258057   170A      2.269345
     171A      2.299431   172A      2.309663   173A      2.332074
     174A      2.347382   175A      2.368324   176A      2.404705
     177A      2.457109   178A      2.464178   179A      2.476297
     180A      2.490239   181A      2.499441   182A      2.527522
     183A      2.557899   184A      2.580216   185A      2.600375
     186A      2.607891   187A      2.660527   188A      2.743627
     189A      2.768947   190A      2.776732   191A      2.792267
     192A      2.802505   193A      2.825786   194A      2.842035
     195A      2.863677   196A      2.867723   197A      2.901224
     198A      2.955952   199A      2.978453   200A      2.993194
     201A      3.016048   202A      3.085489   203A      3.116315
     204A      3.258486   205A      3.276215   206A      3.347362
     207A      3.584389   208A      3.670667   209A      3.977915
     210A      4.190604

    Final Occupation by Irrep:
              A
    DOCC [    38 ]

  @RHF Final Energy:  -423.85371852252268

   => Energetics <=

    Nuclear Repulsion Energy =            511.1405836484177598
    One-Electron Energy =               -1588.1467529270844352
    Two-Electron Energy =                 653.1524507561439350
    Total Energy =                       -423.8537185225227404

Computation Completed

Properties will be evaluated at   0.000000,   0.000000,   0.000000 [a0]

Properties computed using the SCF density matrix

  Nuclear Dipole Moment: [e a0]
     X:    10.2722      Y:    -4.3139      Z:    -3.9695

  Electronic Dipole Moment: [e a0]
     X:    -9.9524      Y:     4.7957      Z:     4.1549

  Dipole Moment: [e a0]
     X:     0.3198      Y:     0.4818      Z:     0.1855     Total:     0.6073

  Dipole Moment: [D]
     X:     0.8129      Y:     1.2247      Z:     0.4714     Total:     1.5437

*** tstop() called on ds3 at Tue Apr 28 09:02:03 2020
Module time:
	user time   =     106.78 seconds =       1.78 minutes
	system time =      43.10 seconds =       0.72 minutes
	total time  =        145 seconds =       2.42 minutes
Total time:
	user time   =     106.78 seconds =       1.78 minutes
	system time =      43.10 seconds =       0.72 minutes
	total time  =        145 seconds =       2.42 minutes
                                     G D M A

                                 by Anthony Stone

                           version 2.2.06, 22 June 2011

               Distributed Multipoles from Gaussian wavefunctions

Starting at 9:2:3 on 28 Apr 2020

Using SCF density matrix from file ./SSI/SSI-011LEU-102TYR-2-dimer.test.19853.fchk

                         Distributed Multipole Analysis

Standard DMA

Positions and radii in angstrom
Multipole moments in atomic units, ea_0^k for rank k

C          x =  2.098620  y = -1.546441  z = -0.022092 angstrom
           Maximum rank =  0   Radius =  0.650 angstrom
                   Q00  =  -0.230439

C          x =  2.017620  y = -3.053441  z =  0.250908 angstrom
           Maximum rank =  0   Radius =  0.650 angstrom
                   Q00  =  -0.239955

H          x =  1.757620  y = -0.998441  z =  0.853908 angstrom
           Maximum rank =  0   Radius =  0.325 angstrom
                   Q00  =   0.079013

H          x =  3.123620  y = -1.271441  z = -0.200092 angstrom
           Maximum rank =  0   Radius =  0.325 angstrom
                   Q00  =   0.069265

H          x =  1.479620  y = -1.282441  z = -0.878092 angstrom
           Maximum rank =  0   Radius =  0.325 angstrom
                   Q00  =   0.086583

H          x =  2.738620  y = -3.268441  z =  1.038908 angstrom
           Maximum rank =  0   Radius =  0.325 angstrom
                   Q00  =   0.069887

H          x =  1.010325  y = -3.327178  z =  0.597929 angstrom
           Maximum rank =  0   Radius =  0.325 angstrom
                   Q00  =   0.081363

H          x =  2.294034  y = -3.638023  z = -0.638956 angstrom
           Maximum rank =  0   Radius =  0.325 angstrom
                   Q00  =   0.076191

C          x =  0.522620  y =  2.180559  z = -2.274092 angstrom
           Maximum rank =  0   Radius =  0.650 angstrom
                   Q00  =  -0.195676

C          x = -1.501380  y = -0.378441  z = -0.300092 angstrom
           Maximum rank =  0   Radius =  0.650 angstrom
                   Q00  =  -0.123239

C          x = -1.096380  y = -0.091441  z =  1.008908 angstrom
           Maximum rank =  0   Radius =  0.650 angstrom
                   Q00  =   0.285956

C          x = -0.977380  y =  0.365559  z = -1.361092 angstrom
           Maximum rank =  0   Radius =  0.650 angstrom
                   Q00  =  -0.014967

C          x = -0.052380  y =  1.385559  z = -1.131092 angstrom
           Maximum rank =  0   Radius =  0.650 angstrom
                   Q00  =  -0.138356

C          x = -0.186380  y =  0.933559  z =  1.247908 angstrom
           Maximum rank =  0   Radius =  0.650 angstrom
                   Q00  =  -0.179819

C          x =  0.328620  y =  1.665559  z =  0.180908 angstrom
           Maximum rank =  0   Radius =  0.650 angstrom
                   Q00  =   0.031687

O          x = -1.556380  y = -0.806441  z =  2.067908 angstrom
           Maximum rank =  0   Radius =  0.650 angstrom
                   Q00  =  -0.638026

H          x = -2.204380  y = -1.174441  z = -0.482092 angstrom
           Maximum rank =  0   Radius =  0.325 angstrom
                   Q00  =   0.082042

H          x = -1.280380  y =  0.137559  z = -2.375092 angstrom
           Maximum rank =  0   Radius =  0.325 angstrom
                   Q00  =   0.065445

H          x =  0.130620  y =  1.158559  z =  2.256908 angstrom
           Maximum rank =  0   Radius =  0.325 angstrom
                   Q00  =   0.068536

H          x = -1.181380  y = -0.489441  z =  2.890908 angstrom
           Maximum rank =  0   Radius =  0.325 angstrom
                   Q00  =   0.405530

H          x =  0.342620  y =  1.657559  z = -3.215092 angstrom
           Maximum rank =  0   Radius =  0.325 angstrom
                   Q00  =   0.096757

H          x =  1.603620  y =  2.248559  z = -2.136092 angstrom
           Maximum rank =  0   Radius =  0.325 angstrom
                   Q00  =   0.095400

H          x =  1.045620  y =  2.453559  z =  0.374908 angstrom
           Maximum rank =  0   Radius =  0.325 angstrom
                   Q00  =   0.067551

H          x =  0.105194  y =  3.196586  z = -2.332793 angstrom
           Maximum rank =  0   Radius =  0.325 angstrom
                   Q00  =   0.099273

Total multipoles referred to origin at
           x =   0.000000,  y =    0.000000,  z =    0.000000 angstrom
                   Q00  =  -0.000000

Finished at 9:2:3 on 28 Apr 2020

  DMA results are available in the Python driver through the
	  variable('DMA DISTRIBUTED MULTIPOLES')
  and
	  variable('DMA TOTAL MULTIPOLES')
  commands.

    Psi4 stopped on: Tuesday, 28 April 2020 09:02AM
    Psi4 wall time for execution: 0:02:24.51

*** Psi4 exiting successfully. Buy a developer a beer!
