                               Psi4 1.3.2 release

  ==> Input File <==

--------------------------------------------------------------------------
import numpy as np
set {scf_type pk
basis cc-pvdz
d_convergence 10
gdma_switch   0
gdma_limit    0
gdma_origin   [ 0.0,  0.0,  0.0 ]
}
molecule test {
    units Angstrom
    0 1
    --
    0 1
    C               -1.045305144804075    -0.772175276680676     1.723990596295912
    C               -1.216305144804075    -0.875175276680676     0.209990596295912
    O               -0.439305144804075    -1.535175276680676    -0.475009403704088
    N               -2.262305144804075    -0.231175276680676    -0.325009403704088
    H               -1.865305144804074    -1.306175276680676     2.196990596295912
    H               -1.145305144804075     0.281824723319324     1.972990596295912
    H               -2.361305144804075    -0.259175276680676    -1.327009403704088
    H               -2.881305144804075     0.319824723319324     0.264990596295912
    H               -0.086385144804075    -1.160065276680676     2.098180596295912
    C                1.896694855195925     1.198824723319324    -0.330009403704088
    C                3.046694855195925     2.105824723319324    -0.762009403704088
    H                2.188694855195926     0.153824723319324    -0.420009403704088
    H                1.651694855195925     1.404824723319325     0.708990596295912
    H                1.014694855195925     1.384824723319324    -0.943009403704087
    H                3.946694855195926     1.796824723319324    -0.240009403704088
    H                2.800694855195925     3.115824723319325    -0.433009403704088
    H                3.210994855195925     2.110844723319324    -1.849659403704087

}
e, wfn = energy('scf', return_wfn=True)
gdma(wfn)
dmavals = variable('DMA DISTRIBUTED MULTIPOLES')
charges = np.array(dmavals)
print(charges)
np.save('SSI-025GLN-274ILE-1-dimer.npy', np.array(charges))--------------------------------------------------------------------------

*** tstart() called on ds3
*** at Tue Apr 28 13:44:35 2020

   => Loading Basis Set <=

    Name: CC-PVDZ
    Role: ORBITAL
    Keyword: BASIS
    atoms 1-2, 10-11 entry C          line   138 file /theoryfs2/ds/metcalf/miniconda2/envs/tf2gpu/share/psi4/basis/cc-pvdz.gbs
    atoms 3          entry O          line   198 file /theoryfs2/ds/metcalf/miniconda2/envs/tf2gpu/share/psi4/basis/cc-pvdz.gbs
    atoms 4          entry N          line   168 file /theoryfs2/ds/metcalf/miniconda2/envs/tf2gpu/share/psi4/basis/cc-pvdz.gbs
    atoms 5-9, 12-17 entry H          line    22 file /theoryfs2/ds/metcalf/miniconda2/envs/tf2gpu/share/psi4/basis/cc-pvdz.gbs

         ---------------------------------------------------------
                                   SCF
               by Justin Turney, Rob Parrish, Andy Simmonett
                          and Daniel G. A. Smith
                              RHF Reference
                        1 Threads,    500 MiB Core
         ---------------------------------------------------------

  ==> Geometry <==

    Molecular point group: c1
    Full point group: C1

    Geometry (in Angstrom), charge = 0, multiplicity = 1:

       Center              X                  Y                   Z               Mass
    ------------   -----------------  -----------------  -----------------  -----------------
         C           -1.045305144804    -0.772175276681     1.723990596296    12.000000000000
         C           -1.216305144804    -0.875175276681     0.209990596296    12.000000000000
         O           -0.439305144804    -1.535175276681    -0.475009403704    15.994914619570
         N           -2.262305144804    -0.231175276681    -0.325009403704    14.003074004430
         H           -1.865305144804    -1.306175276681     2.196990596296     1.007825032230
         H           -1.145305144804     0.281824723319     1.972990596296     1.007825032230
         H           -2.361305144804    -0.259175276681    -1.327009403704     1.007825032230
         H           -2.881305144804     0.319824723319     0.264990596296     1.007825032230
         H           -0.086385144804    -1.160065276681     2.098180596296     1.007825032230
         C            1.896694855196     1.198824723319    -0.330009403704    12.000000000000
         C            3.046694855196     2.105824723319    -0.762009403704    12.000000000000
         H            2.188694855196     0.153824723319    -0.420009403704     1.007825032230
         H            1.651694855196     1.404824723319     0.708990596296     1.007825032230
         H            1.014694855196     1.384824723319    -0.943009403704     1.007825032230
         H            3.946694855196     1.796824723319    -0.240009403704     1.007825032230
         H            2.800694855196     3.115824723319    -0.433009403704     1.007825032230
         H            3.210994855196     2.110844723319    -1.849659403704     1.007825032230

  Running in c1 symmetry.

  Rotational constants: A =      0.17144  B =      0.03476  C =      0.03373 [cm^-1]
  Rotational constants: A =   5139.49876  B =   1042.06939  C =   1011.12110 [MHz]
  Nuclear repulsion =  230.167368998840743

  Charge       = 0
  Multiplicity = 1
  Electrons    = 50
  Nalpha       = 25
  Nbeta        = 25

  ==> Algorithm <==

  SCF Algorithm Type is PK.
  DIIS enabled.
  MOM disabled.
  Fractional occupation disabled.
  Guess Type is SAD.
  Energy threshold   = 1.00e-06
  Density threshold  = 1.00e-10
  Integral threshold = 0.00e+00

  ==> Primary Basis <==

  Basis Set: CC-PVDZ
    Blend: CC-PVDZ
    Number of shells: 69
    Number of basis function: 139
    Number of Cartesian functions: 145
    Spherical Harmonics?: true
    Max angular momentum: 2

  ==> Pre-Iterations <==

   -------------------------------------------------------
    Irrep   Nso     Nmo     Nalpha   Nbeta   Ndocc  Nsocc
   -------------------------------------------------------
     A        139     139       0       0       0       0
   -------------------------------------------------------
    Total     139     139      25      25      25       0
   -------------------------------------------------------

  ==> Integral Setup <==

  Using integral reordering PK algorithm.
  Sizing the integral batches needed.
  Building batch lookup table.
   Calculation information:
      Number of atoms:                  17
      Number of AO shells:              69
      Number of primitives:            187
      Number of atomic orbitals:       145
      Number of basis functions:       139

      Integral cutoff                 1.00e-12
      Number of threads:                 1

	Batch   1 pq = [       0,    9730] index = [             0,47341315] size =     47341315
  Task number: 5
  Buffer size: 11059200
  Buffer per thread: 2
  We computed 2335055 shell quartets total.
  Whereas there are 2917320 unique shell quartets.

  ==> DiskJK: Disk-Based J/K Matrices <==

    J tasked:                  Yes
    K tasked:                  Yes
    wK tasked:                  No
    Memory [MiB]:              375
    Schwarz Cutoff:          1E-12

    OpenMP threads:              1

  Minimum eigenvalue in the overlap matrix is 4.8550323086E-03.
  Using Symmetric Orthogonalization.

  SCF Guess: Superposition of Atomic Densities via on-the-fly atomic UHF.

  ==> Iterations <==

                        Total Energy        Delta E     RMS |[F,P]|

   @RHF iter SAD:  -285.88786244564301   -2.85888e+02   0.00000e+00
   @RHF iter   1:  -286.99500809850542   -1.10715e+00   4.64596e-03 DIIS
   @RHF iter   2:  -287.17041443242795   -1.75406e-01   2.62690e-03 DIIS
   @RHF iter   3:  -287.22146973219003   -5.10553e-02   5.45168e-04 DIIS
   @RHF iter   4:  -287.22489149295211   -3.42176e-03   2.19971e-04 DIIS
   @RHF iter   5:  -287.22550373987542   -6.12247e-04   3.49169e-05 DIIS
   @RHF iter   6:  -287.22553529685035   -3.15570e-05   1.62183e-05 DIIS
   @RHF iter   7:  -287.22554052826177   -5.23141e-06   6.44919e-06 DIIS
   @RHF iter   8:  -287.22554169183468   -1.16357e-06   2.17949e-06 DIIS
   @RHF iter   9:  -287.22554182918071   -1.37346e-07   5.54851e-07 DIIS
   @RHF iter  10:  -287.22554183578052   -6.59981e-09   1.72844e-07 DIIS
   @RHF iter  11:  -287.22554183647799   -6.97469e-10   3.74786e-08 DIIS
   @RHF iter  12:  -287.22554183651266   -3.46745e-11   8.18970e-09 DIIS
   @RHF iter  13:  -287.22554183651346   -7.95808e-13   1.63077e-09 DIIS
   @RHF iter  14:  -287.22554183651403   -5.68434e-13   6.35499e-10 DIIS
   @RHF iter  15:  -287.22554183651198    2.04636e-12   2.25146e-10 DIIS
   @RHF iter  16:  -287.22554183651175    2.27374e-13   6.30217e-11 DIIS
  Energy and wave function converged.

  ==> Post-Iterations <==

    Orbital Energies [Eh]
    ---------------------

    Doubly Occupied:

       1A    -20.505290     2A    -15.588618     3A    -11.349129
       4A    -11.242939     5A    -11.210223     6A    -11.205885
       7A     -1.366305     8A     -1.211957     9A     -1.011184
      10A     -0.998658    11A     -0.828597    12A     -0.793710
      13A     -0.726072    14A     -0.651232    15A     -0.611994
      16A     -0.591920    17A     -0.589973    18A     -0.571232
      19A     -0.559447    20A     -0.521086    21A     -0.492248
      22A     -0.479342    23A     -0.474238    24A     -0.408110
      25A     -0.403581

    Virtual:

      26A      0.158169    27A      0.194301    28A      0.201123
      29A      0.210054    30A      0.229045    31A      0.247350
      32A      0.259870    33A      0.263529    34A      0.272062
      35A      0.282461    36A      0.303457    37A      0.309615
      38A      0.376462    39A      0.395193    40A      0.469303
      41A      0.542023    42A      0.589508    43A      0.605305
      44A      0.609958    45A      0.629985    46A      0.662863
      47A      0.681568    48A      0.701336    49A      0.716769
      50A      0.735405    51A      0.743124    52A      0.780765
      53A      0.837442    54A      0.849791    55A      0.876879
      56A      0.898158    57A      0.900324    58A      0.914157
      59A      0.915310    60A      0.923078    61A      0.928479
      62A      0.937593    63A      0.948289    64A      0.985401
      65A      1.013968    66A      1.034822    67A      1.071362
      68A      1.122579    69A      1.128317    70A      1.133366
      71A      1.147280    72A      1.243537    73A      1.328314
      74A      1.348258    75A      1.373076    76A      1.380852
      77A      1.412876    78A      1.459988    79A      1.475907
      80A      1.497754    81A      1.504800    82A      1.596098
      83A      1.658184    84A      1.662979    85A      1.690394
      86A      1.704306    87A      1.722469    88A      1.788699
      89A      1.842374    90A      1.864645    91A      1.880147
      92A      1.886139    93A      1.890829    94A      1.901700
      95A      1.914786    96A      1.947399    97A      1.957727
      98A      1.961926    99A      1.972395   100A      1.975391
     101A      1.987296   102A      2.026227   103A      2.057073
     104A      2.081255   105A      2.113451   106A      2.123661
     107A      2.152474   108A      2.237099   109A      2.257356
     110A      2.311556   111A      2.330493   112A      2.440491
     113A      2.450950   114A      2.453161   115A      2.479784
     116A      2.489912   117A      2.564751   118A      2.568215
     119A      2.578216   120A      2.598470   121A      2.609902
     122A      2.697264   123A      2.754301   124A      2.779150
     125A      2.797262   126A      2.807612   127A      2.849132
     128A      2.870468   129A      2.873270   130A      2.956641
     131A      2.961529   132A      2.976929   133A      3.088125
     134A      3.134017   135A      3.291698   136A      3.491709
     137A      3.528178   138A      3.850953   139A      3.900194

    Final Occupation by Irrep:
              A
    DOCC [    25 ]

  @RHF Final Energy:  -287.22554183651175

   => Energetics <=

    Nuclear Repulsion Energy =            230.1673689988407432
    One-Electron Energy =                -845.9998808734936802
    Two-Electron Energy =                 328.6069700381411849
    Total Energy =                       -287.2255418365117521

Computation Completed

Properties will be evaluated at   0.000000,   0.000000,   0.000000 [a0]

Properties computed using the SCF density matrix

  Nuclear Dipole Moment: [e a0]
     X:     6.0735      Y:     7.3461      Z:     1.9012

  Electronic Dipole Moment: [e a0]
     X:    -7.2914      Y:    -6.4407      Z:    -1.2371

  Dipole Moment: [e a0]
     X:    -1.2179      Y:     0.9054      Z:     0.6641     Total:     1.6565

  Dipole Moment: [D]
     X:    -3.0957      Y:     2.3013      Z:     1.6880     Total:     4.2105

*** tstop() called on ds3 at Tue Apr 28 13:44:56 2020
Module time:
	user time   =      14.84 seconds =       0.25 minutes
	system time =       7.15 seconds =       0.12 minutes
	total time  =         21 seconds =       0.35 minutes
Total time:
	user time   =      14.84 seconds =       0.25 minutes
	system time =       7.15 seconds =       0.12 minutes
	total time  =         21 seconds =       0.35 minutes
                                     G D M A

                                 by Anthony Stone

                           version 2.2.06, 22 June 2011

               Distributed Multipoles from Gaussian wavefunctions

Starting at 13:44:56 on 28 Apr 2020

Using SCF density matrix from file ./SSI/SSI-025GLN-274ILE-1-dimer.test.28053.fchk

                         Distributed Multipole Analysis

Standard DMA

Positions and radii in angstrom
Multipole moments in atomic units, ea_0^k for rank k

C          x = -1.045305  y = -0.772175  z =  1.723991 angstrom
           Maximum rank =  0   Radius =  0.650 angstrom
                   Q00  =  -0.257870

C          x = -1.216305  y = -0.875175  z =  0.209991 angstrom
           Maximum rank =  0   Radius =  0.650 angstrom
                   Q00  =   0.818089

O          x = -0.439305  y = -1.535175  z = -0.475009 angstrom
           Maximum rank =  0   Radius =  0.650 angstrom
                   Q00  =  -0.778168

N          x = -2.262305  y = -0.231175  z = -0.325009 angstrom
           Maximum rank =  0   Radius =  0.650 angstrom
                   Q00  =  -0.550683

H          x = -1.865305  y = -1.306175  z =  2.196991 angstrom
           Maximum rank =  0   Radius =  0.325 angstrom
                   Q00  =   0.113976

H          x = -1.145305  y =  0.281825  z =  1.972991 angstrom
           Maximum rank =  0   Radius =  0.325 angstrom
                   Q00  =   0.090336

H          x = -2.361305  y = -0.259175  z = -1.327009 angstrom
           Maximum rank =  0   Radius =  0.325 angstrom
                   Q00  =   0.224015

H          x = -2.881305  y =  0.319825  z =  0.264991 angstrom
           Maximum rank =  0   Radius =  0.325 angstrom
                   Q00  =   0.208471

H          x = -0.086385  y = -1.160065  z =  2.098181 angstrom
           Maximum rank =  0   Radius =  0.325 angstrom
                   Q00  =   0.134051

C          x =  1.896695  y =  1.198825  z = -0.330009 angstrom
           Maximum rank =  0   Radius =  0.650 angstrom
                   Q00  =  -0.226897

C          x =  3.046695  y =  2.105825  z = -0.762009 angstrom
           Maximum rank =  0   Radius =  0.650 angstrom
                   Q00  =  -0.238764

H          x =  2.188695  y =  0.153825  z = -0.420009 angstrom
           Maximum rank =  0   Radius =  0.325 angstrom
                   Q00  =   0.092308

H          x =  1.651695  y =  1.404825  z =  0.708991 angstrom
           Maximum rank =  0   Radius =  0.325 angstrom
                   Q00  =   0.066818

H          x =  1.014695  y =  1.384825  z = -0.943009 angstrom
           Maximum rank =  0   Radius =  0.325 angstrom
                   Q00  =   0.075543

H          x =  3.946695  y =  1.796825  z = -0.240009 angstrom
           Maximum rank =  0   Radius =  0.325 angstrom
                   Q00  =   0.078219

H          x =  2.800695  y =  3.115825  z = -0.433009 angstrom
           Maximum rank =  0   Radius =  0.325 angstrom
                   Q00  =   0.068971

H          x =  3.210995  y =  2.110845  z = -1.849659 angstrom
           Maximum rank =  0   Radius =  0.325 angstrom
                   Q00  =   0.081586

Total multipoles referred to origin at
           x =   0.000000,  y =    0.000000,  z =    0.000000 angstrom
                   Q00  =  -0.000000

Finished at 13:44:56 on 28 Apr 2020

  DMA results are available in the Python driver through the
	  variable('DMA DISTRIBUTED MULTIPOLES')
  and
	  variable('DMA TOTAL MULTIPOLES')
  commands.

    Psi4 stopped on: Tuesday, 28 April 2020 01:44PM
    Psi4 wall time for execution: 0:00:21.62

*** Psi4 exiting successfully. Buy a developer a beer!
