                               Psi4 1.3.2 release

  ==> Input File <==

--------------------------------------------------------------------------
import numpy as np
set {scf_type pk
basis cc-pvdz
d_convergence 10
gdma_switch   0
gdma_limit    0
gdma_origin   [ 0.0,  0.0,  0.0 ]
}
molecule test {
    units Angstrom
    0 1
    --
    0 1
    C               -2.867298575786362     1.835228355276910    -1.057576410192941
    C               -0.180298575786362    -0.623771644723090     0.007423589807059
    C               -1.417298575786362    -0.001771644723090    -0.146576410192941
    C                0.956701424213638    -0.067771644723090    -0.582576410192941
    C               -1.531298575786362     1.170228355276909    -0.893576410192941
    C                0.849701424213638     1.108228355276909    -1.326576410192941
    C               -0.391298575786362     1.723228355276909    -1.480576410192941
    H               -0.103298575786362    -1.536771644723091     0.581423589807059
    H               -2.294298575786362    -0.437771644723090     0.309423589807059
    H                1.919701424213638    -0.544771644723090    -0.474576410192941
    H                1.726701424213638     1.543228355276909    -1.782576410192941
    H               -2.696298575786362     2.896228355276909    -1.249576410192941
    H               -3.417298575786362     1.763228355276909    -0.117576410192941
    H               -0.471298575786362     2.627228355276910    -2.061576410192941
    H               -3.484942575786361     1.417008355276909    -1.866037410192941
    C                2.528701424213638    -2.339771644723090     1.764423589807059
    C                1.717701424213638    -2.294771644723090     3.058423589807059
    H                1.938701424213638    -2.746771644723090     0.944423589807059
    H                2.841701424213638    -1.329771644723091     1.502423589807059
    H                3.416701424213639    -2.951771644723090     1.906423589807059
    H                0.843701424213638    -1.657771644723091     2.916423589807059
    H                2.360701424213638    -1.817771644723090     3.795423589807059
    H                1.404588424213638    -3.284981644723090     3.420975589807059

}
e, wfn = energy('scf', return_wfn=True)
gdma(wfn)
dmavals = variable('DMA DISTRIBUTED MULTIPOLES')
charges = np.array(dmavals)
print(charges)
np.save('SSI-026PHE-118ILE-1-dimer.npy', np.array(charges))--------------------------------------------------------------------------

*** tstart() called on ds3
*** at Mon Apr 27 19:07:49 2020

   => Loading Basis Set <=

    Name: CC-PVDZ
    Role: ORBITAL
    Keyword: BASIS
    atoms 1-7, 16-17  entry C          line   138 file /theoryfs2/ds/metcalf/miniconda2/envs/tf2gpu/share/psi4/basis/cc-pvdz.gbs
    atoms 8-15, 18-23 entry H          line    22 file /theoryfs2/ds/metcalf/miniconda2/envs/tf2gpu/share/psi4/basis/cc-pvdz.gbs

         ---------------------------------------------------------
                                   SCF
               by Justin Turney, Rob Parrish, Andy Simmonett
                          and Daniel G. A. Smith
                              RHF Reference
                        1 Threads,    500 MiB Core
         ---------------------------------------------------------

  ==> Geometry <==

    Molecular point group: c1
    Full point group: C1

    Geometry (in Angstrom), charge = 0, multiplicity = 1:

       Center              X                  Y                   Z               Mass
    ------------   -----------------  -----------------  -----------------  -----------------
         C           -2.867298575786     1.835228355277    -1.057576410193    12.000000000000
         C           -0.180298575786    -0.623771644723     0.007423589807    12.000000000000
         C           -1.417298575786    -0.001771644723    -0.146576410193    12.000000000000
         C            0.956701424214    -0.067771644723    -0.582576410193    12.000000000000
         C           -1.531298575786     1.170228355277    -0.893576410193    12.000000000000
         C            0.849701424214     1.108228355277    -1.326576410193    12.000000000000
         C           -0.391298575786     1.723228355277    -1.480576410193    12.000000000000
         H           -0.103298575786    -1.536771644723     0.581423589807     1.007825032230
         H           -2.294298575786    -0.437771644723     0.309423589807     1.007825032230
         H            1.919701424214    -0.544771644723    -0.474576410193     1.007825032230
         H            1.726701424214     1.543228355277    -1.782576410193     1.007825032230
         H           -2.696298575786     2.896228355277    -1.249576410193     1.007825032230
         H           -3.417298575786     1.763228355277    -0.117576410193     1.007825032230
         H           -0.471298575786     2.627228355277    -2.061576410193     1.007825032230
         H           -3.484942575786     1.417008355277    -1.866037410193     1.007825032230
         C            2.528701424214    -2.339771644723     1.764423589807    12.000000000000
         C            1.717701424214    -2.294771644723     3.058423589807    12.000000000000
         H            1.938701424214    -2.746771644723     0.944423589807     1.007825032230
         H            2.841701424214    -1.329771644723     1.502423589807     1.007825032230
         H            3.416701424214    -2.951771644723     1.906423589807     1.007825032230
         H            0.843701424214    -1.657771644723     2.916423589807     1.007825032230
         H            2.360701424214    -1.817771644723     3.795423589807     1.007825032230
         H            1.404588424214    -3.284981644723     3.420975589807     1.007825032230

  Running in c1 symmetry.

  Rotational constants: A =      0.10868  B =      0.02095  C =      0.01826 [cm^-1]
  Rotational constants: A =   3258.28877  B =    627.93249  C =    547.30284 [MHz]
  Nuclear repulsion =  404.418848473888033

  Charge       = 0
  Multiplicity = 1
  Electrons    = 68
  Nalpha       = 34
  Nbeta        = 34

  ==> Algorithm <==

  SCF Algorithm Type is PK.
  DIIS enabled.
  MOM disabled.
  Fractional occupation disabled.
  Guess Type is SAD.
  Energy threshold   = 1.00e-06
  Density threshold  = 1.00e-10
  Integral threshold = 0.00e+00

  ==> Primary Basis <==

  Basis Set: CC-PVDZ
    Blend: CC-PVDZ
    Number of shells: 96
    Number of basis function: 196
    Number of Cartesian functions: 205
    Spherical Harmonics?: true
    Max angular momentum: 2

  ==> Pre-Iterations <==

   -------------------------------------------------------
    Irrep   Nso     Nmo     Nalpha   Nbeta   Ndocc  Nsocc
   -------------------------------------------------------
     A        196     196       0       0       0       0
   -------------------------------------------------------
    Total     196     196      34      34      34       0
   -------------------------------------------------------

  ==> Integral Setup <==

  Using integral reordering PK algorithm.
  Sizing the integral batches needed.
  Building batch lookup table.
   Calculation information:
      Number of atoms:                  23
      Number of AO shells:              96
      Number of primitives:            268
      Number of atomic orbitals:       205
      Number of basis functions:       196

      Integral cutoff                 1.00e-12
      Number of threads:                 1

	Batch   1 pq = [       0,    9405] index = [             0,44231715] size =     44231715
	Batch   2 pq = [    9405,   13301] index = [      44231715,88464951] size =     44233236
	Batch   3 pq = [   13301,   16290] index = [      88464951,132690195] size =     44225244
	Batch   4 pq = [   16290,   18810] index = [     132690195,176917455] size =     44227260
	Batch   5 pq = [   18810,   19306] index = [     176917455,186370471] size =      9453016
  Task number: 17
  Buffer size: 11059200
  Buffer per thread: 2
  We computed 8928370 shell quartets total.
  Whereas there are 10841496 unique shell quartets.

  ==> DiskJK: Disk-Based J/K Matrices <==

    J tasked:                  Yes
    K tasked:                  Yes
    wK tasked:                  No
    Memory [MiB]:              375
    Schwarz Cutoff:          1E-12

    OpenMP threads:              1

  Minimum eigenvalue in the overlap matrix is 3.1193403799E-04.
  Using Symmetric Orthogonalization.

  SCF Guess: Superposition of Atomic Densities via on-the-fly atomic UHF.

  ==> Iterations <==

                        Total Energy        Delta E     RMS |[F,P]|

   @RHF iter SAD:  -347.89136021185379   -3.47891e+02   0.00000e+00
   @RHF iter   1:  -348.76639433601190   -8.75034e-01   2.88711e-03 DIIS
   @RHF iter   2:  -348.95901624015130   -1.92622e-01   1.18974e-03 DIIS
   @RHF iter   3:  -348.98875983808546   -2.97436e-02   2.59699e-04 DIIS
   @RHF iter   4:  -348.99124529574368   -2.48546e-03   5.48760e-05 DIIS
   @RHF iter   5:  -348.99132234957744   -7.70538e-05   1.87159e-05 DIIS
   @RHF iter   6:  -348.99133083456212   -8.48498e-06   4.89972e-06 DIIS
   @RHF iter   7:  -348.99133151212681   -6.77565e-07   1.20495e-06 DIIS
   @RHF iter   8:  -348.99133155816423   -4.60374e-08   2.84941e-07 DIIS
   @RHF iter   9:  -348.99133156237571   -4.21147e-09   1.18469e-07 DIIS
   @RHF iter  10:  -348.99133156315560   -7.79892e-10   5.35824e-08 DIIS
   @RHF iter  11:  -348.99133156344681   -2.91209e-10   2.18970e-08 DIIS
   @RHF iter  12:  -348.99133156349626   -4.94538e-11   1.06479e-08 DIIS
   @RHF iter  13:  -348.99133156350666   -1.04023e-11   4.14492e-09 DIIS
   @RHF iter  14:  -348.99133156350905   -2.38742e-12   1.12513e-09 DIIS
   @RHF iter  15:  -348.99133156350877    2.84217e-13   3.59802e-10 DIIS
   @RHF iter  16:  -348.99133156350916   -3.97904e-13   9.46008e-11 DIIS
  Energy and wave function converged.

  ==> Post-Iterations <==

    Orbital Energies [Eh]
    ---------------------

    Doubly Occupied:

       1A    -11.239991     2A    -11.235641     3A    -11.235367
       4A    -11.230938     5A    -11.230258     6A    -11.230106
       7A    -11.228643     8A    -11.218466     9A    -11.217619
      10A     -1.150937    11A     -1.043393    12A     -1.020804
      13A     -1.010952    14A     -0.929848    15A     -0.839081
      16A     -0.824157    17A     -0.794782    18A     -0.690631
      19A     -0.632231    20A     -0.629860    21A     -0.601298
      22A     -0.599998    23A     -0.581212    24A     -0.576676
      25A     -0.560890    26A     -0.533507    27A     -0.502922
      28A     -0.489679    29A     -0.487249    30A     -0.484098
      31A     -0.483304    32A     -0.479067    33A     -0.331802
      34A     -0.320398

    Virtual:

      35A      0.134539    36A      0.139314    37A      0.179147
      38A      0.192660    39A      0.208892    40A      0.225216
      41A      0.231005    42A      0.246988    43A      0.253006
      44A      0.258514    45A      0.268591    46A      0.276783
      47A      0.288386    48A      0.290965    49A      0.316174
      50A      0.340817    51A      0.368784    52A      0.381248
      53A      0.396990    54A      0.445849    55A      0.464507
      56A      0.478390    57A      0.489393    58A      0.559406
      59A      0.593498    60A      0.599713    61A      0.615478
      62A      0.630801    63A      0.638969    64A      0.667192
      65A      0.680929    66A      0.697855    67A      0.699918
      68A      0.715507    69A      0.737014    70A      0.741072
      71A      0.746526    72A      0.750493    73A      0.755705
      74A      0.769423    75A      0.783264    76A      0.832221
      77A      0.834946    78A      0.846898    79A      0.853029
      80A      0.869075    81A      0.876692    82A      0.886556
      83A      0.892652    84A      0.896488    85A      0.902508
      86A      0.919965    87A      0.923035    88A      0.926110
      89A      0.930517    90A      0.939686    91A      0.944429
      92A      0.975404    93A      0.984088    94A      1.006743
      95A      1.026487    96A      1.056794    97A      1.098092
      98A      1.126639    99A      1.143138   100A      1.154425
     101A      1.174996   102A      1.185208   103A      1.196291
     104A      1.237923   105A      1.242717   106A      1.249245
     107A      1.256597   108A      1.276775   109A      1.307068
     110A      1.310889   111A      1.321301   112A      1.325677
     113A      1.411630   114A      1.457788   115A      1.492115
     116A      1.508543   117A      1.518972   118A      1.554160
     119A      1.588751   120A      1.632095   121A      1.680650
     122A      1.689277   123A      1.699125   124A      1.704996
     125A      1.736893   126A      1.750106   127A      1.757873
     128A      1.789997   129A      1.809845   130A      1.859154
     131A      1.865788   132A      1.878368   133A      1.882189
     134A      1.901725   135A      1.907337   136A      1.908115
     137A      1.914944   138A      1.921176   139A      1.937369
     140A      1.944579   141A      1.949395   142A      1.953880
     143A      1.967198   144A      1.976082   145A      1.977743
     146A      1.984180   147A      2.004167   148A      2.016681
     149A      2.036002   150A      2.061384   151A      2.071622
     152A      2.102047   153A      2.108076   154A      2.128449
     155A      2.143317   156A      2.167830   157A      2.174830
     158A      2.188531   159A      2.207352   160A      2.254732
     161A      2.277498   162A      2.294251   163A      2.299227
     164A      2.306999   165A      2.312239   166A      2.330053
     167A      2.337576   168A      2.461984   169A      2.468344
     170A      2.478388   171A      2.481209   172A      2.505432
     173A      2.542087   174A      2.565481   175A      2.585806
     176A      2.622037   177A      2.740045   178A      2.763507
     179A      2.768043   180A      2.771234   181A      2.787561
     182A      2.806739   183A      2.813035   184A      2.848524
     185A      2.852414   186A      2.870650   187A      2.881833
     188A      2.957354   189A      2.974120   190A      2.982077
     191A      3.006277   192A      3.026911   193A      3.154286
     194A      3.201691   195A      3.300322   196A      3.964954

    Final Occupation by Irrep:
              A
    DOCC [    34 ]

  @RHF Final Energy:  -348.99133156350916

   => Energetics <=

    Nuclear Repulsion Energy =            404.4188484738880334
    One-Electron Energy =               -1271.4887504447224273
    Two-Electron Energy =                 518.0785704073251736
    Total Energy =                       -348.9913315635092204

Computation Completed

Properties will be evaluated at   0.000000,   0.000000,   0.000000 [a0]

Properties computed using the SCF density matrix

  Nuclear Dipole Moment: [e a0]
     X:     3.7359      Y:    -5.6822      Z:     7.3357

  Electronic Dipole Moment: [e a0]
     X:    -3.8299      Y:     5.7529      Z:    -7.3433

  Dipole Moment: [e a0]
     X:    -0.0940      Y:     0.0707      Z:    -0.0076     Total:     0.1179

  Dipole Moment: [D]
     X:    -0.2390      Y:     0.1796      Z:    -0.0193     Total:     0.2996

*** tstop() called on ds3 at Mon Apr 27 19:09:13 2020
Module time:
	user time   =      60.15 seconds =       1.00 minutes
	system time =      26.27 seconds =       0.44 minutes
	total time  =         84 seconds =       1.40 minutes
Total time:
	user time   =      60.15 seconds =       1.00 minutes
	system time =      26.27 seconds =       0.44 minutes
	total time  =         84 seconds =       1.40 minutes
                                     G D M A

                                 by Anthony Stone

                           version 2.2.06, 22 June 2011

               Distributed Multipoles from Gaussian wavefunctions

Starting at 19:9:13 on 27 Apr 2020

Using SCF density matrix from file ./SSI/SSI-026PHE-118ILE-1-dimer.test.3700.fchk

                         Distributed Multipole Analysis

Standard DMA

Positions and radii in angstrom
Multipole moments in atomic units, ea_0^k for rank k

C          x = -2.867299  y =  1.835228  z = -1.057576 angstrom
           Maximum rank =  0   Radius =  0.650 angstrom
                   Q00  =  -0.196836

C          x = -0.180299  y = -0.623772  z =  0.007424 angstrom
           Maximum rank =  0   Radius =  0.650 angstrom
                   Q00  =  -0.081103

C          x = -1.417299  y = -0.001772  z = -0.146576 angstrom
           Maximum rank =  0   Radius =  0.650 angstrom
                   Q00  =  -0.015223

C          x =  0.956701  y = -0.067772  z = -0.582576 angstrom
           Maximum rank =  0   Radius =  0.650 angstrom
                   Q00  =  -0.092839

C          x = -1.531299  y =  1.170228  z = -0.893576 angstrom
           Maximum rank =  0   Radius =  0.650 angstrom
                   Q00  =  -0.101118

C          x =  0.849701  y =  1.108228  z = -1.326576 angstrom
           Maximum rank =  0   Radius =  0.650 angstrom
                   Q00  =  -0.067513

C          x = -0.391299  y =  1.723228  z = -1.480576 angstrom
           Maximum rank =  0   Radius =  0.650 angstrom
                   Q00  =  -0.053022

H          x = -0.103299  y = -1.536772  z =  0.581424 angstrom
           Maximum rank =  0   Radius =  0.325 angstrom
                   Q00  =   0.066148

H          x = -2.294299  y = -0.437772  z =  0.309424 angstrom
           Maximum rank =  0   Radius =  0.325 angstrom
                   Q00  =   0.056089

H          x =  1.919701  y = -0.544772  z = -0.474576 angstrom
           Maximum rank =  0   Radius =  0.325 angstrom
                   Q00  =   0.064603

H          x =  1.726701  y =  1.543228  z = -1.782576 angstrom
           Maximum rank =  0   Radius =  0.325 angstrom
                   Q00  =   0.065165

H          x = -2.696299  y =  2.896228  z = -1.249576 angstrom
           Maximum rank =  0   Radius =  0.325 angstrom
                   Q00  =   0.095460

H          x = -3.417299  y =  1.763228  z = -0.117576 angstrom
           Maximum rank =  0   Radius =  0.325 angstrom
                   Q00  =   0.097611

H          x = -0.471299  y =  2.627228  z = -2.061576 angstrom
           Maximum rank =  0   Radius =  0.325 angstrom
                   Q00  =   0.057733

H          x = -3.484943  y =  1.417008  z = -1.866037 angstrom
           Maximum rank =  0   Radius =  0.325 angstrom
                   Q00  =   0.105365

C          x =  2.528701  y = -2.339772  z =  1.764424 angstrom
           Maximum rank =  0   Radius =  0.650 angstrom
                   Q00  =  -0.243762

C          x =  1.717701  y = -2.294772  z =  3.058424 angstrom
           Maximum rank =  0   Radius =  0.650 angstrom
                   Q00  =  -0.231042

H          x =  1.938701  y = -2.746772  z =  0.944424 angstrom
           Maximum rank =  0   Radius =  0.325 angstrom
                   Q00  =   0.073493

H          x =  2.841701  y = -1.329772  z =  1.502424 angstrom
           Maximum rank =  0   Radius =  0.325 angstrom
                   Q00  =   0.079993

H          x =  3.416701  y = -2.951772  z =  1.906424 angstrom
           Maximum rank =  0   Radius =  0.325 angstrom
                   Q00  =   0.081323

H          x =  0.843701  y = -1.657772  z =  2.916424 angstrom
           Maximum rank =  0   Radius =  0.325 angstrom
                   Q00  =   0.080056

H          x =  2.360701  y = -1.817772  z =  3.795424 angstrom
           Maximum rank =  0   Radius =  0.325 angstrom
                   Q00  =   0.078211

H          x =  1.404588  y = -3.284982  z =  3.420976 angstrom
           Maximum rank =  0   Radius =  0.325 angstrom
                   Q00  =   0.081207

Total multipoles referred to origin at
           x =   0.000000,  y =    0.000000,  z =    0.000000 angstrom
                   Q00  =  -0.000000

Finished at 19:9:13 on 27 Apr 2020

  DMA results are available in the Python driver through the
	  variable('DMA DISTRIBUTED MULTIPOLES')
  and
	  variable('DMA TOTAL MULTIPOLES')
  commands.

    Psi4 stopped on: Monday, 27 April 2020 07:09PM
    Psi4 wall time for execution: 0:01:23.64

*** Psi4 exiting successfully. Buy a developer a beer!
