                               Psi4 1.3.2 release

  ==> Input File <==

--------------------------------------------------------------------------
import numpy as np
set {scf_type pk
basis cc-pvdz
d_convergence 10
gdma_switch   0
gdma_limit    0
gdma_origin   [ 0.0,  0.0,  0.0 ]
}
molecule test {
    units Angstrom
    0 1
    --
    0 1
    C                2.985389912251404     1.849110240374541    -0.794650298616415
    C                0.647389912251404     1.007110240374541     0.065349701383585
    C                1.586389912251404     2.038110240374541    -0.286650298616415
    C               -0.558610087748596     1.646110240374541     0.454349701383585
    C                0.912389912251404     3.210110240374541    -0.114650298616415
    C               -0.405610087748596    -1.127889759625459     0.489349701383585
    C               -1.573610087748596    -0.456889759625459     0.866349701383585
    C                0.723389912251404    -0.397889759625459     0.081349701383585
    C               -1.672610087748596     0.920110240374541     0.857349701383585
    N               -0.365610087748596     2.990110240374541     0.335349701383585
    H               -0.363610087748596    -2.202889759625459     0.530349701383585
    H               -2.433610087748596    -1.035889759625459     1.164349701383585
    H                1.632389912251404    -0.903889759625459    -0.208650298616415
    H               -2.581610087748596     1.419110240374541     1.148349701383584
    H                3.001389912251404     2.169110240374541    -1.836650298616415
    H                3.231389912251404     0.786110240374541    -0.778650298616415
    H                1.320389912251404     4.191110240374542    -0.334650298616415
    H               -1.097610087748596     3.703110240374542     0.409349701383585
    H                3.763149912251404     2.407022240374542    -0.252600298616415
    C               -0.894610087748596    -4.835889759625458    -0.169650298616415
    C               -1.308610087748596    -5.599889759625460    -1.427650298616416
    H               -0.055610087748596    -4.179889759625459    -0.399650298616415
    H               -1.737610087748596    -4.249889759625458     0.194349701383585
    H               -0.595610087748596    -5.530889759625460     0.610349701383585
    H               -2.098610087748596    -6.299889759625459    -1.157650298616415
    H               -0.452841087748596    -6.143486759625459    -1.854450298616415
    H               -1.706426087748596    -4.863892759625458    -2.141830298616416

}
e, wfn = energy('scf', return_wfn=True)
gdma(wfn)
dmavals = variable('DMA DISTRIBUTED MULTIPOLES')
charges = np.array(dmavals)
print(charges)
np.save('SSI-030TRP-079LEU-1-dimer.npy', np.array(charges))--------------------------------------------------------------------------

*** tstart() called on ds3
*** at Mon Apr 27 06:53:24 2020

   => Loading Basis Set <=

    Name: CC-PVDZ
    Role: ORBITAL
    Keyword: BASIS
    atoms 1-9, 20-21   entry C          line   138 file /theoryfs2/ds/metcalf/miniconda2/envs/tf2gpu/share/psi4/basis/cc-pvdz.gbs
    atoms 10           entry N          line   168 file /theoryfs2/ds/metcalf/miniconda2/envs/tf2gpu/share/psi4/basis/cc-pvdz.gbs
    atoms 11-19, 22-27 entry H          line    22 file /theoryfs2/ds/metcalf/miniconda2/envs/tf2gpu/share/psi4/basis/cc-pvdz.gbs

         ---------------------------------------------------------
                                   SCF
               by Justin Turney, Rob Parrish, Andy Simmonett
                          and Daniel G. A. Smith
                              RHF Reference
                        1 Threads,    500 MiB Core
         ---------------------------------------------------------

  ==> Geometry <==

    Molecular point group: c1
    Full point group: C1

    Geometry (in Angstrom), charge = 0, multiplicity = 1:

       Center              X                  Y                   Z               Mass
    ------------   -----------------  -----------------  -----------------  -----------------
         C            2.985389912251     1.849110240375    -0.794650298616    12.000000000000
         C            0.647389912251     1.007110240375     0.065349701384    12.000000000000
         C            1.586389912251     2.038110240375    -0.286650298616    12.000000000000
         C           -0.558610087749     1.646110240375     0.454349701384    12.000000000000
         C            0.912389912251     3.210110240375    -0.114650298616    12.000000000000
         C           -0.405610087749    -1.127889759625     0.489349701384    12.000000000000
         C           -1.573610087749    -0.456889759625     0.866349701384    12.000000000000
         C            0.723389912251    -0.397889759625     0.081349701384    12.000000000000
         C           -1.672610087749     0.920110240375     0.857349701384    12.000000000000
         N           -0.365610087749     2.990110240375     0.335349701384    14.003074004430
         H           -0.363610087749    -2.202889759625     0.530349701384     1.007825032230
         H           -2.433610087749    -1.035889759625     1.164349701384     1.007825032230
         H            1.632389912251    -0.903889759625    -0.208650298616     1.007825032230
         H           -2.581610087749     1.419110240375     1.148349701384     1.007825032230
         H            3.001389912251     2.169110240375    -1.836650298616     1.007825032230
         H            3.231389912251     0.786110240375    -0.778650298616     1.007825032230
         H            1.320389912251     4.191110240375    -0.334650298616     1.007825032230
         H           -1.097610087749     3.703110240375     0.409349701384     1.007825032230
         H            3.763149912251     2.407022240375    -0.252600298616     1.007825032230
         C           -0.894610087749    -4.835889759625    -0.169650298616    12.000000000000
         C           -1.308610087749    -5.599889759625    -1.427650298616    12.000000000000
         H           -0.055610087749    -4.179889759625    -0.399650298616     1.007825032230
         H           -1.737610087749    -4.249889759625     0.194349701384     1.007825032230
         H           -0.595610087749    -5.530889759625     0.610349701384     1.007825032230
         H           -2.098610087749    -6.299889759625    -1.157650298616     1.007825032230
         H           -0.452841087749    -6.143486759625    -1.854450298616     1.007825032230
         H           -1.706426087749    -4.863892759625    -2.141830298616     1.007825032230

  Running in c1 symmetry.

  Rotational constants: A =      0.05580  B =      0.01191  C =      0.01014 [cm^-1]
  Rotational constants: A =   1672.77994  B =    356.93405  C =    304.12673 [MHz]
  Nuclear repulsion =  631.300893150756792

  Charge       = 0
  Multiplicity = 1
  Electrons    = 88
  Nalpha       = 44
  Nbeta        = 44

  ==> Algorithm <==

  SCF Algorithm Type is PK.
  DIIS enabled.
  MOM disabled.
  Fractional occupation disabled.
  Guess Type is SAD.
  Energy threshold   = 1.00e-06
  Density threshold  = 1.00e-10
  Integral threshold = 0.00e+00

  ==> Primary Basis <==

  Basis Set: CC-PVDZ
    Blend: CC-PVDZ
    Number of shells: 117
    Number of basis function: 243
    Number of Cartesian functions: 255
    Spherical Harmonics?: true
    Max angular momentum: 2

  ==> Pre-Iterations <==

   -------------------------------------------------------
    Irrep   Nso     Nmo     Nalpha   Nbeta   Ndocc  Nsocc
   -------------------------------------------------------
     A        243     243       0       0       0       0
   -------------------------------------------------------
    Total     243     243      44      44      44       0
   -------------------------------------------------------

  ==> Integral Setup <==

  Using integral reordering PK algorithm.
  Sizing the integral batches needed.
  Building batch lookup table.
   Calculation information:
      Number of atoms:                  27
      Number of AO shells:             117
      Number of primitives:            339
      Number of atomic orbitals:       255
      Number of basis functions:       243

      Integral cutoff                 1.00e-12
      Number of threads:                 1

	Batch   1 pq = [       0,    9405] index = [             0,44231715] size =     44231715
	Batch   2 pq = [    9405,   13301] index = [      44231715,88464951] size =     44233236
	Batch   3 pq = [   13301,   16290] index = [      88464951,132690195] size =     44225244
	Batch   4 pq = [   16290,   18810] index = [     132690195,176917455] size =     44227260
	Batch   5 pq = [   18810,   21030] index = [     176917455,221140965] size =     44223510
	Batch   6 pq = [   21030,   23037] index = [     221140965,265363203] size =     44222238
	Batch   7 pq = [   23037,   24883] index = [     265363203,309594286] size =     44231083
	Batch   8 pq = [   24883,   26601] index = [     309594286,353819901] size =     44225615
	Batch   9 pq = [   26601,   28214] index = [     353819901,398029005] size =     44209104
	Batch  10 pq = [   28214,   29646] index = [     398029005,439457481] size =     41428476
  Task number: 40
  Buffer size: 11059200
  Buffer per thread: 2
  We computed 17539142 shell quartets total.
  Whereas there are 23829156 unique shell quartets.

  ==> DiskJK: Disk-Based J/K Matrices <==

    J tasked:                  Yes
    K tasked:                  Yes
    wK tasked:                  No
    Memory [MiB]:              375
    Schwarz Cutoff:          1E-12

    OpenMP threads:              1

  Minimum eigenvalue in the overlap matrix is 2.3782943867E-04.
  Using Symmetric Orthogonalization.

  SCF Guess: Superposition of Atomic Densities via on-the-fly atomic UHF.

  ==> Iterations <==

                        Total Energy        Delta E     RMS |[F,P]|

   @RHF iter SAD:  -479.03764019565097   -4.79038e+02   0.00000e+00
   @RHF iter   1:  -479.48593679172973   -4.48297e-01   2.60121e-03 DIIS
   @RHF iter   2:  -479.71859597304734   -2.32659e-01   1.15127e-03 DIIS
   @RHF iter   3:  -479.75999907822376   -4.14031e-02   3.02198e-04 DIIS
   @RHF iter   4:  -479.76379381174820   -3.79473e-03   1.38955e-04 DIIS
   @RHF iter   5:  -479.76443489312129   -6.41081e-04   2.01842e-05 DIIS
   @RHF iter   6:  -479.76446382397512   -2.89309e-05   9.22952e-06 DIIS
   @RHF iter   7:  -479.76446959463209   -5.77066e-06   3.75122e-06 DIIS
   @RHF iter   8:  -479.76447116627116   -1.57164e-06   1.48595e-06 DIIS
   @RHF iter   9:  -479.76447148302498   -3.16754e-07   6.48828e-07 DIIS
   @RHF iter  10:  -479.76447154612367   -6.30987e-08   3.00131e-07 DIIS
   @RHF iter  11:  -479.76447156205211   -1.59284e-08   1.16020e-07 DIIS
   @RHF iter  12:  -479.76447156439565   -2.34354e-09   3.68283e-08 DIIS
   @RHF iter  13:  -479.76447156456231   -1.66665e-10   9.58605e-09 DIIS
   @RHF iter  14:  -479.76447156457482   -1.25056e-11   3.45856e-09 DIIS
   @RHF iter  15:  -479.76447156457897   -4.14957e-12   1.75656e-09 DIIS
   @RHF iter  16:  -479.76447156457920   -2.27374e-13   9.11525e-10 DIIS
   @RHF iter  17:  -479.76447156457829    9.09495e-13   3.20475e-10 DIIS
   @RHF iter  18:  -479.76447156457778    5.11591e-13   1.51811e-10 DIIS
   @RHF iter  19:  -479.76447156457851   -7.38964e-13   4.69561e-11 DIIS
  Energy and wave function converged.

  ==> Post-Iterations <==

    Orbital Energies [Eh]
    ---------------------

    Doubly Occupied:

       1A    -15.602006     2A    -11.261424     3A    -11.261197
       4A    -11.230567     5A    -11.227175     6A    -11.227163
       7A    -11.224999     8A    -11.220275     9A    -11.218608
      10A    -11.217699    11A    -11.217465    12A    -11.214901
      13A     -1.296268    14A     -1.124947    15A     -1.072195
      16A     -1.018158    17A     -0.994006    18A     -0.984609
      19A     -0.931630    20A     -0.838791    21A     -0.833918
      22A     -0.800069    23A     -0.752569    24A     -0.719595
      25A     -0.660099    26A     -0.640678    27A     -0.602331
      28A     -0.599646    29A     -0.598208    30A     -0.592667
      31A     -0.588120    32A     -0.564756    33A     -0.552434
      34A     -0.537874    35A     -0.522381    36A     -0.501015
      37A     -0.491252    38A     -0.486271    39A     -0.480739
      40A     -0.470861    41A     -0.458712    42A     -0.371830
      43A     -0.293057    44A     -0.271921

    Virtual:

      45A      0.127067    46A      0.170488    47A      0.178879
      48A      0.182301    49A      0.193386    50A      0.206499
      51A      0.217446    52A      0.221306    53A      0.230017
      54A      0.248155    55A      0.249411    56A      0.259043
      57A      0.270850    58A      0.281814    59A      0.297873
      60A      0.306411    61A      0.324891    62A      0.336204
      63A      0.373317    64A      0.385192    65A      0.400541
      66A      0.410290    67A      0.434221    68A      0.452483
      69A      0.472838    70A      0.484447    71A      0.510903
      72A      0.527418    73A      0.596009    74A      0.600961
      75A      0.602342    76A      0.627734    77A      0.637063
      78A      0.639784    79A      0.648686    80A      0.664198
      81A      0.684683    82A      0.688994    83A      0.698906
      84A      0.712560    85A      0.717200    86A      0.734885
      87A      0.738360    88A      0.743664    89A      0.744605
      90A      0.754602    91A      0.760939    92A      0.772396
      93A      0.785350    94A      0.793887    95A      0.804204
      96A      0.846012    97A      0.852100    98A      0.859578
      99A      0.871593   100A      0.880755   101A      0.890006
     102A      0.894808   103A      0.895898   104A      0.898273
     105A      0.903546   106A      0.910167   107A      0.918210
     108A      0.931762   109A      0.939590   110A      0.949652
     111A      0.955232   112A      0.968514   113A      0.972808
     114A      0.988437   115A      1.007006   116A      1.031027
     117A      1.047630   118A      1.075947   119A      1.093597
     120A      1.126238   121A      1.135514   122A      1.143529
     123A      1.143991   124A      1.155735   125A      1.166771
     126A      1.209577   127A      1.225929   128A      1.228246
     129A      1.232237   130A      1.242450   131A      1.247819
     132A      1.268018   133A      1.284232   134A      1.292681
     135A      1.301328   136A      1.332919   137A      1.344433
     138A      1.359331   139A      1.381097   140A      1.441656
     141A      1.453171   142A      1.479132   143A      1.497863
     144A      1.518392   145A      1.536712   146A      1.558501
     147A      1.570413   148A      1.603201   149A      1.634705
     150A      1.639534   151A      1.661845   152A      1.676301
     153A      1.688920   154A      1.695303   155A      1.703847
     156A      1.742455   157A      1.747732   158A      1.763905
     159A      1.790958   160A      1.810599   161A      1.827212
     162A      1.840566   163A      1.852811   164A      1.865132
     165A      1.879188   166A      1.891213   167A      1.899782
     168A      1.902256   169A      1.911289   170A      1.919824
     171A      1.932899   172A      1.939164   173A      1.944899
     174A      1.955282   175A      1.965908   176A      1.969078
     177A      1.969145   178A      1.986595   179A      1.993276
     180A      2.007533   181A      2.010648   182A      2.014233
     183A      2.022693   184A      2.064946   185A      2.076008
     186A      2.091787   187A      2.092762   188A      2.104276
     189A      2.111192   190A      2.127229   191A      2.138771
     192A      2.149424   193A      2.172983   194A      2.184700
     195A      2.200111   196A      2.235029   197A      2.265606
     198A      2.274510   199A      2.291029   200A      2.304216
     201A      2.312393   202A      2.322422   203A      2.347582
     204A      2.357344   205A      2.395733   206A      2.411394
     207A      2.454495   208A      2.462840   209A      2.464548
     210A      2.482479   211A      2.536387   212A      2.568502
     213A      2.583642   214A      2.585652   215A      2.594520
     216A      2.631683   217A      2.659814   218A      2.680593
     219A      2.750225   220A      2.767163   221A      2.771665
     222A      2.780968   223A      2.796598   224A      2.796818
     225A      2.801899   226A      2.810268   227A      2.834055
     228A      2.848574   229A      2.859852   230A      2.864478
     231A      2.929474   232A      2.954377   233A      2.964526
     234A      2.983735   235A      3.040069   236A      3.055319
     237A      3.083659   238A      3.113936   239A      3.214131
     240A      3.311455   241A      3.361596   242A      3.729808
     243A      3.953861

    Final Occupation by Irrep:
              A
    DOCC [    44 ]

  @RHF Final Energy:  -479.76447156457851

   => Energetics <=

    Nuclear Repulsion Energy =            631.3008931507567922
    One-Electron Energy =               -1900.5805590792490420
    Two-Electron Energy =                 789.5151943639137926
    Total Energy =                       -479.7644715645784572

Computation Completed

Properties will be evaluated at   0.000000,   0.000000,   0.000000 [a0]

Properties computed using the SCF density matrix

  Nuclear Dipole Moment: [e a0]
     X:    -0.1625      Y:   -19.4471      Z:    -4.6018

  Electronic Dipole Moment: [e a0]
     X:    -0.0180      Y:    20.2132      Z:     4.4991

  Dipole Moment: [e a0]
     X:    -0.1805      Y:     0.7661      Z:    -0.1027     Total:     0.7937

  Dipole Moment: [D]
     X:    -0.4587      Y:     1.9471      Z:    -0.2611     Total:     2.0174

*** tstop() called on ds3 at Mon Apr 27 06:58:27 2020
Module time:
	user time   =     150.88 seconds =       2.51 minutes
	system time =      72.50 seconds =       1.21 minutes
	total time  =        303 seconds =       5.05 minutes
Total time:
	user time   =     150.88 seconds =       2.51 minutes
	system time =      72.50 seconds =       1.21 minutes
	total time  =        303 seconds =       5.05 minutes
                                     G D M A

                                 by Anthony Stone

                           version 2.2.06, 22 June 2011

               Distributed Multipoles from Gaussian wavefunctions

Starting at 6:58:27 on 27 Apr 2020

Using SCF density matrix from file ./SSI/SSI-030TRP-079LEU-1-dimer.test.7735.fchk

                         Distributed Multipole Analysis

Standard DMA

Positions and radii in angstrom
Multipole moments in atomic units, ea_0^k for rank k

C          x =  2.985390  y =  1.849110  z = -0.794650 angstrom
           Maximum rank =  0   Radius =  0.650 angstrom
                   Q00  =  -0.225528

C          x =  0.647390  y =  1.007110  z =  0.065350 angstrom
           Maximum rank =  0   Radius =  0.650 angstrom
                   Q00  =  -0.046401

C          x =  1.586390  y =  2.038110  z = -0.286650 angstrom
           Maximum rank =  0   Radius =  0.650 angstrom
                   Q00  =  -0.116746

C          x = -0.558610  y =  1.646110  z =  0.454350 angstrom
           Maximum rank =  0   Radius =  0.650 angstrom
                   Q00  =   0.233912

C          x =  0.912390  y =  3.210110  z = -0.114650 angstrom
           Maximum rank =  0   Radius =  0.650 angstrom
                   Q00  =   0.069550

C          x = -0.405610  y = -1.127890  z =  0.489350 angstrom
           Maximum rank =  0   Radius =  0.650 angstrom
                   Q00  =  -0.098975

C          x = -1.573610  y = -0.456890  z =  0.866350 angstrom
           Maximum rank =  0   Radius =  0.650 angstrom
                   Q00  =   0.001066

C          x =  0.723390  y = -0.397890  z =  0.081350 angstrom
           Maximum rank =  0   Radius =  0.650 angstrom
                   Q00  =  -0.103923

C          x = -1.672610  y =  0.920110  z =  0.857350 angstrom
           Maximum rank =  0   Radius =  0.650 angstrom
                   Q00  =  -0.119671

N          x = -0.365610  y =  2.990110  z =  0.335350 angstrom
           Maximum rank =  0   Radius =  0.650 angstrom
                   Q00  =  -0.491622

H          x = -0.363610  y = -2.202890  z =  0.530350 angstrom
           Maximum rank =  0   Radius =  0.325 angstrom
                   Q00  =   0.066003

H          x = -2.433610  y = -1.035890  z =  1.164350 angstrom
           Maximum rank =  0   Radius =  0.325 angstrom
                   Q00  =   0.057397

H          x =  1.632390  y = -0.903890  z = -0.208650 angstrom
           Maximum rank =  0   Radius =  0.325 angstrom
                   Q00  =   0.068037

H          x = -2.581610  y =  1.419110  z =  1.148350 angstrom
           Maximum rank =  0   Radius =  0.325 angstrom
                   Q00  =   0.071280

H          x =  3.001390  y =  2.169110  z = -1.836650 angstrom
           Maximum rank =  0   Radius =  0.325 angstrom
                   Q00  =   0.100678

H          x =  3.231390  y =  0.786110  z = -0.778650 angstrom
           Maximum rank =  0   Radius =  0.325 angstrom
                   Q00  =   0.110564

H          x =  1.320390  y =  4.191110  z = -0.334650 angstrom
           Maximum rank =  0   Radius =  0.325 angstrom
                   Q00  =   0.094142

H          x = -1.097610  y =  3.703110  z =  0.409350 angstrom
           Maximum rank =  0   Radius =  0.325 angstrom
                   Q00  =   0.222047

H          x =  3.763150  y =  2.407022  z = -0.252600 angstrom
           Maximum rank =  0   Radius =  0.325 angstrom
                   Q00  =   0.106583

C          x = -0.894610  y = -4.835890  z = -0.169650 angstrom
           Maximum rank =  0   Radius =  0.650 angstrom
                   Q00  =  -0.240725

C          x = -1.308610  y = -5.599890  z = -1.427650 angstrom
           Maximum rank =  0   Radius =  0.650 angstrom
                   Q00  =  -0.229297

H          x = -0.055610  y = -4.179890  z = -0.399650 angstrom
           Maximum rank =  0   Radius =  0.325 angstrom
                   Q00  =   0.076565

H          x = -1.737610  y = -4.249890  z =  0.194350 angstrom
           Maximum rank =  0   Radius =  0.325 angstrom
                   Q00  =   0.077923

H          x = -0.595610  y = -5.530890  z =  0.610350 angstrom
           Maximum rank =  0   Radius =  0.325 angstrom
                   Q00  =   0.078910

H          x = -2.098610  y = -6.299890  z = -1.157650 angstrom
           Maximum rank =  0   Radius =  0.325 angstrom
                   Q00  =   0.078688

H          x = -0.452841  y = -6.143487  z = -1.854450 angstrom
           Maximum rank =  0   Radius =  0.325 angstrom
                   Q00  =   0.080985

H          x = -1.706426  y = -4.863893  z = -2.141830 angstrom
           Maximum rank =  0   Radius =  0.325 angstrom
                   Q00  =   0.078560

Total multipoles referred to origin at
           x =   0.000000,  y =    0.000000,  z =    0.000000 angstrom
                   Q00  =  -0.000000

Finished at 6:58:27 on 27 Apr 2020

  DMA results are available in the Python driver through the
	  variable('DMA DISTRIBUTED MULTIPOLES')
  and
	  variable('DMA TOTAL MULTIPOLES')
  commands.

    Psi4 stopped on: Monday, 27 April 2020 06:58AM
    Psi4 wall time for execution: 0:05:02.58

*** Psi4 exiting successfully. Buy a developer a beer!
