                               Psi4 1.3.2 release

  ==> Input File <==

--------------------------------------------------------------------------
import numpy as np
set {scf_type pk
basis cc-pvdz
d_convergence 10
gdma_switch   0
gdma_limit    0
gdma_origin   [ 0.0,  0.0,  0.0 ]
}
molecule test {
    units Angstrom
    0 1
    --
    0 1
    C               -1.093072503466996     1.560302975996771    -2.454911533700641
    C               -0.817072503466996    -0.189697024003229    -0.627911533700640
    C               -0.766072503466996     1.148302975996771    -1.039911533700640
    C               -0.530072503466996    -0.547697024003229     0.695088466299360
    C               -0.395072503466996     2.118302975996771    -0.105911533700640
    C               -0.168072503466996     0.435302975996771     1.600088466299360
    C               -0.103072503466996     1.766302975996771     1.211088466299360
    O                0.122927496533004     0.092302975996771     2.886088466299360
    H               -1.107072503466996    -0.957697024003229    -1.331911533700640
    H               -0.582072503466996    -1.578697024003229     1.016088466299360
    H               -0.718072503466996     2.573302975996771    -2.582911533700640
    H               -0.446072503466996     0.943302975996771    -3.100911533700640
    H               -0.318072503466996     3.152302975996771    -0.405911533700640
    H                0.187927496533004     2.528302975996771     1.922088466299360
    H                0.330927496533004     0.863302975996771     3.427088466299360
    H               -2.171239503466996     1.595572975996771    -2.670111533700640
    C                2.240927496533004    -2.513697024003229    -0.806911533700640
    C                1.046927496533004    -3.224697024003229    -1.434911533700640
    H                3.101927496533004    -2.708697024003229    -1.438911533700640
    H                2.029927496533004    -1.445697024003229    -0.795911533700640
    H                2.420927496533004    -2.838697024003229     0.218088466299360
    H                0.186927496533004    -3.115697024003229    -0.776911533700640
    H                1.277854496533004    -4.290127024003230    -1.581671533700640
    H                0.816591496533004    -2.766917024003229    -2.408241533700640

}
e, wfn = energy('scf', return_wfn=True)
gdma(wfn)
dmavals = variable('DMA DISTRIBUTED MULTIPOLES')
charges = np.array(dmavals)
print(charges)
np.save('SSI-003TYR-028VAL-2-dimer.npy', np.array(charges))--------------------------------------------------------------------------

*** tstart() called on ds3
*** at Tue Apr 28 00:25:36 2020

   => Loading Basis Set <=

    Name: CC-PVDZ
    Role: ORBITAL
    Keyword: BASIS
    atoms 1-7, 17-18  entry C          line   138 file /theoryfs2/ds/metcalf/miniconda2/envs/tf2gpu/share/psi4/basis/cc-pvdz.gbs
    atoms 8           entry O          line   198 file /theoryfs2/ds/metcalf/miniconda2/envs/tf2gpu/share/psi4/basis/cc-pvdz.gbs
    atoms 9-16, 19-24 entry H          line    22 file /theoryfs2/ds/metcalf/miniconda2/envs/tf2gpu/share/psi4/basis/cc-pvdz.gbs

         ---------------------------------------------------------
                                   SCF
               by Justin Turney, Rob Parrish, Andy Simmonett
                          and Daniel G. A. Smith
                              RHF Reference
                        1 Threads,    500 MiB Core
         ---------------------------------------------------------

  ==> Geometry <==

    Molecular point group: c1
    Full point group: C1

    Geometry (in Angstrom), charge = 0, multiplicity = 1:

       Center              X                  Y                   Z               Mass
    ------------   -----------------  -----------------  -----------------  -----------------
         C           -1.093072503467     1.560302975997    -2.454911533701    12.000000000000
         C           -0.817072503467    -0.189697024003    -0.627911533701    12.000000000000
         C           -0.766072503467     1.148302975997    -1.039911533701    12.000000000000
         C           -0.530072503467    -0.547697024003     0.695088466299    12.000000000000
         C           -0.395072503467     2.118302975997    -0.105911533701    12.000000000000
         C           -0.168072503467     0.435302975997     1.600088466299    12.000000000000
         C           -0.103072503467     1.766302975997     1.211088466299    12.000000000000
         O            0.122927496533     0.092302975997     2.886088466299    15.994914619570
         H           -1.107072503467    -0.957697024003    -1.331911533701     1.007825032230
         H           -0.582072503467    -1.578697024003     1.016088466299     1.007825032230
         H           -0.718072503467     2.573302975997    -2.582911533701     1.007825032230
         H           -0.446072503467     0.943302975997    -3.100911533701     1.007825032230
         H           -0.318072503467     3.152302975997    -0.405911533701     1.007825032230
         H            0.187927496533     2.528302975997     1.922088466299     1.007825032230
         H            0.330927496533     0.863302975997     3.427088466299     1.007825032230
         H           -2.171239503467     1.595572975997    -2.670111533701     1.007825032230
         C            2.240927496533    -2.513697024003    -0.806911533701    12.000000000000
         C            1.046927496533    -3.224697024003    -1.434911533701    12.000000000000
         H            3.101927496533    -2.708697024003    -1.438911533701     1.007825032230
         H            2.029927496533    -1.445697024003    -0.795911533701     1.007825032230
         H            2.420927496533    -2.838697024003     0.218088466299     1.007825032230
         H            0.186927496533    -3.115697024003    -0.776911533701     1.007825032230
         H            1.277854496533    -4.290127024003    -1.581671533701     1.007825032230
         H            0.816591496533    -2.766917024003    -2.408241533701     1.007825032230

  Running in c1 symmetry.

  Rotational constants: A =      0.04224  B =      0.02902  C =      0.01916 [cm^-1]
  Rotational constants: A =   1266.22937  B =    869.97002  C =    574.41804 [MHz]
  Nuclear repulsion =  500.956679597296159

  Charge       = 0
  Multiplicity = 1
  Electrons    = 76
  Nalpha       = 38
  Nbeta        = 38

  ==> Algorithm <==

  SCF Algorithm Type is PK.
  DIIS enabled.
  MOM disabled.
  Fractional occupation disabled.
  Guess Type is SAD.
  Energy threshold   = 1.00e-06
  Density threshold  = 1.00e-10
  Integral threshold = 0.00e+00

  ==> Primary Basis <==

  Basis Set: CC-PVDZ
    Blend: CC-PVDZ
    Number of shells: 102
    Number of basis function: 210
    Number of Cartesian functions: 220
    Spherical Harmonics?: true
    Max angular momentum: 2

  ==> Pre-Iterations <==

   -------------------------------------------------------
    Irrep   Nso     Nmo     Nalpha   Nbeta   Ndocc  Nsocc
   -------------------------------------------------------
     A        210     210       0       0       0       0
   -------------------------------------------------------
    Total     210     210      38      38      38       0
   -------------------------------------------------------

  ==> Integral Setup <==

  Using integral reordering PK algorithm.
  Sizing the integral batches needed.
  Building batch lookup table.
   Calculation information:
      Number of atoms:                  24
      Number of AO shells:             102
      Number of primitives:            290
      Number of atomic orbitals:       220
      Number of basis functions:       210

      Integral cutoff                 1.00e-12
      Number of threads:                 1

	Batch   1 pq = [       0,    9405] index = [             0,44231715] size =     44231715
	Batch   2 pq = [    9405,   13301] index = [      44231715,88464951] size =     44233236
	Batch   3 pq = [   13301,   16290] index = [      88464951,132690195] size =     44225244
	Batch   4 pq = [   16290,   18810] index = [     132690195,176917455] size =     44227260
	Batch   5 pq = [   18810,   21030] index = [     176917455,221140965] size =     44223510
	Batch   6 pq = [   21030,   22155] index = [     221140965,245433090] size =     24292125
  Task number: 23
  Buffer size: 11059200
  Buffer per thread: 2
  We computed 12390493 shell quartets total.
  Whereas there are 13799631 unique shell quartets.

  ==> DiskJK: Disk-Based J/K Matrices <==

    J tasked:                  Yes
    K tasked:                  Yes
    wK tasked:                  No
    Memory [MiB]:              375
    Schwarz Cutoff:          1E-12

    OpenMP threads:              1

  Minimum eigenvalue in the overlap matrix is 3.2444426982E-04.
  Using Symmetric Orthogonalization.

  SCF Guess: Superposition of Atomic Densities via on-the-fly atomic UHF.

  ==> Iterations <==

                        Total Energy        Delta E     RMS |[F,P]|

   @RHF iter SAD:  -422.69792628913615   -4.22698e+02   0.00000e+00
   @RHF iter   1:  -423.59658639922714   -8.98660e-01   2.97785e-03 DIIS
   @RHF iter   2:  -423.81330358683738   -2.16717e-01   1.25117e-03 DIIS
   @RHF iter   3:  -423.84789548300319   -3.45919e-02   2.80662e-04 DIIS
   @RHF iter   4:  -423.85073651851530   -2.84104e-03   1.12696e-04 DIIS
   @RHF iter   5:  -423.85106163037125   -3.25112e-04   2.09176e-05 DIIS
   @RHF iter   6:  -423.85107924492200   -1.76146e-05   6.41477e-06 DIIS
   @RHF iter   7:  -423.85108089988080   -1.65496e-06   2.12211e-06 DIIS
   @RHF iter   8:  -423.85108113962741   -2.39747e-07   8.03872e-07 DIIS
   @RHF iter   9:  -423.85108118221802   -4.25906e-08   3.41839e-07 DIIS
   @RHF iter  10:  -423.85108119131252   -9.09449e-09   1.48622e-07 DIIS
   @RHF iter  11:  -423.85108119420943   -2.89691e-09   6.48487e-08 DIIS
   @RHF iter  12:  -423.85108119468680   -4.77371e-10   2.95219e-08 DIIS
   @RHF iter  13:  -423.85108119476371   -7.69091e-11   8.16832e-09 DIIS
   @RHF iter  14:  -423.85108119476808   -4.37694e-12   2.24702e-09 DIIS
   @RHF iter  15:  -423.85108119476888   -7.95808e-13   7.22564e-10 DIIS
   @RHF iter  16:  -423.85108119476916   -2.84217e-13   2.67555e-10 DIIS
   @RHF iter  17:  -423.85108119476888    2.84217e-13   1.22996e-10 DIIS
   @RHF iter  18:  -423.85108119476951   -6.25278e-13   6.33616e-11 DIIS
  Energy and wave function converged.

  ==> Post-Iterations <==

    Orbital Energies [Eh]
    ---------------------

    Doubly Occupied:

       1A    -20.581990     2A    -11.297964     3A    -11.239605
       4A    -11.238925     5A    -11.234098     6A    -11.232600
       7A    -11.230807     8A    -11.229945     9A    -11.215288
      10A    -11.208708    11A     -1.399106    12A     -1.149879
      13A     -1.038262    14A     -1.018550    15A     -1.013945
      16A     -0.925987    17A     -0.844757    18A     -0.830224
      19A     -0.801128    20A     -0.731283    21A     -0.666750
      22A     -0.641797    23A     -0.605371    24A     -0.601532
      25A     -0.593392    26A     -0.590005    27A     -0.583910
      28A     -0.577809    29A     -0.564098    30A     -0.521187
      31A     -0.494994    32A     -0.492495    33A     -0.485630
      34A     -0.482194    35A     -0.478737    36A     -0.466441
      37A     -0.337572    38A     -0.302644

    Virtual:

      39A      0.127416    40A      0.155378    41A      0.176818
      42A      0.180201    43A      0.196780    44A      0.212288
      45A      0.228050    46A      0.238051    47A      0.247917
      48A      0.258504    49A      0.276047    50A      0.282315
      51A      0.294699    52A      0.295688    53A      0.301709
      54A      0.327012    55A      0.371778    56A      0.381221
      57A      0.394631    58A      0.434542    59A      0.461024
      60A      0.478203    61A      0.500179    62A      0.517476
      63A      0.593880    64A      0.604405    65A      0.605726
      66A      0.613644    67A      0.642417    68A      0.648834
      69A      0.662823    70A      0.673761    71A      0.688831
      72A      0.697577    73A      0.700682    74A      0.714512
      75A      0.733734    76A      0.745429    77A      0.752846
      78A      0.771054    79A      0.796804    80A      0.804851
      81A      0.810534    82A      0.838124    83A      0.847176
      84A      0.849499    85A      0.854102    86A      0.874066
      87A      0.884471    88A      0.893828    89A      0.898374
      90A      0.903284    91A      0.914531    92A      0.918437
      93A      0.925956    94A      0.941590    95A      0.946509
      96A      0.949974    97A      0.967183    98A      0.992677
      99A      1.013069   100A      1.013860   101A      1.042278
     102A      1.057534   103A      1.114467   104A      1.127651
     105A      1.138323   106A      1.147946   107A      1.152603
     108A      1.181613   109A      1.207508   110A      1.236636
     111A      1.245183   112A      1.251883   113A      1.268457
     114A      1.285852   115A      1.303573   116A      1.314539
     117A      1.317596   118A      1.363721   119A      1.366985
     120A      1.392490   121A      1.476746   122A      1.480076
     123A      1.484230   124A      1.511937   125A      1.537685
     126A      1.552394   127A      1.605986   128A      1.615161
     129A      1.622456   130A      1.667945   131A      1.684059
     132A      1.690042   133A      1.699538   134A      1.735011
     135A      1.753499   136A      1.785664   137A      1.808338
     138A      1.817332   139A      1.862392   140A      1.872657
     141A      1.878847   142A      1.888338   143A      1.894197
     144A      1.900362   145A      1.914353   146A      1.916965
     147A      1.928840   148A      1.946454   149A      1.950117
     150A      1.956364   151A      1.963391   152A      1.967081
     153A      1.975685   154A      1.984011   155A      2.006718
     156A      2.015066   157A      2.027119   158A      2.048080
     159A      2.062447   160A      2.074319   161A      2.084397
     162A      2.113187   163A      2.132239   164A      2.143895
     165A      2.156333   166A      2.178682   167A      2.206109
     168A      2.227155   169A      2.263891   170A      2.272801
     171A      2.282764   172A      2.312003   173A      2.318445
     174A      2.334043   175A      2.372001   176A      2.427901
     177A      2.451259   178A      2.459809   179A      2.469002
     180A      2.480561   181A      2.489670   182A      2.507585
     183A      2.543076   184A      2.576334   185A      2.598060
     186A      2.616408   187A      2.647850   188A      2.752942
     189A      2.774533   190A      2.776766   191A      2.804124
     192A      2.809316   193A      2.811814   194A      2.822659
     195A      2.847412   196A      2.861676   197A      2.908126
     198A      2.951994   199A      2.968104   200A      2.972398
     201A      3.005450   202A      3.086453   203A      3.089664
     204A      3.250814   205A      3.274761   206A      3.347346
     207A      3.574935   208A      3.674636   209A      3.969878
     210A      4.192216

    Final Occupation by Irrep:
              A
    DOCC [    38 ]

  @RHF Final Energy:  -423.85108119476951

   => Energetics <=

    Nuclear Repulsion Energy =            500.9566795972961586
    One-Electron Energy =               -1567.7163076172691945
    Two-Electron Energy =                 642.9085468252034161
    Total Energy =                       -423.8510811947695629

Computation Completed

Properties will be evaluated at   0.000000,   0.000000,   0.000000 [a0]

Properties computed using the SCF density matrix

  Nuclear Dipole Moment: [e a0]
     X:     4.6977      Y:    -7.5426      Z:    -9.8390

  Electronic Dipole Moment: [e a0]
     X:    -4.6511      Y:     8.1768      Z:     9.8100

  Dipole Moment: [e a0]
     X:     0.0466      Y:     0.6342      Z:    -0.0290     Total:     0.6366

  Dipole Moment: [D]
     X:     0.1185      Y:     1.6121      Z:    -0.0736     Total:     1.6181

*** tstop() called on ds3 at Tue Apr 28 00:29:06 2020
Module time:
	user time   =      90.81 seconds =       1.51 minutes
	system time =      35.70 seconds =       0.60 minutes
	total time  =        210 seconds =       3.50 minutes
Total time:
	user time   =      90.81 seconds =       1.51 minutes
	system time =      35.70 seconds =       0.60 minutes
	total time  =        210 seconds =       3.50 minutes
                                     G D M A

                                 by Anthony Stone

                           version 2.2.06, 22 June 2011

               Distributed Multipoles from Gaussian wavefunctions

Starting at 0:29:6 on 28 Apr 2020

Using SCF density matrix from file ./SSI/SSI-003TYR-028VAL-2-dimer.test.5261.fchk

                         Distributed Multipole Analysis

Standard DMA

Positions and radii in angstrom
Multipole moments in atomic units, ea_0^k for rank k

C          x = -1.093073  y =  1.560303  z = -2.454912 angstrom
           Maximum rank =  0   Radius =  0.650 angstrom
                   Q00  =  -0.165988

C          x = -0.817073  y = -0.189697  z = -0.627912 angstrom
           Maximum rank =  0   Radius =  0.650 angstrom
                   Q00  =  -0.012860

C          x = -0.766073  y =  1.148303  z = -1.039912 angstrom
           Maximum rank =  0   Radius =  0.650 angstrom
                   Q00  =  -0.143348

C          x = -0.530073  y = -0.547697  z =  0.695088 angstrom
           Maximum rank =  0   Radius =  0.650 angstrom
                   Q00  =  -0.118231

C          x = -0.395073  y =  2.118303  z = -0.105912 angstrom
           Maximum rank =  0   Radius =  0.650 angstrom
                   Q00  =  -0.057360

C          x = -0.168073  y =  0.435303  z =  1.600088 angstrom
           Maximum rank =  0   Radius =  0.650 angstrom
                   Q00  =   0.395993

C          x = -0.103073  y =  1.766303  z =  1.211088 angstrom
           Maximum rank =  0   Radius =  0.650 angstrom
                   Q00  =  -0.181284

O          x =  0.122927  y =  0.092303  z =  2.886088 angstrom
           Maximum rank =  0   Radius =  0.650 angstrom
                   Q00  =  -0.681366

H          x = -1.107073  y = -0.957697  z = -1.331912 angstrom
           Maximum rank =  0   Radius =  0.325 angstrom
                   Q00  =   0.066434

H          x = -0.582073  y = -1.578697  z =  1.016088 angstrom
           Maximum rank =  0   Radius =  0.325 angstrom
                   Q00  =   0.080226

H          x = -0.718073  y =  2.573303  z = -2.582912 angstrom
           Maximum rank =  0   Radius =  0.325 angstrom
                   Q00  =   0.091189

H          x = -0.446073  y =  0.943303  z = -3.100912 angstrom
           Maximum rank =  0   Radius =  0.325 angstrom
                   Q00  =   0.084564

H          x = -0.318073  y =  3.152303  z = -0.405912 angstrom
           Maximum rank =  0   Radius =  0.325 angstrom
                   Q00  =   0.069373

H          x =  0.187927  y =  2.528303  z =  1.922088 angstrom
           Maximum rank =  0   Radius =  0.325 angstrom
                   Q00  =   0.071115

H          x =  0.330927  y =  0.863303  z =  3.427088 angstrom
           Maximum rank =  0   Radius =  0.325 angstrom
                   Q00  =   0.406430

H          x = -2.171240  y =  1.595573  z = -2.670112 angstrom
           Maximum rank =  0   Radius =  0.325 angstrom
                   Q00  =   0.095991

C          x =  2.240928  y = -2.513697  z = -0.806912 angstrom
           Maximum rank =  0   Radius =  0.650 angstrom
                   Q00  =  -0.232350

C          x =  1.046927  y = -3.224697  z = -1.434912 angstrom
           Maximum rank =  0   Radius =  0.650 angstrom
                   Q00  =  -0.235564

H          x =  3.101927  y = -2.708697  z = -1.438912 angstrom
           Maximum rank =  0   Radius =  0.325 angstrom
                   Q00  =   0.073750

H          x =  2.029927  y = -1.445697  z = -0.795912 angstrom
           Maximum rank =  0   Radius =  0.325 angstrom
                   Q00  =   0.088497

H          x =  2.420927  y = -2.838697  z =  0.218088 angstrom
           Maximum rank =  0   Radius =  0.325 angstrom
                   Q00  =   0.081598

H          x =  0.186927  y = -3.115697  z = -0.776912 angstrom
           Maximum rank =  0   Radius =  0.325 angstrom
                   Q00  =   0.072989

H          x =  1.277854  y = -4.290127  z = -1.581672 angstrom
           Maximum rank =  0   Radius =  0.325 angstrom
                   Q00  =   0.076090

H          x =  0.816591  y = -2.766917  z = -2.408242 angstrom
           Maximum rank =  0   Radius =  0.325 angstrom
                   Q00  =   0.074110

Total multipoles referred to origin at
           x =   0.000000,  y =    0.000000,  z =    0.000000 angstrom
                   Q00  =  -0.000000

Finished at 0:29:6 on 28 Apr 2020

  DMA results are available in the Python driver through the
	  variable('DMA DISTRIBUTED MULTIPOLES')
  and
	  variable('DMA TOTAL MULTIPOLES')
  commands.

    Psi4 stopped on: Tuesday, 28 April 2020 12:29AM
    Psi4 wall time for execution: 0:03:29.88

*** Psi4 exiting successfully. Buy a developer a beer!
