                               Psi4 1.3.2 release

  ==> Input File <==

--------------------------------------------------------------------------
import numpy as np
set {scf_type pk
basis cc-pvdz
d_convergence 10
gdma_switch   0
gdma_limit    0
gdma_origin   [ 0.0,  0.0,  0.0 ]
}
molecule test {
    units Angstrom
    0 1
    --
    0 1
    C               -1.513573414954532    -1.672996165151855    -0.085726375201992
    C               -1.750573414954532    -1.950996165151855    -1.561726375201992
    H               -0.484573414954532    -1.906996165151855     0.191273624798008
    H               -1.727573414954532    -0.624996165151855     0.118273624798008
    H               -2.189573414954532    -2.278996165151855     0.518273624798008
    H               -2.756573414954532    -1.612996165151855    -1.810726375201992
    H               -1.684983414954532    -3.031136165151855    -1.759216375201992
    H               -1.030573414954532    -1.389146165151855    -2.174846375201992
    C                0.722426585045468     1.130003834848145     0.962273624798007
    C                2.188426585045469     0.713003834848145     1.089273624798008
    C                0.405426585045468     1.851003834848145    -0.345726375201992
    H                0.089426585045468     0.254003834848145     1.082273624798008
    H                0.496426585045468     1.817003834848145     1.780273624798008
    H                2.823426585045469     1.533003834848145     0.775273624798008
    H                1.029426585045468     2.735003834848145    -0.401726375201992
    H                0.644426585045468     1.203003834848145    -1.185726375201992
    H                2.403876585045468    -0.157896165151855     0.452783624798008
    H                2.420806585045469     0.492243834848145     2.141533624798008
    H               -0.654703414954532     2.134193834848145    -0.422696375201992

}
e, wfn = energy('scf', return_wfn=True)
gdma(wfn)
dmavals = variable('DMA DISTRIBUTED MULTIPOLES')
charges = np.array(dmavals)
print(charges)
np.save('SSI-007VAL-154GLN-1-dimer.npy', np.array(charges))--------------------------------------------------------------------------

*** tstart() called on ds3
*** at Tue Apr 28 11:53:05 2020

   => Loading Basis Set <=

    Name: CC-PVDZ
    Role: ORBITAL
    Keyword: BASIS
    atoms 1-2, 9-11  entry C          line   138 file /theoryfs2/ds/metcalf/miniconda2/envs/tf2gpu/share/psi4/basis/cc-pvdz.gbs
    atoms 3-8, 12-19 entry H          line    22 file /theoryfs2/ds/metcalf/miniconda2/envs/tf2gpu/share/psi4/basis/cc-pvdz.gbs

         ---------------------------------------------------------
                                   SCF
               by Justin Turney, Rob Parrish, Andy Simmonett
                          and Daniel G. A. Smith
                              RHF Reference
                        1 Threads,    500 MiB Core
         ---------------------------------------------------------

  ==> Geometry <==

    Molecular point group: c1
    Full point group: C1

    Geometry (in Angstrom), charge = 0, multiplicity = 1:

       Center              X                  Y                   Z               Mass
    ------------   -----------------  -----------------  -----------------  -----------------
         C           -1.513573414955    -1.672996165152    -0.085726375202    12.000000000000
         C           -1.750573414955    -1.950996165152    -1.561726375202    12.000000000000
         H           -0.484573414955    -1.906996165152     0.191273624798     1.007825032230
         H           -1.727573414955    -0.624996165152     0.118273624798     1.007825032230
         H           -2.189573414955    -2.278996165152     0.518273624798     1.007825032230
         H           -2.756573414955    -1.612996165152    -1.810726375202     1.007825032230
         H           -1.684983414955    -3.031136165152    -1.759216375202     1.007825032230
         H           -1.030573414955    -1.389146165152    -2.174846375202     1.007825032230
         C            0.722426585045     1.130003834848     0.962273624798    12.000000000000
         C            2.188426585045     0.713003834848     1.089273624798    12.000000000000
         C            0.405426585045     1.851003834848    -0.345726375202    12.000000000000
         H            0.089426585045     0.254003834848     1.082273624798     1.007825032230
         H            0.496426585045     1.817003834848     1.780273624798     1.007825032230
         H            2.823426585045     1.533003834848     0.775273624798     1.007825032230
         H            1.029426585045     2.735003834848    -0.401726375202     1.007825032230
         H            0.644426585045     1.203003834848    -1.185726375202     1.007825032230
         H            2.403876585045    -0.157896165152     0.452783624798     1.007825032230
         H            2.420806585045     0.492243834848     2.141533624798     1.007825032230
         H           -0.654703414955     2.134193834848    -0.422696375202     1.007825032230

  Running in c1 symmetry.

  Rotational constants: A =      0.21055  B =      0.04458  C =      0.04087 [cm^-1]
  Rotational constants: A =   6312.04593  B =   1336.34601  C =   1225.37703 [MHz]
  Nuclear repulsion =  180.546821595627478

  Charge       = 0
  Multiplicity = 1
  Electrons    = 44
  Nalpha       = 22
  Nbeta        = 22

  ==> Algorithm <==

  SCF Algorithm Type is PK.
  DIIS enabled.
  MOM disabled.
  Fractional occupation disabled.
  Guess Type is SAD.
  Energy threshold   = 1.00e-06
  Density threshold  = 1.00e-10
  Integral threshold = 0.00e+00

  ==> Primary Basis <==

  Basis Set: CC-PVDZ
    Blend: CC-PVDZ
    Number of shells: 72
    Number of basis function: 140
    Number of Cartesian functions: 145
    Spherical Harmonics?: true
    Max angular momentum: 2

  ==> Pre-Iterations <==

   -------------------------------------------------------
    Irrep   Nso     Nmo     Nalpha   Nbeta   Ndocc  Nsocc
   -------------------------------------------------------
     A        140     140       0       0       0       0
   -------------------------------------------------------
    Total     140     140      22      22      22       0
   -------------------------------------------------------

  ==> Integral Setup <==

  Using integral reordering PK algorithm.
  Sizing the integral batches needed.
  Building batch lookup table.
   Calculation information:
      Number of atoms:                  19
      Number of AO shells:              72
      Number of primitives:            180
      Number of atomic orbitals:       145
      Number of basis functions:       140

      Integral cutoff                 1.00e-12
      Number of threads:                 1

	Batch   1 pq = [       0,    9405] index = [             0,44231715] size =     44231715
	Batch   2 pq = [    9405,    9870] index = [      44231715,48713385] size =      4481670
  Task number: 5
  Buffer size: 11059200
  Buffer per thread: 2
  We computed 3028046 shell quartets total.
  Whereas there are 3454506 unique shell quartets.

  ==> DiskJK: Disk-Based J/K Matrices <==

    J tasked:                  Yes
    K tasked:                  Yes
    wK tasked:                  No
    Memory [MiB]:              375
    Schwarz Cutoff:          1E-12

    OpenMP threads:              1

  Minimum eigenvalue in the overlap matrix is 5.5430824759E-03.
  Using Symmetric Orthogonalization.

  SCF Guess: Superposition of Atomic Densities via on-the-fly atomic UHF.

  ==> Iterations <==

                        Total Energy        Delta E     RMS |[F,P]|

   @RHF iter SAD:  -196.39491378285260   -1.96395e+02   0.00000e+00
   @RHF iter   1:  -197.30988174854951   -9.14968e-01   3.81478e-03 DIIS
   @RHF iter   2:  -197.47058796805516   -1.60706e-01   1.64852e-03 DIIS
   @RHF iter   3:  -197.49925519558997   -2.86672e-02   3.27328e-04 DIIS
   @RHF iter   4:  -197.50149686397523   -2.24167e-03   4.89643e-05 DIIS
   @RHF iter   5:  -197.50153665491251   -3.97909e-05   1.48650e-05 DIIS
   @RHF iter   6:  -197.50154006571557   -3.41080e-06   2.50182e-06 DIIS
   @RHF iter   7:  -197.50154017874598   -1.13030e-07   4.76018e-07 DIIS
   @RHF iter   8:  -197.50154018347925   -4.73327e-09   1.24111e-07 DIIS
   @RHF iter   9:  -197.50154018378069   -3.01441e-10   3.88171e-08 DIIS
   @RHF iter  10:  -197.50154018381539   -3.47029e-11   8.18876e-09 DIIS
   @RHF iter  11:  -197.50154018381679   -1.39266e-12   1.53076e-09 DIIS
   @RHF iter  12:  -197.50154018381633    4.54747e-13   2.82340e-10 DIIS
   @RHF iter  13:  -197.50154018381670   -3.69482e-13   5.39942e-11 DIIS
  Energy and wave function converged.

  ==> Post-Iterations <==

    Orbital Energies [Eh]
    ---------------------

    Doubly Occupied:

       1A    -11.219361     2A    -11.216744     3A    -11.216723
       4A    -11.216074     5A    -11.215112     6A     -1.053068
       7A     -1.021522     8A     -0.924554     9A     -0.836614
      10A     -0.796217    11A     -0.628208    12A     -0.601556
      13A     -0.598954    14A     -0.593663    15A     -0.547325
      16A     -0.533227    17A     -0.502652    18A     -0.489112
      19A     -0.485911    20A     -0.472293    21A     -0.466559
      22A     -0.463083

    Virtual:

      23A      0.162943    24A      0.200692    25A      0.212899
      26A      0.223141    27A      0.234808    28A      0.247864
      29A      0.255376    30A      0.268462    31A      0.271890
      32A      0.290720    33A      0.306671    34A      0.310086
      35A      0.323716    36A      0.335304    37A      0.374627
      38A      0.411397    39A      0.428622    40A      0.571377
      41A      0.577223    42A      0.599880    43A      0.614460
      44A      0.618517    45A      0.622750    46A      0.644723
      47A      0.655548    48A      0.680016    49A      0.758087
      50A      0.801647    51A      0.819109    52A      0.849331
      53A      0.865022    54A      0.875612    55A      0.878403
      56A      0.887286    57A      0.893095    58A      0.897021
      59A      0.900880    60A      0.904322    61A      0.917665
      62A      0.921447    63A      0.937295    64A      0.944637
      65A      0.961465    66A      0.967387    67A      0.997632
      68A      1.010181    69A      1.119011    70A      1.124305
      71A      1.126515    72A      1.168017    73A      1.240049
      74A      1.264680    75A      1.373827    76A      1.455516
      77A      1.474893    78A      1.481770    79A      1.499217
      80A      1.531303    81A      1.576550    82A      1.634718
      83A      1.664390    84A      1.678233    85A      1.689297
      86A      1.691858    87A      1.716340    88A      1.841749
      89A      1.853421    90A      1.875906    91A      1.878578
      92A      1.887058    93A      1.915284    94A      1.917422
      95A      1.930279    96A      1.942098    97A      1.947166
      98A      1.949333    99A      1.956373   100A      1.961749
     101A      1.967574   102A      1.978343   103A      1.992275
     104A      2.007958   105A      2.018213   106A      2.041683
     107A      2.047282   108A      2.105955   109A      2.123046
     110A      2.132653   111A      2.167377   112A      2.284682
     113A      2.299362   114A      2.303146   115A      2.310588
     116A      2.321771   117A      2.351987   118A      2.451779
     119A      2.478897   120A      2.493287   121A      2.532983
     122A      2.567651   123A      2.576070   124A      2.592590
     125A      2.619410   126A      2.642002   127A      2.755009
     128A      2.760063   129A      2.777704   130A      2.795728
     131A      2.805673   132A      2.812969   133A      2.849684
     134A      2.851989   135A      2.922669   136A      2.950589
     137A      2.965944   138A      2.968388   139A      2.982308
     140A      3.076481

    Final Occupation by Irrep:
              A
    DOCC [    22 ]

  @RHF Final Energy:  -197.50154018381670

   => Energetics <=

    Nuclear Repulsion Energy =            180.5468215956274776
    One-Electron Energy =                -621.8996603283902687
    Two-Electron Energy =                 243.8512985489460902
    Total Energy =                       -197.5015401838167008

Computation Completed

Properties will be evaluated at   0.000000,   0.000000,   0.000000 [a0]

Properties computed using the SCF density matrix

  Nuclear Dipole Moment: [e a0]
     X:    -0.5819      Y:    -0.7816      Z:    -0.6515

  Electronic Dipole Moment: [e a0]
     X:     0.5392      Y:     0.7734      Z:     0.6764

  Dipole Moment: [e a0]
     X:    -0.0427      Y:    -0.0082      Z:     0.0248     Total:     0.0501

  Dipole Moment: [D]
     X:    -0.1085      Y:    -0.0208      Z:     0.0632     Total:     0.1273

*** tstop() called on ds3 at Tue Apr 28 11:53:30 2020
Module time:
	user time   =      19.40 seconds =       0.32 minutes
	system time =       6.81 seconds =       0.11 minutes
	total time  =         25 seconds =       0.42 minutes
Total time:
	user time   =      19.40 seconds =       0.32 minutes
	system time =       6.81 seconds =       0.11 minutes
	total time  =         25 seconds =       0.42 minutes
                                     G D M A

                                 by Anthony Stone

                           version 2.2.06, 22 June 2011

               Distributed Multipoles from Gaussian wavefunctions

Starting at 11:53:30 on 28 Apr 2020

Using SCF density matrix from file ./SSI/SSI-007VAL-154GLN-1-dimer.test.16140.fchk

                         Distributed Multipole Analysis

Standard DMA

Positions and radii in angstrom
Multipole moments in atomic units, ea_0^k for rank k

C          x = -1.513573  y = -1.672996  z = -0.085726 angstrom
           Maximum rank =  0   Radius =  0.650 angstrom
                   Q00  =  -0.224366

C          x = -1.750573  y = -1.950996  z = -1.561726 angstrom
           Maximum rank =  0   Radius =  0.650 angstrom
                   Q00  =  -0.242994

H          x = -0.484573  y = -1.906996  z =  0.191274 angstrom
           Maximum rank =  0   Radius =  0.325 angstrom
                   Q00  =   0.076875

H          x = -1.727573  y = -0.624996  z =  0.118274 angstrom
           Maximum rank =  0   Radius =  0.325 angstrom
                   Q00  =   0.078241

H          x = -2.189573  y = -2.278996  z =  0.518274 angstrom
           Maximum rank =  0   Radius =  0.325 angstrom
                   Q00  =   0.078832

H          x = -2.756573  y = -1.612996  z = -1.810726 angstrom
           Maximum rank =  0   Radius =  0.325 angstrom
                   Q00  =   0.077211

H          x = -1.684983  y = -3.031136  z = -1.759216 angstrom
           Maximum rank =  0   Radius =  0.325 angstrom
                   Q00  =   0.078583

H          x = -1.030573  y = -1.389146  z = -2.174846 angstrom
           Maximum rank =  0   Radius =  0.325 angstrom
                   Q00  =   0.078656

C          x =  0.722427  y =  1.130004  z =  0.962274 angstrom
           Maximum rank =  0   Radius =  0.650 angstrom
                   Q00  =  -0.086529

C          x =  2.188427  y =  0.713004  z =  1.089274 angstrom
           Maximum rank =  0   Radius =  0.650 angstrom
                   Q00  =  -0.247324

C          x =  0.405427  y =  1.851004  z = -0.345726 angstrom
           Maximum rank =  0   Radius =  0.650 angstrom
                   Q00  =  -0.238639

H          x =  0.089427  y =  0.254004  z =  1.082274 angstrom
           Maximum rank =  0   Radius =  0.325 angstrom
                   Q00  =   0.058780

H          x =  0.496427  y =  1.817004  z =  1.780274 angstrom
           Maximum rank =  0   Radius =  0.325 angstrom
                   Q00  =   0.040604

H          x =  2.823427  y =  1.533004  z =  0.775274 angstrom
           Maximum rank =  0   Radius =  0.325 angstrom
                   Q00  =   0.075545

H          x =  1.029427  y =  2.735004  z = -0.401726 angstrom
           Maximum rank =  0   Radius =  0.325 angstrom
                   Q00  =   0.078969

H          x =  0.644427  y =  1.203004  z = -1.185726 angstrom
           Maximum rank =  0   Radius =  0.325 angstrom
                   Q00  =   0.073302

H          x =  2.403877  y = -0.157896  z =  0.452784 angstrom
           Maximum rank =  0   Radius =  0.325 angstrom
                   Q00  =   0.077186

H          x =  2.420807  y =  0.492244  z =  2.141534 angstrom
           Maximum rank =  0   Radius =  0.325 angstrom
                   Q00  =   0.083319

H          x = -0.654703  y =  2.134194  z = -0.422696 angstrom
           Maximum rank =  0   Radius =  0.325 angstrom
                   Q00  =   0.083750

Total multipoles referred to origin at
           x =   0.000000,  y =    0.000000,  z =    0.000000 angstrom
                   Q00  =  -0.000000

Finished at 11:53:30 on 28 Apr 2020

  DMA results are available in the Python driver through the
	  variable('DMA DISTRIBUTED MULTIPOLES')
  and
	  variable('DMA TOTAL MULTIPOLES')
  commands.

    Psi4 stopped on: Tuesday, 28 April 2020 11:53AM
    Psi4 wall time for execution: 0:00:25.33

*** Psi4 exiting successfully. Buy a developer a beer!
