                               Psi4 1.3.2 release

  ==> Input File <==

--------------------------------------------------------------------------
import numpy as np
set {scf_type pk
basis cc-pvdz
d_convergence 10
gdma_switch   0
gdma_limit    0
gdma_origin   [ 0.0,  0.0,  0.0 ]
}
molecule test {
    units Angstrom
    0 1
    --
    0 1
    C               -1.730216664853484    -0.904784291084248    -0.811990533096317
    C               -1.962216664853484    -1.691784291084248     0.477009466903683
    H               -2.337216664853484    -1.295784291084248    -1.626990533096316
    H               -2.007216664853484     0.137215708915752    -0.652990533096316
    H               -0.678216664853485    -0.953784291084248    -1.097990533096317
    H               -3.019216664853484    -1.629784291084248     0.726009466903683
    H               -1.685873664853484    -2.747173291084247     0.336338466903683
    H               -1.387860664853484    -1.244823291084248     1.301836466903683
    C                1.149783335146516     1.364215708915753    -0.130990533096317
    C                2.546783335146515     1.228215708915752     0.463009466903683
    H                1.105783335146516     0.881215708915752    -1.108990533096316
    H                0.425783335146516     0.905215708915752     0.535009466903683
    H                0.872783335146516     2.413215708915752    -0.239990533096317
    H                2.570783335146515     1.695215708915752     1.442009466903683
    H                3.290652335146516     1.721735708915752    -0.179715533096317
    H                2.800600335146516     0.166795708915752     0.600734466903683

}
e, wfn = energy('scf', return_wfn=True)
gdma(wfn)
dmavals = variable('DMA DISTRIBUTED MULTIPOLES')
charges = np.array(dmavals)
print(charges)
np.save('SSI-146VAL-161VAL-1-dimer.npy', np.array(charges))--------------------------------------------------------------------------

*** tstart() called on ds3
*** at Tue Apr 28 21:37:58 2020

   => Loading Basis Set <=

    Name: CC-PVDZ
    Role: ORBITAL
    Keyword: BASIS
    atoms 1-2, 9-10  entry C          line   138 file /theoryfs2/ds/metcalf/miniconda2/envs/tf2gpu/share/psi4/basis/cc-pvdz.gbs
    atoms 3-8, 11-16 entry H          line    22 file /theoryfs2/ds/metcalf/miniconda2/envs/tf2gpu/share/psi4/basis/cc-pvdz.gbs

         ---------------------------------------------------------
                                   SCF
               by Justin Turney, Rob Parrish, Andy Simmonett
                          and Daniel G. A. Smith
                              RHF Reference
                        1 Threads,    500 MiB Core
         ---------------------------------------------------------

  ==> Geometry <==

    Molecular point group: c1
    Full point group: C1

    Geometry (in Angstrom), charge = 0, multiplicity = 1:

       Center              X                  Y                   Z               Mass
    ------------   -----------------  -----------------  -----------------  -----------------
         C           -1.730216664853    -0.904784291084    -0.811990533096    12.000000000000
         C           -1.962216664853    -1.691784291084     0.477009466904    12.000000000000
         H           -2.337216664853    -1.295784291084    -1.626990533096     1.007825032230
         H           -2.007216664853     0.137215708916    -0.652990533096     1.007825032230
         H           -0.678216664853    -0.953784291084    -1.097990533096     1.007825032230
         H           -3.019216664853    -1.629784291084     0.726009466904     1.007825032230
         H           -1.685873664853    -2.747173291084     0.336338466904     1.007825032230
         H           -1.387860664853    -1.244823291084     1.301836466904     1.007825032230
         C            1.149783335147     1.364215708916    -0.130990533096    12.000000000000
         C            2.546783335147     1.228215708916     0.463009466904    12.000000000000
         H            1.105783335147     0.881215708916    -1.108990533096     1.007825032230
         H            0.425783335147     0.905215708916     0.535009466904     1.007825032230
         H            0.872783335147     2.413215708916    -0.239990533096     1.007825032230
         H            2.570783335147     1.695215708916     1.442009466904     1.007825032230
         H            3.290652335147     1.721735708916    -0.179715533096     1.007825032230
         H            2.800600335147     0.166795708916     0.600734466904     1.007825032230

  Running in c1 symmetry.

  Rotational constants: A =      0.44687  B =      0.05028  C =      0.04745 [cm^-1]
  Rotational constants: A =  13396.93840  B =   1507.27464  C =   1422.55568 [MHz]
  Nuclear repulsion =  122.472895364340332

  Charge       = 0
  Multiplicity = 1
  Electrons    = 36
  Nalpha       = 18
  Nbeta        = 18

  ==> Algorithm <==

  SCF Algorithm Type is PK.
  DIIS enabled.
  MOM disabled.
  Fractional occupation disabled.
  Guess Type is SAD.
  Energy threshold   = 1.00e-06
  Density threshold  = 1.00e-10
  Integral threshold = 0.00e+00

  ==> Primary Basis <==

  Basis Set: CC-PVDZ
    Blend: CC-PVDZ
    Number of shells: 60
    Number of basis function: 116
    Number of Cartesian functions: 120
    Spherical Harmonics?: true
    Max angular momentum: 2

  ==> Pre-Iterations <==

   -------------------------------------------------------
    Irrep   Nso     Nmo     Nalpha   Nbeta   Ndocc  Nsocc
   -------------------------------------------------------
     A        116     116       0       0       0       0
   -------------------------------------------------------
    Total     116     116      18      18      18       0
   -------------------------------------------------------

  ==> Integral Setup <==

  Using integral reordering PK algorithm.
  Sizing the integral batches needed.
  Building batch lookup table.
   Calculation information:
      Number of atoms:                  16
      Number of AO shells:              60
      Number of primitives:            148
      Number of atomic orbitals:       120
      Number of basis functions:       116

      Integral cutoff                 1.00e-12
      Number of threads:                 1

	Batch   1 pq = [       0,    6786] index = [             0,23028291] size =     23028291
  Task number: 3
  Buffer size: 11059200
  Buffer per thread: 2
  We computed 1443492 shell quartets total.
  Whereas there are 1675365 unique shell quartets.

  ==> DiskJK: Disk-Based J/K Matrices <==

    J tasked:                  Yes
    K tasked:                  Yes
    wK tasked:                  No
    Memory [MiB]:              375
    Schwarz Cutoff:          1E-12

    OpenMP threads:              1

  Minimum eigenvalue in the overlap matrix is 7.3755815563E-03.
  Using Symmetric Orthogonalization.

  SCF Guess: Superposition of Atomic Densities via on-the-fly atomic UHF.

  ==> Iterations <==

                        Total Energy        Delta E     RMS |[F,P]|

   @RHF iter SAD:  -157.35795266357690   -1.57358e+02   0.00000e+00
   @RHF iter   1:  -158.30752378075937   -9.49571e-01   4.22282e-03 DIIS
   @RHF iter   2:  -158.44145646675631   -1.33933e-01   1.80340e-03 DIIS
   @RHF iter   3:  -158.46502893441033   -2.35725e-02   3.50383e-04 DIIS
   @RHF iter   4:  -158.46686787931210   -1.83894e-03   3.87931e-05 DIIS
   @RHF iter   5:  -158.46689142692807   -2.35476e-05   6.51207e-06 DIIS
   @RHF iter   6:  -158.46689205259196   -6.25664e-07   1.03446e-06 DIIS
   @RHF iter   7:  -158.46689206321992   -1.06280e-08   3.08497e-07 DIIS
   @RHF iter   8:  -158.46689206403221   -8.12292e-10   3.66850e-08 DIIS
   @RHF iter   9:  -158.46689206405435   -2.21405e-11   6.66559e-09 DIIS
   @RHF iter  10:  -158.46689206405534   -9.94760e-13   1.78941e-09 DIIS
   @RHF iter  11:  -158.46689206405472    6.25278e-13   4.11745e-10 DIIS
   @RHF iter  12:  -158.46689206405460    1.13687e-13   1.17561e-10 DIIS
   @RHF iter  13:  -158.46689206405472   -1.13687e-13   2.25889e-11 DIIS
  Energy and wave function converged.

  ==> Post-Iterations <==

    Orbital Energies [Eh]
    ---------------------

    Doubly Occupied:

       1A    -11.219126     2A    -11.218493     3A    -11.216086
       4A    -11.215497     5A     -1.020078     6A     -1.017312
       7A     -0.839232     8A     -0.834483     9A     -0.602301
      10A     -0.600205    11A     -0.596895    12A     -0.592514
      13A     -0.504196    14A     -0.499034    15A     -0.488607
      16A     -0.487062    17A     -0.485173    18A     -0.479099

    Virtual:

      19A      0.170317    20A      0.199216    21A      0.222828
      22A      0.233608    23A      0.244635    24A      0.256023
      25A      0.265407    26A      0.273762    27A      0.280358
      28A      0.285624    29A      0.315960    30A      0.349179
      31A      0.395777    32A      0.400653    33A      0.571604
      34A      0.595089    35A      0.599088    36A      0.604564
      37A      0.618193    38A      0.629478    39A      0.668486
      40A      0.680564    41A      0.685452    42A      0.799429
      43A      0.843496    44A      0.864235    45A      0.890190
      46A      0.891488    47A      0.891732    48A      0.896999
      49A      0.902409    50A      0.903933    51A      0.907955
      52A      0.919945    53A      0.937621    54A      0.954368
      55A      0.975094    56A      1.005384    57A      1.123190
      58A      1.124641    59A      1.129715    60A      1.159390
      61A      1.227919    62A      1.255672    63A      1.471968
      64A      1.474638    65A      1.477124    66A      1.486313
      67A      1.569855    68A      1.572904    69A      1.680011
      70A      1.684663    71A      1.696184    72A      1.703811
      73A      1.856274    74A      1.864316    75A      1.868544
      76A      1.886718    77A      1.894768    78A      1.917818
      79A      1.938949    80A      1.945210    81A      1.948985
      82A      1.950713    83A      1.953004    84A      1.958309
      85A      1.961692    86A      1.970049    87A      1.978681
      88A      2.018811    89A      2.091758    90A      2.097524
      91A      2.105533    92A      2.131369    93A      2.292318
      94A      2.307956    95A      2.319761    96A      2.322507
      97A      2.449427    98A      2.455431    99A      2.469130
     100A      2.479728   101A      2.559564   102A      2.562084
     103A      2.569746   104A      2.576778   105A      2.759705
     106A      2.766471   107A      2.789540   108A      2.795264
     109A      2.853116   110A      2.856573   111A      2.857622
     112A      2.871290   113A      2.937172   114A      2.953642
     115A      2.970867   116A      2.983895

    Final Occupation by Irrep:
              A
    DOCC [    18 ]

  @RHF Final Energy:  -158.46689206405472

   => Energetics <=

    Nuclear Repulsion Energy =            122.4728953643403315
    One-Electron Energy =                -454.0487899652991928
    Two-Electron Energy =                 173.1090025369041427
    Total Energy =                       -158.4668920640547185

Computation Completed

Properties will be evaluated at   0.000000,   0.000000,   0.000000 [a0]

Properties computed using the SCF density matrix

  Nuclear Dipole Moment: [e a0]
     X:    -0.0461      Y:     0.0462      Z:     0.0331

  Electronic Dipole Moment: [e a0]
     X:     0.0300      Y:    -0.0309      Z:    -0.0328

  Dipole Moment: [e a0]
     X:    -0.0162      Y:     0.0153      Z:     0.0002     Total:     0.0222

  Dipole Moment: [D]
     X:    -0.0411      Y:     0.0388      Z:     0.0006     Total:     0.0565

*** tstop() called on ds3 at Tue Apr 28 21:38:09 2020
Module time:
	user time   =       7.89 seconds =       0.13 minutes
	system time =       3.16 seconds =       0.05 minutes
	total time  =         11 seconds =       0.18 minutes
Total time:
	user time   =       7.89 seconds =       0.13 minutes
	system time =       3.16 seconds =       0.05 minutes
	total time  =         11 seconds =       0.18 minutes
                                     G D M A

                                 by Anthony Stone

                           version 2.2.06, 22 June 2011

               Distributed Multipoles from Gaussian wavefunctions

Starting at 21:38:9 on 28 Apr 2020

Using SCF density matrix from file ./SSI/SSI-146VAL-161VAL-1-dimer.test.1486.fchk

                         Distributed Multipole Analysis

Standard DMA

Positions and radii in angstrom
Multipole moments in atomic units, ea_0^k for rank k

C          x = -1.730217  y = -0.904784  z = -0.811991 angstrom
           Maximum rank =  0   Radius =  0.650 angstrom
                   Q00  =  -0.242513

C          x = -1.962217  y = -1.691784  z =  0.477009 angstrom
           Maximum rank =  0   Radius =  0.650 angstrom
                   Q00  =  -0.230516

H          x = -2.337217  y = -1.295784  z = -1.626991 angstrom
           Maximum rank =  0   Radius =  0.325 angstrom
                   Q00  =   0.079299

H          x = -2.007217  y =  0.137216  z = -0.652991 angstrom
           Maximum rank =  0   Radius =  0.325 angstrom
                   Q00  =   0.078161

H          x = -0.678217  y = -0.953784  z = -1.097991 angstrom
           Maximum rank =  0   Radius =  0.325 angstrom
                   Q00  =   0.080098

H          x = -3.019217  y = -1.629784  z =  0.726009 angstrom
           Maximum rank =  0   Radius =  0.325 angstrom
                   Q00  =   0.078164

H          x = -1.685874  y = -2.747173  z =  0.336338 angstrom
           Maximum rank =  0   Radius =  0.325 angstrom
                   Q00  =   0.079389

H          x = -1.387861  y = -1.244823  z =  1.301836 angstrom
           Maximum rank =  0   Radius =  0.325 angstrom
                   Q00  =   0.077949

C          x =  1.149783  y =  1.364216  z = -0.130991 angstrom
           Maximum rank =  0   Radius =  0.650 angstrom
                   Q00  =  -0.239313

C          x =  2.546783  y =  1.228216  z =  0.463009 angstrom
           Maximum rank =  0   Radius =  0.650 angstrom
                   Q00  =  -0.233310

H          x =  1.105783  y =  0.881216  z = -1.108991 angstrom
           Maximum rank =  0   Radius =  0.325 angstrom
                   Q00  =   0.079276

H          x =  0.425783  y =  0.905216  z =  0.535009 angstrom
           Maximum rank =  0   Radius =  0.325 angstrom
                   Q00  =   0.078986

H          x =  0.872783  y =  2.413216  z = -0.239991 angstrom
           Maximum rank =  0   Radius =  0.325 angstrom
                   Q00  =   0.078948

H          x =  2.570783  y =  1.695216  z =  1.442009 angstrom
           Maximum rank =  0   Radius =  0.325 angstrom
                   Q00  =   0.078787

H          x =  3.290652  y =  1.721736  z = -0.179716 angstrom
           Maximum rank =  0   Radius =  0.325 angstrom
                   Q00  =   0.078993

H          x =  2.800600  y =  0.166796  z =  0.600734 angstrom
           Maximum rank =  0   Radius =  0.325 angstrom
                   Q00  =   0.077601

Total multipoles referred to origin at
           x =   0.000000,  y =    0.000000,  z =    0.000000 angstrom
                   Q00  =  -0.000000

Finished at 21:38:9 on 28 Apr 2020

  DMA results are available in the Python driver through the
	  variable('DMA DISTRIBUTED MULTIPOLES')
  and
	  variable('DMA TOTAL MULTIPOLES')
  commands.

    Psi4 stopped on: Tuesday, 28 April 2020 09:38PM
    Psi4 wall time for execution: 0:00:10.89

*** Psi4 exiting successfully. Buy a developer a beer!
