                               Psi4 1.3.2 release

  ==> Input File <==

--------------------------------------------------------------------------
import numpy as np
set {scf_type pk
basis cc-pvdz
d_convergence 10
gdma_switch   0
gdma_limit    0
gdma_origin   [ 0.0,  0.0,  0.0 ]
}
molecule test {
    units Angstrom
    0 1
    --
    0 1
    C               -0.910568217854365     1.179388213890674     2.610384261727609
    C               -0.141568217854365    -0.280611786109326     0.707384261727609
    C                0.115431782145635     0.296388213890674     1.956384261727609
    C                0.791431782145635    -1.100611786109326     0.107384261727609
    C                1.309431782145635     0.010388213890674     2.591384261727609
    C                1.965431782145635    -1.400611786109325     0.759384261727609
    C                2.235431782145635    -0.845611786109326     1.994384261727609
    H               -1.081568217854365    -0.087611786109326     0.210384261727609
    H                0.582431782145635    -1.545611786109325    -0.854615738272391
    H               -1.543568217854365     1.639388213890675     1.849384261727609
    H               -0.379568217854365     1.973388213890674     3.123384261727609
    H                1.523431782145635     0.437388213890674     3.561384261727609
    H                2.663431782145635    -2.096611786109325     0.320384261727609
    H                3.156431782145635    -1.092611786109325     2.505384261727609
    H               -1.535278217854365     0.647338213890674     3.342954261727609
    C               -1.418568217854365     0.649388213890674    -2.698615738272391
    C               -1.356568217854365    -0.702611786109326    -3.409615738272391
    C               -1.838568217854365     1.815388213890675    -3.595615738272391
    H               -2.096568217854364     0.601388213890674    -1.847615738272391
    H               -0.428568217854365     0.864388213890674    -2.296615738272391
    H               -0.980568217854365    -1.424611786109325    -2.682615738272391
    H               -2.814568217854365     1.622388213890674    -4.034615738272391
    H               -1.905568217854365     2.722388213890675    -2.993615738272391
    H               -1.104568217854365     1.979388213890674    -4.384615738272391
    H               -2.348622217854365    -1.041121786109326    -3.743145738272391
    H               -0.652525317854365    -0.685171786109326    -4.254615738272392

}
e, wfn = energy('scf', return_wfn=True)
gdma(wfn)
dmavals = variable('DMA DISTRIBUTED MULTIPOLES')
charges = np.array(dmavals)
print(charges)
np.save('SSI-095PHE-154ILE-1-dimer.npy', np.array(charges))--------------------------------------------------------------------------

*** tstart() called on ds3
*** at Tue Apr 28 10:52:59 2020

   => Loading Basis Set <=

    Name: CC-PVDZ
    Role: ORBITAL
    Keyword: BASIS
    atoms 1-7, 16-18  entry C          line   138 file /theoryfs2/ds/metcalf/miniconda2/envs/tf2gpu/share/psi4/basis/cc-pvdz.gbs
    atoms 8-15, 19-26 entry H          line    22 file /theoryfs2/ds/metcalf/miniconda2/envs/tf2gpu/share/psi4/basis/cc-pvdz.gbs

         ---------------------------------------------------------
                                   SCF
               by Justin Turney, Rob Parrish, Andy Simmonett
                          and Daniel G. A. Smith
                              RHF Reference
                        1 Threads,    500 MiB Core
         ---------------------------------------------------------

  ==> Geometry <==

    Molecular point group: c1
    Full point group: C1

    Geometry (in Angstrom), charge = 0, multiplicity = 1:

       Center              X                  Y                   Z               Mass
    ------------   -----------------  -----------------  -----------------  -----------------
         C           -0.910568217854     1.179388213891     2.610384261728    12.000000000000
         C           -0.141568217854    -0.280611786109     0.707384261728    12.000000000000
         C            0.115431782146     0.296388213891     1.956384261728    12.000000000000
         C            0.791431782146    -1.100611786109     0.107384261728    12.000000000000
         C            1.309431782146     0.010388213891     2.591384261728    12.000000000000
         C            1.965431782146    -1.400611786109     0.759384261728    12.000000000000
         C            2.235431782146    -0.845611786109     1.994384261728    12.000000000000
         H           -1.081568217854    -0.087611786109     0.210384261728     1.007825032230
         H            0.582431782146    -1.545611786109    -0.854615738272     1.007825032230
         H           -1.543568217854     1.639388213891     1.849384261728     1.007825032230
         H           -0.379568217854     1.973388213891     3.123384261728     1.007825032230
         H            1.523431782146     0.437388213891     3.561384261728     1.007825032230
         H            2.663431782146    -2.096611786109     0.320384261728     1.007825032230
         H            3.156431782146    -1.092611786109     2.505384261728     1.007825032230
         H           -1.535278217854     0.647338213891     3.342954261728     1.007825032230
         C           -1.418568217854     0.649388213891    -2.698615738272    12.000000000000
         C           -1.356568217854    -0.702611786109    -3.409615738272    12.000000000000
         C           -1.838568217854     1.815388213891    -3.595615738272    12.000000000000
         H           -2.096568217854     0.601388213891    -1.847615738272     1.007825032230
         H           -0.428568217854     0.864388213891    -2.296615738272     1.007825032230
         H           -0.980568217854    -1.424611786109    -2.682615738272     1.007825032230
         H           -2.814568217854     1.622388213891    -4.034615738272     1.007825032230
         H           -1.905568217854     2.722388213891    -2.993615738272     1.007825032230
         H           -1.104568217854     1.979388213891    -4.384615738272     1.007825032230
         H           -2.348622217854    -1.041121786109    -3.743145738272     1.007825032230
         H           -0.652525317854    -0.685171786109    -4.254615738272     1.007825032230

  Running in c1 symmetry.

  Rotational constants: A =      0.06379  B =      0.01699  C =      0.01422 [cm^-1]
  Rotational constants: A =   1912.29257  B =    509.34503  C =    426.45104 [MHz]
  Nuclear repulsion =  479.244824199526704

  Charge       = 0
  Multiplicity = 1
  Electrons    = 76
  Nalpha       = 38
  Nbeta        = 38

  ==> Algorithm <==

  SCF Algorithm Type is PK.
  DIIS enabled.
  MOM disabled.
  Fractional occupation disabled.
  Guess Type is SAD.
  Energy threshold   = 1.00e-06
  Density threshold  = 1.00e-10
  Integral threshold = 0.00e+00

  ==> Primary Basis <==

  Basis Set: CC-PVDZ
    Blend: CC-PVDZ
    Number of shells: 108
    Number of basis function: 220
    Number of Cartesian functions: 230
    Spherical Harmonics?: true
    Max angular momentum: 2

  ==> Pre-Iterations <==

   -------------------------------------------------------
    Irrep   Nso     Nmo     Nalpha   Nbeta   Ndocc  Nsocc
   -------------------------------------------------------
     A        220     220       0       0       0       0
   -------------------------------------------------------
    Total     220     220      38      38      38       0
   -------------------------------------------------------

  ==> Integral Setup <==

  Using integral reordering PK algorithm.
  Sizing the integral batches needed.
  Building batch lookup table.
   Calculation information:
      Number of atoms:                  26
      Number of AO shells:             108
      Number of primitives:            300
      Number of atomic orbitals:       230
      Number of basis functions:       220

      Integral cutoff                 1.00e-12
      Number of threads:                 1

	Batch   1 pq = [       0,    9405] index = [             0,44231715] size =     44231715
	Batch   2 pq = [    9405,   13301] index = [      44231715,88464951] size =     44233236
	Batch   3 pq = [   13301,   16290] index = [      88464951,132690195] size =     44225244
	Batch   4 pq = [   16290,   18810] index = [     132690195,176917455] size =     44227260
	Batch   5 pq = [   18810,   21030] index = [     176917455,221140965] size =     44223510
	Batch   6 pq = [   21030,   23037] index = [     221140965,265363203] size =     44222238
	Batch   7 pq = [   23037,   24310] index = [     265363203,295500205] size =     30137002
  Task number: 27
  Buffer size: 11059200
  Buffer per thread: 2
  We computed 14111610 shell quartets total.
  Whereas there are 17325441 unique shell quartets.

  ==> DiskJK: Disk-Based J/K Matrices <==

    J tasked:                  Yes
    K tasked:                  Yes
    wK tasked:                  No
    Memory [MiB]:              375
    Schwarz Cutoff:          1E-12

    OpenMP threads:              1

  Minimum eigenvalue in the overlap matrix is 2.8609554893E-04.
  Using Symmetric Orthogonalization.

  SCF Guess: Superposition of Atomic Densities via on-the-fly atomic UHF.

  ==> Iterations <==

                        Total Energy        Delta E     RMS |[F,P]|

   @RHF iter SAD:  -386.96534481765332   -3.86965e+02   0.00000e+00
   @RHF iter   1:  -387.76930261997410   -8.03958e-01   2.77196e-03 DIIS
   @RHF iter   2:  -387.99078378871661   -2.21481e-01   1.16812e-03 DIIS
   @RHF iter   3:  -388.02658738227223   -3.58036e-02   2.50255e-04 DIIS
   @RHF iter   4:  -388.02948947703288   -2.90209e-03   4.90021e-05 DIIS
   @RHF iter   5:  -388.02957150509138   -8.20281e-05   1.46597e-05 DIIS
   @RHF iter   6:  -388.02957850240711   -6.99732e-06   4.28694e-06 DIIS
   @RHF iter   7:  -388.02957915112603   -6.48719e-07   1.26223e-06 DIIS
   @RHF iter   8:  -388.02957921502025   -6.38942e-08   3.03027e-07 DIIS
   @RHF iter   9:  -388.02957922373497   -8.71472e-09   1.32451e-07 DIIS
   @RHF iter  10:  -388.02957922576701   -2.03204e-09   6.28633e-08 DIIS
   @RHF iter  11:  -388.02957922639166   -6.24652e-10   2.47198e-08 DIIS
   @RHF iter  12:  -388.02957922648204   -9.03810e-11   9.34770e-09 DIIS
   @RHF iter  13:  -388.02957922649125   -9.20863e-12   3.74051e-09 DIIS
   @RHF iter  14:  -388.02957922649239   -1.13687e-12   1.03602e-09 DIIS
   @RHF iter  15:  -388.02957922649125    1.13687e-12   4.14681e-10 DIIS
   @RHF iter  16:  -388.02957922649284   -1.59162e-12   1.76905e-10 DIIS
   @RHF iter  17:  -388.02957922649000    2.84217e-12   7.81666e-11 DIIS
  Energy and wave function converged.

  ==> Post-Iterations <==

    Orbital Energies [Eh]
    ---------------------

    Doubly Occupied:

       1A    -11.238316     2A    -11.233391     3A    -11.230789
       4A    -11.228685     5A    -11.228114     6A    -11.227662
       7A    -11.226621     8A    -11.220569     9A    -11.219515
      10A    -11.214845    11A     -1.156089    12A     -1.053354
      13A     -1.046644    14A     -1.012578    15A     -0.932084
      16A     -0.927503    17A     -0.825945    18A     -0.798594
      19A     -0.794166    20A     -0.692456    21A     -0.633355
      22A     -0.629145    23A     -0.624632    24A     -0.596218
      25A     -0.580470    26A     -0.577044    27A     -0.561958
      28A     -0.551657    29A     -0.536479    30A     -0.536001
      31A     -0.489955    32A     -0.486637    33A     -0.479949
      34A     -0.472537    35A     -0.468646    36A     -0.466830
      37A     -0.332531    38A     -0.322650

    Virtual:

      39A      0.137932    40A      0.141987    41A      0.170375
      42A      0.192474    43A      0.199518    44A      0.214955
      45A      0.224666    46A      0.234797    47A      0.243410
      48A      0.254299    49A      0.261015    50A      0.274783
      51A      0.282400    52A      0.283184    53A      0.287362
      54A      0.300070    55A      0.340397    56A      0.357293
      57A      0.360058    58A      0.371593    59A      0.399150
      60A      0.422513    61A      0.461811    62A      0.469132
      63A      0.484814    64A      0.504019    65A      0.560303
      66A      0.579564    67A      0.594012    68A      0.603921
      69A      0.619418    70A      0.629819    71A      0.642038
      72A      0.674703    73A      0.687200    74A      0.696612
      75A      0.704422    76A      0.719126    77A      0.740147
      78A      0.743514    79A      0.751796    80A      0.761701
      81A      0.771377    82A      0.776897    83A      0.785287
      84A      0.793712    85A      0.812971    86A      0.834974
      87A      0.848186    88A      0.865561    89A      0.867236
      90A      0.875350    91A      0.884008    92A      0.889864
      93A      0.894725    94A      0.897466    95A      0.901875
      96A      0.908978    97A      0.911866    98A      0.921016
      99A      0.930920   100A      0.940917   101A      0.946421
     102A      0.949999   103A      0.960726   104A      0.993055
     105A      0.998069   106A      1.021235   107A      1.036205
     108A      1.051153   109A      1.121521   110A      1.129070
     111A      1.136021   112A      1.156804   113A      1.160054
     114A      1.177710   115A      1.197269   116A      1.225476
     117A      1.245218   118A      1.252157   119A      1.259568
     120A      1.270300   121A      1.309092   122A      1.315954
     123A      1.335035   124A      1.336090   125A      1.389458
     126A      1.416710   127A      1.461368   128A      1.483589
     129A      1.509965   130A      1.517244   131A      1.542985
     132A      1.567342   133A      1.613445   134A      1.645888
     135A      1.675939   136A      1.686699   137A      1.691324
     138A      1.704197   139A      1.705750   140A      1.739907
     141A      1.750433   142A      1.765845   143A      1.792685
     144A      1.813209   145A      1.859796   146A      1.867689
     147A      1.878380   148A      1.882949   149A      1.897213
     150A      1.901671   151A      1.905918   152A      1.916018
     153A      1.917024   154A      1.921943   155A      1.933382
     156A      1.942217   157A      1.948803   158A      1.953560
     159A      1.970192   160A      1.977907   161A      1.982509
     162A      1.984965   163A      1.993115   164A      1.995542
     165A      2.001991   166A      2.022400   167A      2.049541
     168A      2.052683   169A      2.077110   170A      2.083121
     171A      2.114871   172A      2.129410   173A      2.143083
     174A      2.153592   175A      2.173117   176A      2.178268
     177A      2.182518   178A      2.207118   179A      2.262726
     180A      2.284749   181A      2.294736   182A      2.297190
     183A      2.301108   184A      2.316454   185A      2.322777
     186A      2.336666   187A      2.348564   188A      2.367597
     189A      2.471193   190A      2.484361   191A      2.500302
     192A      2.510542   193A      2.533812   194A      2.551277
     195A      2.581529   196A      2.608882   197A      2.618899
     198A      2.631315   199A      2.750222   200A      2.756002
     201A      2.763244   202A      2.767821   203A      2.773855
     204A      2.785332   205A      2.804337   206A      2.831141
     207A      2.838403   208A      2.852993   209A      2.883317
     210A      2.917276   211A      2.972219   212A      2.988773
     213A      2.995705   214A      3.024282   215A      3.034404
     216A      3.062390   217A      3.168114   218A      3.219812
     219A      3.316711   220A      3.995296

    Final Occupation by Irrep:
              A
    DOCC [    38 ]

  @RHF Final Energy:  -388.02957922649000

   => Energetics <=

    Nuclear Repulsion Energy =            479.2448241995267040
    One-Electron Energy =               -1472.8395796935030830
    Two-Electron Energy =                 605.5651762674864358
    Total Energy =                       -388.0295792264900001

Computation Completed

Properties will be evaluated at   0.000000,   0.000000,   0.000000 [a0]

Properties computed using the SCF density matrix

  Nuclear Dipole Moment: [e a0]
     X:    -8.3864      Y:     4.2318      Z:   -11.4173

  Electronic Dipole Moment: [e a0]
     X:     8.3141      Y:    -4.1706      Z:    11.5214

  Dipole Moment: [e a0]
     X:    -0.0723      Y:     0.0612      Z:     0.1041     Total:     0.1408

  Dipole Moment: [D]
     X:    -0.1838      Y:     0.1557      Z:     0.2647     Total:     0.3578

*** tstop() called on ds3 at Tue Apr 28 10:55:09 2020
Module time:
	user time   =      92.83 seconds =       1.55 minutes
	system time =      42.63 seconds =       0.71 minutes
	total time  =        130 seconds =       2.17 minutes
Total time:
	user time   =      92.83 seconds =       1.55 minutes
	system time =      42.63 seconds =       0.71 minutes
	total time  =        130 seconds =       2.17 minutes
                                     G D M A

                                 by Anthony Stone

                           version 2.2.06, 22 June 2011

               Distributed Multipoles from Gaussian wavefunctions

Starting at 10:55:9 on 28 Apr 2020

Using SCF density matrix from file ./SSI/SSI-095PHE-154ILE-1-dimer.test.20026.fchk

                         Distributed Multipole Analysis

Standard DMA

Positions and radii in angstrom
Multipole moments in atomic units, ea_0^k for rank k

C          x = -0.910568  y =  1.179388  z =  2.610384 angstrom
           Maximum rank =  0   Radius =  0.650 angstrom
                   Q00  =  -0.198733

C          x = -0.141568  y = -0.280612  z =  0.707384 angstrom
           Maximum rank =  0   Radius =  0.650 angstrom
                   Q00  =  -0.008350

C          x =  0.115432  y =  0.296388  z =  1.956384 angstrom
           Maximum rank =  0   Radius =  0.650 angstrom
                   Q00  =  -0.102258

C          x =  0.791432  y = -1.100612  z =  0.107384 angstrom
           Maximum rank =  0   Radius =  0.650 angstrom
                   Q00  =  -0.076093

C          x =  1.309432  y =  0.010388  z =  2.591384 angstrom
           Maximum rank =  0   Radius =  0.650 angstrom
                   Q00  =  -0.093733

C          x =  1.965432  y = -1.400612  z =  0.759384 angstrom
           Maximum rank =  0   Radius =  0.650 angstrom
                   Q00  =  -0.044883

C          x =  2.235432  y = -0.845612  z =  1.994384 angstrom
           Maximum rank =  0   Radius =  0.650 angstrom
                   Q00  =  -0.070795

H          x = -1.081568  y = -0.087612  z =  0.210384 angstrom
           Maximum rank =  0   Radius =  0.325 angstrom
                   Q00  =   0.055825

H          x =  0.582432  y = -1.545612  z = -0.854616 angstrom
           Maximum rank =  0   Radius =  0.325 angstrom
                   Q00  =   0.060928

H          x = -1.543568  y =  1.639388  z =  1.849384 angstrom
           Maximum rank =  0   Radius =  0.325 angstrom
                   Q00  =   0.098081

H          x = -0.379568  y =  1.973388  z =  3.123384 angstrom
           Maximum rank =  0   Radius =  0.325 angstrom
                   Q00  =   0.099080

H          x =  1.523432  y =  0.437388  z =  3.561384 angstrom
           Maximum rank =  0   Radius =  0.325 angstrom
                   Q00  =   0.054810

H          x =  2.663432  y = -2.096612  z =  0.320384 angstrom
           Maximum rank =  0   Radius =  0.325 angstrom
                   Q00  =   0.056876

H          x =  3.156432  y = -1.092612  z =  2.505384 angstrom
           Maximum rank =  0   Radius =  0.325 angstrom
                   Q00  =   0.063652

H          x = -1.535278  y =  0.647338  z =  3.342954 angstrom
           Maximum rank =  0   Radius =  0.325 angstrom
                   Q00  =   0.104841

C          x = -1.418568  y =  0.649388  z = -2.698616 angstrom
           Maximum rank =  0   Radius =  0.650 angstrom
                   Q00  =  -0.067563

C          x = -1.356568  y = -0.702612  z = -3.409616 angstrom
           Maximum rank =  0   Radius =  0.650 angstrom
                   Q00  =  -0.259922

C          x = -1.838568  y =  1.815388  z = -3.595616 angstrom
           Maximum rank =  0   Radius =  0.650 angstrom
                   Q00  =  -0.243019

H          x = -2.096568  y =  0.601388  z = -1.847616 angstrom
           Maximum rank =  0   Radius =  0.325 angstrom
                   Q00  =   0.043178

H          x = -0.428568  y =  0.864388  z = -2.296616 angstrom
           Maximum rank =  0   Radius =  0.325 angstrom
                   Q00  =   0.051227

H          x = -0.980568  y = -1.424612  z = -2.682616 angstrom
           Maximum rank =  0   Radius =  0.325 angstrom
                   Q00  =   0.078392

H          x = -2.814568  y =  1.622388  z = -4.034616 angstrom
           Maximum rank =  0   Radius =  0.325 angstrom
                   Q00  =   0.076346

H          x = -1.905568  y =  2.722388  z = -2.993616 angstrom
           Maximum rank =  0   Radius =  0.325 angstrom
                   Q00  =   0.083075

H          x = -1.104568  y =  1.979388  z = -4.384616 angstrom
           Maximum rank =  0   Radius =  0.325 angstrom
                   Q00  =   0.079063

H          x = -2.348622  y = -1.041122  z = -3.743146 angstrom
           Maximum rank =  0   Radius =  0.325 angstrom
                   Q00  =   0.079251

H          x = -0.652525  y = -0.685172  z = -4.254616 angstrom
           Maximum rank =  0   Radius =  0.325 angstrom
                   Q00  =   0.080725

Total multipoles referred to origin at
           x =   0.000000,  y =    0.000000,  z =    0.000000 angstrom
                   Q00  =  -0.000000

Finished at 10:55:9 on 28 Apr 2020

  DMA results are available in the Python driver through the
	  variable('DMA DISTRIBUTED MULTIPOLES')
  and
	  variable('DMA TOTAL MULTIPOLES')
  commands.

    Psi4 stopped on: Tuesday, 28 April 2020 10:55AM
    Psi4 wall time for execution: 0:02:10.39

*** Psi4 exiting successfully. Buy a developer a beer!
