                               Psi4 1.3.2 release

  ==> Input File <==

--------------------------------------------------------------------------
import numpy as np
set {scf_type pk
basis cc-pvdz
d_convergence 10
gdma_switch   0
gdma_limit    0
gdma_origin   [ 0.0,  0.0,  0.0 ]
}
molecule test {
    units Angstrom
    0 1
    --
    0 1
    C                0.721178193267389    -2.789660219113205     0.542582083515500
    C                0.568178193267389    -4.233660219113205     1.039582083515500
    C                2.123178193267389    -2.408660219113206     0.059582083515500
    H                0.014178193267389    -2.614660219113206    -0.268417916484500
    H                0.453178193267389    -2.122660219113206     1.361582083515500
    H                0.795178193267389    -4.938660219113206     0.240582083515500
    H                2.844178193267389    -2.623660219113205     0.847582083515500
    H               -0.474286806732611    -4.373512219113205     1.361620083515500
    H                1.251680193267389    -4.389231219113205     1.887298083515500
    H                2.399592193267389    -2.993242219113205    -0.830281916484500
    H                2.181274193267389    -1.327788219113206    -0.136222916484500
    C                0.628178193267389     2.825339780886795    -2.465417916484500
    C               -1.395821806732611     0.266339780886795    -0.491417916484500
    C               -0.990821806732611     0.553339780886794     0.817582083515500
    C               -0.871821806732611     1.010339780886795    -1.552417916484500
    C                0.053178193267389     2.030339780886794    -1.322417916484500
    C               -0.080821806732611     1.578339780886794     1.056582083515500
    C                0.434178193267389     2.310339780886795    -0.010417916484500
    O               -1.450821806732611    -0.161660219113205     1.876582083515500
    H               -2.098821806732611    -0.529660219113205    -0.673417916484500
    H               -1.174821806732611     0.782339780886794    -2.566417916484500
    H                0.236178193267389     1.803339780886794     2.065582083515500
    H               -1.075821806732611     0.155339780886795     2.699582083515500
    H                0.448178193267389     2.302339780886795    -3.406417916484500
    H                1.709178193267389     2.893339780886795    -2.327417916484500
    H                1.151178193267389     3.098339780886795     0.183582083515500
    H                0.210752193267389     3.841366280886795    -2.524118916484500

}
e, wfn = energy('scf', return_wfn=True)
gdma(wfn)
dmavals = variable('DMA DISTRIBUTED MULTIPOLES')
charges = np.array(dmavals)
print(charges)
np.save('SSI-011LEU-102TYR-1-dimer.npy', np.array(charges))--------------------------------------------------------------------------

*** tstart() called on ds3
*** at Mon Apr 27 01:01:04 2020

   => Loading Basis Set <=

    Name: CC-PVDZ
    Role: ORBITAL
    Keyword: BASIS
    atoms 1-3, 12-18  entry C          line   138 file /theoryfs2/ds/metcalf/miniconda2/envs/tf2gpu/share/psi4/basis/cc-pvdz.gbs
    atoms 4-11, 20-27 entry H          line    22 file /theoryfs2/ds/metcalf/miniconda2/envs/tf2gpu/share/psi4/basis/cc-pvdz.gbs
    atoms 19          entry O          line   198 file /theoryfs2/ds/metcalf/miniconda2/envs/tf2gpu/share/psi4/basis/cc-pvdz.gbs

         ---------------------------------------------------------
                                   SCF
               by Justin Turney, Rob Parrish, Andy Simmonett
                          and Daniel G. A. Smith
                              RHF Reference
                        1 Threads,    500 MiB Core
         ---------------------------------------------------------

  ==> Geometry <==

    Molecular point group: c1
    Full point group: C1

    Geometry (in Angstrom), charge = 0, multiplicity = 1:

       Center              X                  Y                   Z               Mass
    ------------   -----------------  -----------------  -----------------  -----------------
         C            0.721178193267    -2.789660219113     0.542582083515    12.000000000000
         C            0.568178193267    -4.233660219113     1.039582083515    12.000000000000
         C            2.123178193267    -2.408660219113     0.059582083515    12.000000000000
         H            0.014178193267    -2.614660219113    -0.268417916485     1.007825032230
         H            0.453178193267    -2.122660219113     1.361582083515     1.007825032230
         H            0.795178193267    -4.938660219113     0.240582083515     1.007825032230
         H            2.844178193267    -2.623660219113     0.847582083515     1.007825032230
         H           -0.474286806733    -4.373512219113     1.361620083515     1.007825032230
         H            1.251680193267    -4.389231219113     1.887298083515     1.007825032230
         H            2.399592193267    -2.993242219113    -0.830281916485     1.007825032230
         H            2.181274193267    -1.327788219113    -0.136222916485     1.007825032230
         C            0.628178193267     2.825339780887    -2.465417916485    12.000000000000
         C           -1.395821806733     0.266339780887    -0.491417916485    12.000000000000
         C           -0.990821806733     0.553339780887     0.817582083515    12.000000000000
         C           -0.871821806733     1.010339780887    -1.552417916484    12.000000000000
         C            0.053178193267     2.030339780887    -1.322417916484    12.000000000000
         C           -0.080821806733     1.578339780887     1.056582083515    12.000000000000
         C            0.434178193267     2.310339780887    -0.010417916485    12.000000000000
         O           -1.450821806733    -0.161660219113     1.876582083516    15.994914619570
         H           -2.098821806733    -0.529660219113    -0.673417916485     1.007825032230
         H           -1.174821806733     0.782339780887    -2.566417916485     1.007825032230
         H            0.236178193267     1.803339780887     2.065582083515     1.007825032230
         H           -1.075821806733     0.155339780887     2.699582083515     1.007825032230
         H            0.448178193267     2.302339780887    -3.406417916485     1.007825032230
         H            1.709178193267     2.893339780887    -2.327417916485     1.007825032230
         H            1.151178193267     3.098339780887     0.183582083515     1.007825032230
         H            0.210752193267     3.841366280887    -2.524118916485     1.007825032230

  Running in c1 symmetry.

  Rotational constants: A =      0.04780  B =      0.01736  C =      0.01502 [cm^-1]
  Rotational constants: A =   1433.10290  B =    520.43374  C =    450.32077 [MHz]
  Nuclear repulsion =  582.963260682807913

  Charge       = 0
  Multiplicity = 1
  Electrons    = 84
  Nalpha       = 42
  Nbeta        = 42

  ==> Algorithm <==

  SCF Algorithm Type is PK.
  DIIS enabled.
  MOM disabled.
  Fractional occupation disabled.
  Guess Type is SAD.
  Energy threshold   = 1.00e-06
  Density threshold  = 1.00e-10
  Integral threshold = 0.00e+00

  ==> Primary Basis <==

  Basis Set: CC-PVDZ
    Blend: CC-PVDZ
    Number of shells: 114
    Number of basis function: 234
    Number of Cartesian functions: 245
    Spherical Harmonics?: true
    Max angular momentum: 2

  ==> Pre-Iterations <==

   -------------------------------------------------------
    Irrep   Nso     Nmo     Nalpha   Nbeta   Ndocc  Nsocc
   -------------------------------------------------------
     A        234     234       0       0       0       0
   -------------------------------------------------------
    Total     234     234      42      42      42       0
   -------------------------------------------------------

  ==> Integral Setup <==

  Using integral reordering PK algorithm.
  Sizing the integral batches needed.
  Building batch lookup table.
   Calculation information:
      Number of atoms:                  27
      Number of AO shells:             114
      Number of primitives:            322
      Number of atomic orbitals:       245
      Number of basis functions:       234

      Integral cutoff                 1.00e-12
      Number of threads:                 1

	Batch   1 pq = [       0,    9405] index = [             0,44231715] size =     44231715
	Batch   2 pq = [    9405,   13301] index = [      44231715,88464951] size =     44233236
	Batch   3 pq = [   13301,   16290] index = [      88464951,132690195] size =     44225244
	Batch   4 pq = [   16290,   18810] index = [     132690195,176917455] size =     44227260
	Batch   5 pq = [   18810,   21030] index = [     176917455,221140965] size =     44223510
	Batch   6 pq = [   21030,   23037] index = [     221140965,265363203] size =     44222238
	Batch   7 pq = [   23037,   24883] index = [     265363203,309594286] size =     44231083
	Batch   8 pq = [   24883,   26601] index = [     309594286,353819901] size =     44225615
	Batch   9 pq = [   26601,   27495] index = [     353819901,378001260] size =     24181359
  Task number: 35
  Buffer size: 11059200
  Buffer per thread: 2
  We computed 19806931 shell quartets total.
  Whereas there are 21487290 unique shell quartets.

  ==> DiskJK: Disk-Based J/K Matrices <==

    J tasked:                  Yes
    K tasked:                  Yes
    wK tasked:                  No
    Memory [MiB]:              375
    Schwarz Cutoff:          1E-12

    OpenMP threads:              1

  Minimum eigenvalue in the overlap matrix is 3.2482226463E-04.
  Using Symmetric Orthogonalization.

  SCF Guess: Superposition of Atomic Densities via on-the-fly atomic UHF.

  ==> Iterations <==

                        Total Energy        Delta E     RMS |[F,P]|

   @RHF iter SAD:  -461.65050925230150   -4.61651e+02   0.00000e+00
   @RHF iter   1:  -462.60805902658660   -9.57550e-01   2.81639e-03 DIIS
   @RHF iter   2:  -462.85073803862031   -2.42679e-01   1.19744e-03 DIIS
   @RHF iter   3:  -462.89045130384187   -3.97133e-02   2.69477e-04 DIIS
   @RHF iter   4:  -462.89370191333683   -3.25061e-03   1.07334e-04 DIIS
   @RHF iter   5:  -462.89407039602361   -3.68483e-04   2.03068e-05 DIIS
   @RHF iter   6:  -462.89408986327544   -1.94673e-05   6.42218e-06 DIIS
   @RHF iter   7:  -462.89409185310546   -1.98983e-06   1.86577e-06 DIIS
   @RHF iter   8:  -462.89409209130275   -2.38197e-07   7.16523e-07 DIIS
   @RHF iter   9:  -462.89409212849023   -3.71875e-08   2.96356e-07 DIIS
   @RHF iter  10:  -462.89409213563562   -7.14539e-09   1.23013e-07 DIIS
   @RHF iter  11:  -462.89409213787980   -2.24418e-09   5.46289e-08 DIIS
   @RHF iter  12:  -462.89409213836296   -4.83169e-10   2.63548e-08 DIIS
   @RHF iter  13:  -462.89409213843618   -7.32143e-11   8.21394e-09 DIIS
   @RHF iter  14:  -462.89409213844237   -6.19593e-12   1.91167e-09 DIIS
   @RHF iter  15:  -462.89409213844431   -1.93268e-12   6.37169e-10 DIIS
   @RHF iter  16:  -462.89409213844340    9.09495e-13   1.90290e-10 DIIS
   @RHF iter  17:  -462.89409213844289    5.11591e-13   6.92819e-11 DIIS
  Energy and wave function converged.

  ==> Post-Iterations <==

    Orbital Energies [Eh]
    ---------------------

    Doubly Occupied:

       1A    -20.585243     2A    -11.301061     3A    -11.240153
       4A    -11.239723     5A    -11.234085     6A    -11.233852
       7A    -11.232821     8A    -11.228783     9A    -11.210966
      10A    -11.208885    11A    -11.208259    12A     -1.405298
      13A     -1.150264    14A     -1.041682    15A     -1.037369
      16A     -1.018032    17A     -0.926164    18A     -0.916657
      19A     -0.845209    20A     -0.803968    21A     -0.785314
      22A     -0.733939    23A     -0.670342    24A     -0.642545
      25A     -0.616586    26A     -0.607793    27A     -0.591249
      28A     -0.587923    29A     -0.580965    30A     -0.571525
      31A     -0.568611    32A     -0.541743    33A     -0.527110
      34A     -0.525512    35A     -0.498870    36A     -0.485412
      37A     -0.468491    38A     -0.462274    39A     -0.457331
      40A     -0.456544    41A     -0.339261    42A     -0.301396

    Virtual:

      43A      0.128048    44A      0.154910    45A      0.171964
      46A      0.184596    47A      0.194347    48A      0.210309
      49A      0.220540    50A      0.237298    51A      0.241274
      52A      0.250644    53A      0.261810    54A      0.269745
      55A      0.275678    56A      0.287985    57A      0.294122
      58A      0.302438    59A      0.310005    60A      0.316761
      61A      0.368468    62A      0.370914    63A      0.375038
      64A      0.428680    65A      0.433090    66A      0.453220
      67A      0.483190    68A      0.494070    69A      0.509276
      70A      0.577554    71A      0.600833    72A      0.611869
      73A      0.615039    74A      0.622562    75A      0.628503
      76A      0.635508    77A      0.653906    78A      0.670562
      79A      0.692975    80A      0.703961    81A      0.726652
      82A      0.729436    83A      0.736664    84A      0.757686
      85A      0.764758    86A      0.774881    87A      0.781931
      88A      0.787653    89A      0.802598    90A      0.815648
      91A      0.831228    92A      0.850668    93A      0.859944
      94A      0.871834    95A      0.880351    96A      0.886613
      97A      0.890787    98A      0.896292    99A      0.901296
     100A      0.906295   101A      0.907730   102A      0.919898
     103A      0.925456   104A      0.926168   105A      0.931069
     106A      0.937543   107A      0.947578   108A      0.961098
     109A      0.982849   110A      0.986736   111A      0.994628
     112A      1.011227   113A      1.028489   114A      1.068416
     115A      1.120337   116A      1.131033   117A      1.141664
     118A      1.146439   119A      1.151636   120A      1.165873
     121A      1.202791   122A      1.208658   123A      1.242657
     124A      1.252217   125A      1.266630   126A      1.288795
     127A      1.304934   128A      1.308836   129A      1.338908
     130A      1.350643   131A      1.362588   132A      1.385148
     133A      1.393531   134A      1.479394   135A      1.480440
     136A      1.497867   137A      1.516223   138A      1.527574
     139A      1.533266   140A      1.555650   141A      1.615977
     142A      1.628799   143A      1.637920   144A      1.681858
     145A      1.685100   146A      1.689614   147A      1.693769
     148A      1.709992   149A      1.730449   150A      1.753278
     151A      1.782281   152A      1.799095   153A      1.804090
     154A      1.859863   155A      1.873892   156A      1.879318
     157A      1.884434   158A      1.892612   159A      1.894602
     160A      1.908154   161A      1.912326   162A      1.923168
     163A      1.928756   164A      1.936038   165A      1.944366
     166A      1.951083   167A      1.957197   168A      1.970116
     169A      1.977553   170A      1.990009   171A      1.993981
     172A      1.997303   173A      2.004051   174A      2.008661
     175A      2.031108   176A      2.042928   177A      2.048627
     178A      2.063120   179A      2.068524   180A      2.071321
     181A      2.123250   182A      2.135100   183A      2.148662
     184A      2.165202   185A      2.172722   186A      2.199670
     187A      2.219565   188A      2.256302   189A      2.268701
     190A      2.287962   191A      2.301292   192A      2.303522
     193A      2.335474   194A      2.342530   195A      2.354925
     196A      2.398702   197A      2.404527   198A      2.464335
     199A      2.469958   200A      2.492597   201A      2.498051
     202A      2.528952   203A      2.534929   204A      2.579295
     205A      2.597579   206A      2.606638   207A      2.623102
     208A      2.635829   209A      2.651370   210A      2.740912
     211A      2.756285   212A      2.764450   213A      2.767792
     214A      2.786609   215A      2.788824   216A      2.801804
     217A      2.816600   218A      2.840608   219A      2.894938
     220A      2.926514   221A      2.957848   222A      2.972967
     223A      2.979334   224A      2.998790   225A      3.082545
     226A      3.087076   227A      3.116031   228A      3.259118
     229A      3.275175   230A      3.346127   231A      3.588862
     232A      3.670809   233A      3.978174   234A      4.189067

    Final Occupation by Irrep:
              A
    DOCC [    42 ]

  @RHF Final Energy:  -462.89409213844289

   => Energetics <=

    Nuclear Repulsion Energy =            582.9632606828079133
    One-Electron Energy =               -1783.5362847869539564
    Two-Electron Energy =                 737.6789319657031001
    Total Energy =                       -462.8940921384429430

Computation Completed

Properties will be evaluated at   0.000000,   0.000000,   0.000000 [a0]

Properties computed using the SCF density matrix

  Nuclear Dipole Moment: [e a0]
     X:     8.3093      Y:   -10.3473      Z:    -1.9459

  Electronic Dipole Moment: [e a0]
     X:    -8.0150      Y:    10.8592      Z:     2.1301

  Dipole Moment: [e a0]
     X:     0.2943      Y:     0.5119      Z:     0.1842     Total:     0.6185

  Dipole Moment: [D]
     X:     0.7480      Y:     1.3010      Z:     0.4682     Total:     1.5720

*** tstop() called on ds3 at Mon Apr 27 01:13:42 2020
Module time:
	user time   =     144.02 seconds =       2.40 minutes
	system time =      51.82 seconds =       0.86 minutes
	total time  =        758 seconds =      12.63 minutes
Total time:
	user time   =     144.02 seconds =       2.40 minutes
	system time =      51.82 seconds =       0.86 minutes
	total time  =        758 seconds =      12.63 minutes
                                     G D M A

                                 by Anthony Stone

                           version 2.2.06, 22 June 2011

               Distributed Multipoles from Gaussian wavefunctions

Starting at 1:13:42 on 27 Apr 2020

Using SCF density matrix from file ./SSI/SSI-011LEU-102TYR-1-dimer.test.11968.fchk

                         Distributed Multipole Analysis

Standard DMA

Positions and radii in angstrom
Multipole moments in atomic units, ea_0^k for rank k

C          x =  0.721178  y = -2.789660  z =  0.542582 angstrom
           Maximum rank =  0   Radius =  0.650 angstrom
                   Q00  =  -0.070642

C          x =  0.568178  y = -4.233660  z =  1.039582 angstrom
           Maximum rank =  0   Radius =  0.650 angstrom
                   Q00  =  -0.240364

C          x =  2.123178  y = -2.408660  z =  0.059582 angstrom
           Maximum rank =  0   Radius =  0.650 angstrom
                   Q00  =  -0.249615

H          x =  0.014178  y = -2.614660  z = -0.268418 angstrom
           Maximum rank =  0   Radius =  0.325 angstrom
                   Q00  =   0.046539

H          x =  0.453178  y = -2.122660  z =  1.361582 angstrom
           Maximum rank =  0   Radius =  0.325 angstrom
                   Q00  =   0.041432

H          x =  0.795178  y = -4.938660  z =  0.240582 angstrom
           Maximum rank =  0   Radius =  0.325 angstrom
                   Q00  =   0.075476

H          x =  2.844178  y = -2.623660  z =  0.847582 angstrom
           Maximum rank =  0   Radius =  0.325 angstrom
                   Q00  =   0.068566

H          x = -0.474287  y = -4.373512  z =  1.361620 angstrom
           Maximum rank =  0   Radius =  0.325 angstrom
                   Q00  =   0.084101

H          x =  1.251680  y = -4.389231  z =  1.887298 angstrom
           Maximum rank =  0   Radius =  0.325 angstrom
                   Q00  =   0.072974

H          x =  2.399592  y = -2.993242  z = -0.830282 angstrom
           Maximum rank =  0   Radius =  0.325 angstrom
                   Q00  =   0.073363

H          x =  2.181274  y = -1.327788  z = -0.136223 angstrom
           Maximum rank =  0   Radius =  0.325 angstrom
                   Q00  =   0.090662

C          x =  0.628178  y =  2.825340  z = -2.465418 angstrom
           Maximum rank =  0   Radius =  0.650 angstrom
                   Q00  =  -0.195921

C          x = -1.395822  y =  0.266340  z = -0.491418 angstrom
           Maximum rank =  0   Radius =  0.650 angstrom
                   Q00  =  -0.123877

C          x = -0.990822  y =  0.553340  z =  0.817582 angstrom
           Maximum rank =  0   Radius =  0.650 angstrom
                   Q00  =   0.286689

C          x = -0.871822  y =  1.010340  z = -1.552418 angstrom
           Maximum rank =  0   Radius =  0.650 angstrom
                   Q00  =  -0.015449

C          x =  0.053178  y =  2.030340  z = -1.322418 angstrom
           Maximum rank =  0   Radius =  0.650 angstrom
                   Q00  =  -0.137959

C          x = -0.080822  y =  1.578340  z =  1.056582 angstrom
           Maximum rank =  0   Radius =  0.650 angstrom
                   Q00  =  -0.179982

C          x =  0.434178  y =  2.310340  z = -0.010418 angstrom
           Maximum rank =  0   Radius =  0.650 angstrom
                   Q00  =   0.025455

O          x = -1.450822  y = -0.161660  z =  1.876582 angstrom
           Maximum rank =  0   Radius =  0.650 angstrom
                   Q00  =  -0.634757

H          x = -2.098822  y = -0.529660  z = -0.673418 angstrom
           Maximum rank =  0   Radius =  0.325 angstrom
                   Q00  =   0.082747

H          x = -1.174822  y =  0.782340  z = -2.566418 angstrom
           Maximum rank =  0   Radius =  0.325 angstrom
                   Q00  =   0.066240

H          x =  0.236178  y =  1.803340  z =  2.065582 angstrom
           Maximum rank =  0   Radius =  0.325 angstrom
                   Q00  =   0.069320

H          x = -1.075822  y =  0.155340  z =  2.699582 angstrom
           Maximum rank =  0   Radius =  0.325 angstrom
                   Q00  =   0.406061

H          x =  0.448178  y =  2.302340  z = -3.406418 angstrom
           Maximum rank =  0   Radius =  0.325 angstrom
                   Q00  =   0.096987

H          x =  1.709178  y =  2.893340  z = -2.327418 angstrom
           Maximum rank =  0   Radius =  0.325 angstrom
                   Q00  =   0.095057

H          x =  1.151178  y =  3.098340  z =  0.183582 angstrom
           Maximum rank =  0   Radius =  0.325 angstrom
                   Q00  =   0.067441

H          x =  0.210752  y =  3.841366  z = -2.524119 angstrom
           Maximum rank =  0   Radius =  0.325 angstrom
                   Q00  =   0.099457

Total multipoles referred to origin at
           x =   0.000000,  y =    0.000000,  z =    0.000000 angstrom
                   Q00  =  -0.000000

Finished at 1:13:42 on 27 Apr 2020

  DMA results are available in the Python driver through the
	  variable('DMA DISTRIBUTED MULTIPOLES')
  and
	  variable('DMA TOTAL MULTIPOLES')
  commands.

    Psi4 stopped on: Monday, 27 April 2020 01:13AM
    Psi4 wall time for execution: 0:12:37.77

*** Psi4 exiting successfully. Buy a developer a beer!
