                               Psi4 1.3.2 release

  ==> Input File <==

--------------------------------------------------------------------------
import numpy as np
set {scf_type pk
basis cc-pvdz
d_convergence 10
gdma_switch   0
gdma_limit    0
gdma_origin   [ 0.0,  0.0,  0.0 ]
}
molecule test {
    units Angstrom
    0 1
    --
    0 1
    C                0.205585019120859     1.029291518828893     0.424291095064672
    C               -0.222414980879141     0.933291518828893     1.920291095064672
    C                1.924585019120859    -0.075708481171107     1.695291095064672
    C                1.940585019120859     1.234291518828893    -1.887708904935328
    C                2.477585019120859     0.673291518828893    -0.569708904935328
    O                3.686585019120859     0.384291518828893    -0.444708904935328
    N                1.576585019120859     0.515291518828893     0.412291095064672
    H               -0.433414980879141     0.396291518828893    -0.190708904935328
    H                0.149585019120859     2.069291518828893     0.102291095064672
    H               -1.291414980879141     0.785291518828893     2.045291095064672
    H                0.095585019120859     1.835291518828893     2.445291095064672
    H                2.600585019120858     0.573291518828893     2.254291095064672
    H                1.140585019120859     1.945291518828893    -1.700708904935328
    H                0.368505019120859     0.075911518828893     2.274841095064672
    H                0.956975019120859    -0.190348481171107     2.205771095064672
    H                2.361295019120858    -1.068038481171107     1.509361095064672
    H                2.741895019120858     1.753411518828893    -2.433988904935328
    H                1.554455019120859     0.387941518828893    -2.474738904935328
    C               -2.460414980879142    -2.523708481171107    -0.730708904935328
    C               -2.849414980879141    -1.095708481171107    -0.338708904935328
    O               -2.887414980879142    -0.745708481171107     0.848291095064672
    N               -3.112414980879141    -0.253708481171107    -1.326708904935328
    H               -2.544414980879141    -2.643708481171108    -1.808708904935328
    H               -3.159414980879141    -3.207708481171107    -0.252708904935328
    H               -3.426414980879141     0.675291518828893    -1.098708904935328
    H               -3.114414980879141    -0.591708481171107    -2.284708904935328
    H               -1.442494980879141    -2.778548481171107    -0.400708904935328

}
e, wfn = energy('scf', return_wfn=True)
gdma(wfn)
dmavals = variable('DMA DISTRIBUTED MULTIPOLES')
charges = np.array(dmavals)
print(charges)
np.save('SSI-149PRO-152GLN-1-dimer.npy', np.array(charges))--------------------------------------------------------------------------

*** tstart() called on ds3
*** at Tue Apr 28 10:38:50 2020

   => Loading Basis Set <=

    Name: CC-PVDZ
    Role: ORBITAL
    Keyword: BASIS
    atoms 1-5, 19-20  entry C          line   138 file /theoryfs2/ds/metcalf/miniconda2/envs/tf2gpu/share/psi4/basis/cc-pvdz.gbs
    atoms 6, 21       entry O          line   198 file /theoryfs2/ds/metcalf/miniconda2/envs/tf2gpu/share/psi4/basis/cc-pvdz.gbs
    atoms 7, 22       entry N          line   168 file /theoryfs2/ds/metcalf/miniconda2/envs/tf2gpu/share/psi4/basis/cc-pvdz.gbs
    atoms 8-18, 23-27 entry H          line    22 file /theoryfs2/ds/metcalf/miniconda2/envs/tf2gpu/share/psi4/basis/cc-pvdz.gbs

         ---------------------------------------------------------
                                   SCF
               by Justin Turney, Rob Parrish, Andy Simmonett
                          and Daniel G. A. Smith
                              RHF Reference
                        1 Threads,    500 MiB Core
         ---------------------------------------------------------

  ==> Geometry <==

    Molecular point group: c1
    Full point group: C1

    Geometry (in Angstrom), charge = 0, multiplicity = 1:

       Center              X                  Y                   Z               Mass
    ------------   -----------------  -----------------  -----------------  -----------------
         C            0.205585019121     1.029291518829     0.424291095065    12.000000000000
         C           -0.222414980879     0.933291518829     1.920291095065    12.000000000000
         C            1.924585019121    -0.075708481171     1.695291095065    12.000000000000
         C            1.940585019121     1.234291518829    -1.887708904935    12.000000000000
         C            2.477585019121     0.673291518829    -0.569708904935    12.000000000000
         O            3.686585019121     0.384291518829    -0.444708904935    15.994914619570
         N            1.576585019121     0.515291518829     0.412291095065    14.003074004430
         H           -0.433414980879     0.396291518829    -0.190708904935     1.007825032230
         H            0.149585019121     2.069291518829     0.102291095065     1.007825032230
         H           -1.291414980879     0.785291518829     2.045291095065     1.007825032230
         H            0.095585019121     1.835291518829     2.445291095065     1.007825032230
         H            2.600585019121     0.573291518829     2.254291095065     1.007825032230
         H            1.140585019121     1.945291518829    -1.700708904935     1.007825032230
         H            0.368505019121     0.075911518829     2.274841095065     1.007825032230
         H            0.956975019121    -0.190348481171     2.205771095065     1.007825032230
         H            2.361295019121    -1.068038481171     1.509361095065     1.007825032230
         H            2.741895019121     1.753411518829    -2.433988904935     1.007825032230
         H            1.554455019121     0.387941518829    -2.474738904935     1.007825032230
         C           -2.460414980879    -2.523708481171    -0.730708904935    12.000000000000
         C           -2.849414980879    -1.095708481171    -0.338708904935    12.000000000000
         O           -2.887414980879    -0.745708481171     0.848291095065    15.994914619570
         N           -3.112414980879    -0.253708481171    -1.326708904935    14.003074004430
         H           -2.544414980879    -2.643708481171    -1.808708904935     1.007825032230
         H           -3.159414980879    -3.207708481171    -0.252708904935     1.007825032230
         H           -3.426414980879     0.675291518829    -1.098708904935     1.007825032230
         H           -3.114414980879    -0.591708481171    -2.284708904935     1.007825032230
         H           -1.442494980879    -2.778548481171    -0.400708904935     1.007825032230

  Running in c1 symmetry.

  Rotational constants: A =      0.04969  B =      0.01506  C =      0.01360 [cm^-1]
  Rotational constants: A =   1489.59396  B =    451.41690  C =    407.59796 [MHz]
  Nuclear repulsion =  635.348065040575989

  Charge       = 0
  Multiplicity = 1
  Electrons    = 88
  Nalpha       = 44
  Nbeta        = 44

  ==> Algorithm <==

  SCF Algorithm Type is PK.
  DIIS enabled.
  MOM disabled.
  Fractional occupation disabled.
  Guess Type is SAD.
  Energy threshold   = 1.00e-06
  Density threshold  = 1.00e-10
  Integral threshold = 0.00e+00

  ==> Primary Basis <==

  Basis Set: CC-PVDZ
    Blend: CC-PVDZ
    Number of shells: 114
    Number of basis function: 234
    Number of Cartesian functions: 245
    Spherical Harmonics?: true
    Max angular momentum: 2

  ==> Pre-Iterations <==

   -------------------------------------------------------
    Irrep   Nso     Nmo     Nalpha   Nbeta   Ndocc  Nsocc
   -------------------------------------------------------
     A        234     234       0       0       0       0
   -------------------------------------------------------
    Total     234     234      44      44      44       0
   -------------------------------------------------------

  ==> Integral Setup <==

  Using integral reordering PK algorithm.
  Sizing the integral batches needed.
  Building batch lookup table.
   Calculation information:
      Number of atoms:                  27
      Number of AO shells:             114
      Number of primitives:            322
      Number of atomic orbitals:       245
      Number of basis functions:       234

      Integral cutoff                 1.00e-12
      Number of threads:                 1

	Batch   1 pq = [       0,    9405] index = [             0,44231715] size =     44231715
	Batch   2 pq = [    9405,   13301] index = [      44231715,88464951] size =     44233236
	Batch   3 pq = [   13301,   16290] index = [      88464951,132690195] size =     44225244
	Batch   4 pq = [   16290,   18810] index = [     132690195,176917455] size =     44227260
	Batch   5 pq = [   18810,   21030] index = [     176917455,221140965] size =     44223510
	Batch   6 pq = [   21030,   23037] index = [     221140965,265363203] size =     44222238
	Batch   7 pq = [   23037,   24883] index = [     265363203,309594286] size =     44231083
	Batch   8 pq = [   24883,   26601] index = [     309594286,353819901] size =     44225615
	Batch   9 pq = [   26601,   27495] index = [     353819901,378001260] size =     24181359
  Task number: 35
  Buffer size: 11059200
  Buffer per thread: 2
  We computed 19928985 shell quartets total.
  Whereas there are 21487290 unique shell quartets.

  ==> DiskJK: Disk-Based J/K Matrices <==

    J tasked:                  Yes
    K tasked:                  Yes
    wK tasked:                  No
    Memory [MiB]:              375
    Schwarz Cutoff:          1E-12

    OpenMP threads:              1

  Minimum eigenvalue in the overlap matrix is 1.4476815623E-03.
  Using Symmetric Orthogonalization.

  SCF Guess: Superposition of Atomic Densities via on-the-fly atomic UHF.

  ==> Iterations <==

                        Total Energy        Delta E     RMS |[F,P]|

   @RHF iter SAD:  -531.85363114224685   -5.31854e+02   0.00000e+00
   @RHF iter   1:  -532.50478672750398   -6.51156e-01   3.49194e-03 DIIS
   @RHF iter   2:  -532.76797837617266   -2.63192e-01   2.12786e-03 DIIS
   @RHF iter   3:  -532.85894050495551   -9.09621e-02   4.42463e-04 DIIS
   @RHF iter   4:  -532.86543105970645   -6.49055e-03   1.60763e-04 DIIS
   @RHF iter   5:  -532.86642426548633   -9.93206e-04   3.27700e-05 DIIS
   @RHF iter   6:  -532.86649808783500   -7.38223e-05   1.79139e-05 DIIS
   @RHF iter   7:  -532.86651521858857   -1.71308e-05   6.56326e-06 DIIS
   @RHF iter   8:  -532.86651845998881   -3.24140e-06   2.89366e-06 DIIS
   @RHF iter   9:  -532.86651897326976   -5.13281e-07   1.06761e-06 DIIS
   @RHF iter  10:  -532.86651905021233   -7.69426e-08   2.93741e-07 DIIS
   @RHF iter  11:  -532.86651905540009   -5.18776e-09   1.00500e-07 DIIS
   @RHF iter  12:  -532.86651905592203   -5.21936e-10   3.38484e-08 DIIS
   @RHF iter  13:  -532.86651905598626   -6.42331e-11   8.46723e-09 DIIS
   @RHF iter  14:  -532.86651905599103   -4.77485e-12   2.71759e-09 DIIS
   @RHF iter  15:  -532.86651905599183   -7.95808e-13   1.06349e-09 DIIS
   @RHF iter  16:  -532.86651905599206   -2.27374e-13   4.30016e-10 DIIS
   @RHF iter  17:  -532.86651905599490   -2.84217e-12   1.75244e-10 DIIS
   @RHF iter  18:  -532.86651905599069    4.20641e-12   7.84212e-11 DIIS
  Energy and wave function converged.

  ==> Post-Iterations <==

    Orbital Energies [Eh]
    ---------------------

    Doubly Occupied:

       1A    -20.516909     2A    -20.492181     3A    -15.606517
       4A    -15.575442     5A    -11.364094     6A    -11.336969
       7A    -11.269842     8A    -11.256154     9A    -11.234745
      10A    -11.234195    11A    -11.206902    12A     -1.376812
      13A     -1.344729    14A     -1.245666    15A     -1.231739
      16A     -1.058058    17A     -1.010094    18A     -0.994733
      19A     -0.962461    20A     -0.847251    21A     -0.813837
      22A     -0.743642    23A     -0.742177    24A     -0.720553
      25A     -0.667847    26A     -0.662317    27A     -0.645236
      28A     -0.621487    29A     -0.605496    30A     -0.587218
      31A     -0.579009    32A     -0.573464    33A     -0.572497
      34A     -0.543613    35A     -0.535513    36A     -0.527456
      37A     -0.513580    38A     -0.506332    39A     -0.475540
      40A     -0.423168    41A     -0.417191    42A     -0.393383
      43A     -0.380139    44A     -0.351618

    Virtual:

      45A      0.144287    46A      0.174584    47A      0.185158
      48A      0.198181    49A      0.199323    50A      0.203213
      51A      0.216435    52A      0.232366    53A      0.254956
      54A      0.261984    55A      0.264679    56A      0.269733
      57A      0.271719    58A      0.288022    59A      0.292394
      60A      0.312411    61A      0.332684    62A      0.345915
      63A      0.354936    64A      0.366206    65A      0.382871
      66A      0.426778    67A      0.451512    68A      0.464441
      69A      0.504600    70A      0.540733    71A      0.560329
      72A      0.572443    73A      0.595243    74A      0.610172
      75A      0.622494    76A      0.649359    77A      0.653275
      78A      0.662503    79A      0.675061    80A      0.678804
      81A      0.699942    82A      0.710177    83A      0.724558
      84A      0.737075    85A      0.749327    86A      0.758091
      87A      0.786565    88A      0.799288    89A      0.820618
      90A      0.837449    91A      0.845869    92A      0.855855
      93A      0.866275    94A      0.869205    95A      0.874227
      96A      0.883191    97A      0.888070    98A      0.893485
      99A      0.899968   100A      0.917958   101A      0.922778
     102A      0.932246   103A      0.945314   104A      0.952653
     105A      0.964724   106A      0.980448   107A      1.002655
     108A      1.027120   109A      1.037939   110A      1.048196
     111A      1.070918   112A      1.076418   113A      1.083914
     114A      1.129605   115A      1.146346   116A      1.180013
     117A      1.192812   118A      1.220645   119A      1.255461
     120A      1.270141   121A      1.308173   122A      1.345993
     123A      1.358719   124A      1.366596   125A      1.392139
     126A      1.398875   127A      1.407029   128A      1.415042
     129A      1.423631   130A      1.452030   131A      1.459694
     132A      1.464981   133A      1.488726   134A      1.506529
     135A      1.561234   136A      1.581251   137A      1.600396
     138A      1.611769   139A      1.614978   140A      1.635854
     141A      1.650105   142A      1.652228   143A      1.697345
     144A      1.707120   145A      1.720720   146A      1.738602
     147A      1.767747   148A      1.801649   149A      1.831465
     150A      1.835910   151A      1.850350   152A      1.859566
     153A      1.869496   154A      1.883840   155A      1.887145
     156A      1.894592   157A      1.904080   158A      1.906718
     159A      1.927048   160A      1.931414   161A      1.941719
     162A      1.957199   163A      1.970678   164A      1.983408
     165A      1.994018   166A      2.014396   167A      2.031302
     168A      2.037807   169A      2.044674   170A      2.068652
     171A      2.079659   172A      2.096514   173A      2.112231
     174A      2.125989   175A      2.146598   176A      2.152982
     177A      2.187860   178A      2.209349   179A      2.213319
     180A      2.237702   181A      2.251042   182A      2.270692
     183A      2.288287   184A      2.299504   185A      2.330904
     186A      2.348293   187A      2.402270   188A      2.427267
     189A      2.434075   190A      2.456216   191A      2.461129
     192A      2.507400   193A      2.519765   194A      2.525938
     195A      2.543018   196A      2.558208   197A      2.562229
     198A      2.597346   199A      2.620652   200A      2.651359
     201A      2.719708   202A      2.728530   203A      2.747469
     204A      2.764881   205A      2.777669   206A      2.787354
     207A      2.795444   208A      2.803809   209A      2.807749
     210A      2.815012   211A      2.830359   212A      2.852366
     213A      2.874955   214A      2.940248   215A      2.957653
     216A      2.995117   217A      3.033217   218A      3.081777
     219A      3.098931   220A      3.112869   221A      3.145123
     222A      3.172533   223A      3.233352   224A      3.265592
     225A      3.335816   226A      3.369303   227A      3.467380
     228A      3.506188   229A      3.513673   230A      3.806243
     231A      3.841945   232A      3.889346   233A      3.905265
     234A      5.181724

    Final Occupation by Irrep:
              A
    DOCC [    44 ]

  @RHF Final Energy:  -532.86651905599069

   => Energetics <=

    Nuclear Repulsion Energy =            635.3480650405759889
    One-Electron Energy =               -1986.8935547458079327
    Two-Electron Energy =                 818.6789706492411369
    Total Energy =                       -532.8665190559906932

Computation Completed

Properties will be evaluated at   0.000000,   0.000000,   0.000000 [a0]

Properties computed using the SCF density matrix

  Nuclear Dipole Moment: [e a0]
     X:    -3.2190      Y:     0.0137      Z:     0.1841

  Electronic Dipole Moment: [e a0]
     X:     1.0743      Y:    -0.0292      Z:    -1.4942

  Dipole Moment: [e a0]
     X:    -2.1446      Y:    -0.0155      Z:    -1.3102     Total:     2.5132

  Dipole Moment: [D]
     X:    -5.4511      Y:    -0.0394      Z:    -3.3301     Total:     6.3879

*** tstop() called on ds3 at Tue Apr 28 10:42:24 2020
Module time:
	user time   =     137.70 seconds =       2.30 minutes
	system time =      59.33 seconds =       0.99 minutes
	total time  =        214 seconds =       3.57 minutes
Total time:
	user time   =     137.70 seconds =       2.30 minutes
	system time =      59.33 seconds =       0.99 minutes
	total time  =        214 seconds =       3.57 minutes
                                     G D M A

                                 by Anthony Stone

                           version 2.2.06, 22 June 2011

               Distributed Multipoles from Gaussian wavefunctions

Starting at 10:42:25 on 28 Apr 2020

Using SCF density matrix from file ./SSI/SSI-149PRO-152GLN-1-dimer.test.6433.fchk

                         Distributed Multipole Analysis

Standard DMA

Positions and radii in angstrom
Multipole moments in atomic units, ea_0^k for rank k

C          x =  0.205585  y =  1.029292  z =  0.424291 angstrom
           Maximum rank =  0   Radius =  0.650 angstrom
                   Q00  =  -0.017775

C          x = -0.222415  y =  0.933292  z =  1.920291 angstrom
           Maximum rank =  0   Radius =  0.650 angstrom
                   Q00  =  -0.226486

C          x =  1.924585  y = -0.075708  z =  1.695291 angstrom
           Maximum rank =  0   Radius =  0.650 angstrom
                   Q00  =  -0.095793

C          x =  1.940585  y =  1.234292  z = -1.887709 angstrom
           Maximum rank =  0   Radius =  0.650 angstrom
                   Q00  =  -0.268773

C          x =  2.477585  y =  0.673292  z = -0.569709 angstrom
           Maximum rank =  0   Radius =  0.650 angstrom
                   Q00  =   0.751766

O          x =  3.686585  y =  0.384292  z = -0.444709 angstrom
           Maximum rank =  0   Radius =  0.650 angstrom
                   Q00  =  -0.794849

N          x =  1.576585  y =  0.515292  z =  0.412291 angstrom
           Maximum rank =  0   Radius =  0.650 angstrom
                   Q00  =  -0.451895

H          x = -0.433415  y =  0.396292  z = -0.190709 angstrom
           Maximum rank =  0   Radius =  0.325 angstrom
                   Q00  =   0.062667

H          x =  0.149585  y =  2.069292  z =  0.102291 angstrom
           Maximum rank =  0   Radius =  0.325 angstrom
                   Q00  =   0.070068

H          x = -1.291415  y =  0.785292  z =  2.045291 angstrom
           Maximum rank =  0   Radius =  0.325 angstrom
                   Q00  =   0.126732

H          x =  0.095585  y =  1.835292  z =  2.445291 angstrom
           Maximum rank =  0   Radius =  0.325 angstrom
                   Q00  =   0.083311

H          x =  2.600585  y =  0.573292  z =  2.254291 angstrom
           Maximum rank =  0   Radius =  0.325 angstrom
                   Q00  =   0.101435

H          x =  1.140585  y =  1.945292  z = -1.700709 angstrom
           Maximum rank =  0   Radius =  0.325 angstrom
                   Q00  =   0.092378

H          x =  0.368505  y =  0.075912  z =  2.274841 angstrom
           Maximum rank =  0   Radius =  0.325 angstrom
                   Q00  =   0.095050

H          x =  0.956975  y = -0.190348  z =  2.205771 angstrom
           Maximum rank =  0   Radius =  0.325 angstrom
                   Q00  =   0.120369

H          x =  2.361295  y = -1.068038  z =  1.509361 angstrom
           Maximum rank =  0   Radius =  0.325 angstrom
                   Q00  =   0.097167

H          x =  2.741895  y =  1.753412  z = -2.433989 angstrom
           Maximum rank =  0   Radius =  0.325 angstrom
                   Q00  =   0.126500

H          x =  1.554455  y =  0.387942  z = -2.474739 angstrom
           Maximum rank =  0   Radius =  0.325 angstrom
                   Q00  =   0.118656

C          x = -2.460415  y = -2.523708  z = -0.730709 angstrom
           Maximum rank =  0   Radius =  0.650 angstrom
                   Q00  =  -0.260554

C          x = -2.849415  y = -1.095708  z = -0.338709 angstrom
           Maximum rank =  0   Radius =  0.650 angstrom
                   Q00  =   0.795079

O          x = -2.887415  y = -0.745708  z =  0.848291 angstrom
           Maximum rank =  0   Radius =  0.650 angstrom
                   Q00  =  -0.797458

N          x = -3.112415  y = -0.253708  z = -1.326709 angstrom
           Maximum rank =  0   Radius =  0.650 angstrom
                   Q00  =  -0.513599

H          x = -2.544415  y = -2.643708  z = -1.808709 angstrom
           Maximum rank =  0   Radius =  0.325 angstrom
                   Q00  =   0.075715

H          x = -3.159415  y = -3.207708  z = -0.252709 angstrom
           Maximum rank =  0   Radius =  0.325 angstrom
                   Q00  =   0.137395

H          x = -3.426415  y =  0.675292  z = -1.098709 angstrom
           Maximum rank =  0   Radius =  0.325 angstrom
                   Q00  =   0.226274

H          x = -3.114415  y = -0.591708  z = -2.284709 angstrom
           Maximum rank =  0   Radius =  0.325 angstrom
                   Q00  =   0.211846

H          x = -1.442495  y = -2.778548  z = -0.400709 angstrom
           Maximum rank =  0   Radius =  0.325 angstrom
                   Q00  =   0.134775

Total multipoles referred to origin at
           x =   0.000000,  y =    0.000000,  z =    0.000000 angstrom
                   Q00  =  -0.000000

Finished at 10:42:25 on 28 Apr 2020

  DMA results are available in the Python driver through the
	  variable('DMA DISTRIBUTED MULTIPOLES')
  and
	  variable('DMA TOTAL MULTIPOLES')
  commands.

    Psi4 stopped on: Tuesday, 28 April 2020 10:42AM
    Psi4 wall time for execution: 0:03:35.14

*** Psi4 exiting successfully. Buy a developer a beer!
