                               Psi4 1.3.2 release

  ==> Input File <==

--------------------------------------------------------------------------
import numpy as np
set {scf_type pk
basis cc-pvdz
d_convergence 10
gdma_switch   0
gdma_limit    0
gdma_origin   [ 0.0,  0.0,  0.0 ]
}
molecule test {
    units Angstrom
    0 1
    --
    0 1
    C               -3.102903107441726     1.589460989629313     1.478685290586989
    C               -3.121903107441726     2.759460989629313     2.466685290586990
    H               -4.071903107441726     1.477460989629313     0.992685290586989
    H               -2.363903107441726     1.790460989629314     0.704685290586989
    H               -2.844903107441727     0.668460989629313     2.000685290586989
    H               -3.418903107441726     3.658460989629313     1.925685290586989
    H               -3.841363107441726     2.564219089629313     3.275544290586990
    H               -2.115493107441726     2.916778989629313     2.881891290586990
    C                2.924096892558274     0.827460989629313    -0.568314709413011
    C               -0.594903107441726    -0.588539010370687    -0.198314709413011
    C               -0.434903107441726    -1.872539010370686    -0.718314709413011
    C                0.497096892558274     0.284460989629313    -0.139314709413011
    C                1.752096892558274    -0.118539010370687    -0.600314709413011
    C                0.818096892558274    -2.283539010370687    -1.178314709413011
    C                1.904096892558274    -1.408539010370687    -1.115314709413010
    H               -1.563903107441726    -0.280539010370687     0.162685290586989
    H               -1.278903107441726    -2.548539010370687    -0.764314709413011
    H                0.371096892558274     1.268460989629313     0.284685290586989
    H                0.951096892558274    -3.276539010370687    -1.578314709413011
    H                3.803096892558274     0.248460989629313    -0.288314709413011
    H                2.768096892558273     1.573460989629313     0.206685290586989
    H                2.867096892558274    -1.743539010370687    -1.458314709413011
    H                3.108036892558274     1.337596089629314    -1.525356709413011

}
e, wfn = energy('scf', return_wfn=True)
gdma(wfn)
dmavals = variable('DMA DISTRIBUTED MULTIPOLES')
charges = np.array(dmavals)
print(charges)
np.save('SSI-072VAL-176PHE-1-dimer.npy', np.array(charges))--------------------------------------------------------------------------

*** tstart() called on ds3
*** at Mon Apr 27 21:59:00 2020

   => Loading Basis Set <=

    Name: CC-PVDZ
    Role: ORBITAL
    Keyword: BASIS
    atoms 1-2, 9-15  entry C          line   138 file /theoryfs2/ds/metcalf/miniconda2/envs/tf2gpu/share/psi4/basis/cc-pvdz.gbs
    atoms 3-8, 16-23 entry H          line    22 file /theoryfs2/ds/metcalf/miniconda2/envs/tf2gpu/share/psi4/basis/cc-pvdz.gbs

         ---------------------------------------------------------
                                   SCF
               by Justin Turney, Rob Parrish, Andy Simmonett
                          and Daniel G. A. Smith
                              RHF Reference
                        1 Threads,    500 MiB Core
         ---------------------------------------------------------

  ==> Geometry <==

    Molecular point group: c1
    Full point group: C1

    Geometry (in Angstrom), charge = 0, multiplicity = 1:

       Center              X                  Y                   Z               Mass
    ------------   -----------------  -----------------  -----------------  -----------------
         C           -3.102903107442     1.589460989629     1.478685290587    12.000000000000
         C           -3.121903107442     2.759460989629     2.466685290587    12.000000000000
         H           -4.071903107442     1.477460989629     0.992685290587     1.007825032230
         H           -2.363903107442     1.790460989629     0.704685290587     1.007825032230
         H           -2.844903107442     0.668460989629     2.000685290587     1.007825032230
         H           -3.418903107442     3.658460989629     1.925685290587     1.007825032230
         H           -3.841363107442     2.564219089629     3.275544290587     1.007825032230
         H           -2.115493107442     2.916778989629     2.881891290587     1.007825032230
         C            2.924096892558     0.827460989629    -0.568314709413    12.000000000000
         C           -0.594903107442    -0.588539010371    -0.198314709413    12.000000000000
         C           -0.434903107442    -1.872539010371    -0.718314709413    12.000000000000
         C            0.497096892558     0.284460989629    -0.139314709413    12.000000000000
         C            1.752096892558    -0.118539010371    -0.600314709413    12.000000000000
         C            0.818096892558    -2.283539010371    -1.178314709413    12.000000000000
         C            1.904096892558    -1.408539010371    -1.115314709413    12.000000000000
         H           -1.563903107442    -0.280539010371     0.162685290587     1.007825032230
         H           -1.278903107442    -2.548539010371    -0.764314709413     1.007825032230
         H            0.371096892558     1.268460989629     0.284685290587     1.007825032230
         H            0.951096892558    -3.276539010371    -1.578314709413     1.007825032230
         H            3.803096892558     0.248460989629    -0.288314709413     1.007825032230
         H            2.768096892558     1.573460989629     0.206685290587     1.007825032230
         H            2.867096892558    -1.743539010371    -1.458314709413     1.007825032230
         H            3.108036892558     1.337596089629    -1.525356709413     1.007825032230

  Running in c1 symmetry.

  Rotational constants: A =      0.08025  B =      0.01998  C =      0.01620 [cm^-1]
  Rotational constants: A =   2405.81004  B =    599.02626  C =    485.78686 [MHz]
  Nuclear repulsion =  396.446849830435951

  Charge       = 0
  Multiplicity = 1
  Electrons    = 68
  Nalpha       = 34
  Nbeta        = 34

  ==> Algorithm <==

  SCF Algorithm Type is PK.
  DIIS enabled.
  MOM disabled.
  Fractional occupation disabled.
  Guess Type is SAD.
  Energy threshold   = 1.00e-06
  Density threshold  = 1.00e-10
  Integral threshold = 0.00e+00

  ==> Primary Basis <==

  Basis Set: CC-PVDZ
    Blend: CC-PVDZ
    Number of shells: 96
    Number of basis function: 196
    Number of Cartesian functions: 205
    Spherical Harmonics?: true
    Max angular momentum: 2

  ==> Pre-Iterations <==

   -------------------------------------------------------
    Irrep   Nso     Nmo     Nalpha   Nbeta   Ndocc  Nsocc
   -------------------------------------------------------
     A        196     196       0       0       0       0
   -------------------------------------------------------
    Total     196     196      34      34      34       0
   -------------------------------------------------------

  ==> Integral Setup <==

  Using integral reordering PK algorithm.
  Sizing the integral batches needed.
  Building batch lookup table.
   Calculation information:
      Number of atoms:                  23
      Number of AO shells:              96
      Number of primitives:            268
      Number of atomic orbitals:       205
      Number of basis functions:       196

      Integral cutoff                 1.00e-12
      Number of threads:                 1

	Batch   1 pq = [       0,    9405] index = [             0,44231715] size =     44231715
	Batch   2 pq = [    9405,   13301] index = [      44231715,88464951] size =     44233236
	Batch   3 pq = [   13301,   16290] index = [      88464951,132690195] size =     44225244
	Batch   4 pq = [   16290,   18810] index = [     132690195,176917455] size =     44227260
	Batch   5 pq = [   18810,   19306] index = [     176917455,186370471] size =      9453016
  Task number: 17
  Buffer size: 11059200
  Buffer per thread: 2
  We computed 8326315 shell quartets total.
  Whereas there are 10841496 unique shell quartets.

  ==> DiskJK: Disk-Based J/K Matrices <==

    J tasked:                  Yes
    K tasked:                  Yes
    wK tasked:                  No
    Memory [MiB]:              375
    Schwarz Cutoff:          1E-12

    OpenMP threads:              1

  Minimum eigenvalue in the overlap matrix is 3.0899193598E-04.
  Using Symmetric Orthogonalization.

  SCF Guess: Superposition of Atomic Densities via on-the-fly atomic UHF.

  ==> Iterations <==

                        Total Energy        Delta E     RMS |[F,P]|

   @RHF iter SAD:  -347.83648558366889   -3.47836e+02   0.00000e+00
   @RHF iter   1:  -348.76920060428182   -9.32715e-01   2.87618e-03 DIIS
   @RHF iter   2:  -348.96047890562471   -1.91278e-01   1.18343e-03 DIIS
   @RHF iter   3:  -348.98991509168832   -2.94362e-02   2.58952e-04 DIIS
   @RHF iter   4:  -348.99239565737543   -2.48057e-03   5.51456e-05 DIIS
   @RHF iter   5:  -348.99247372924287   -7.80719e-05   1.90897e-05 DIIS
   @RHF iter   6:  -348.99248259427401   -8.86503e-06   4.89138e-06 DIIS
   @RHF iter   7:  -348.99248328539358   -6.91120e-07   1.22074e-06 DIIS
   @RHF iter   8:  -348.99248333318241   -4.77888e-08   2.83981e-07 DIIS
   @RHF iter   9:  -348.99248333752871   -4.34630e-09   1.05503e-07 DIIS
   @RHF iter  10:  -348.99248333826927   -7.40556e-10   4.71651e-08 DIIS
   @RHF iter  11:  -348.99248333851148   -2.42210e-10   1.83455e-08 DIIS
   @RHF iter  12:  -348.99248333855707   -4.55884e-11   8.61006e-09 DIIS
   @RHF iter  13:  -348.99248333856650   -9.43601e-12   3.74537e-09 DIIS
   @RHF iter  14:  -348.99248333856787   -1.36424e-12   1.00727e-09 DIIS
   @RHF iter  15:  -348.99248333856815   -2.84217e-13   3.12113e-10 DIIS
   @RHF iter  16:  -348.99248333856769    4.54747e-13   8.03088e-11 DIIS
  Energy and wave function converged.

  ==> Post-Iterations <==

    Orbital Energies [Eh]
    ---------------------

    Doubly Occupied:

       1A    -11.240334     2A    -11.235129     3A    -11.233752
       4A    -11.230606     5A    -11.230237     6A    -11.229431
       7A    -11.228420     8A    -11.221904     9A    -11.219872
      10A     -1.148766    11A     -1.042198    12A     -1.020969
      13A     -1.008614    14A     -0.929849    15A     -0.840190
      16A     -0.823320    17A     -0.793267    18A     -0.688972
      19A     -0.630823    20A     -0.628466    21A     -0.602383
      22A     -0.600737    23A     -0.580356    24A     -0.576928
      25A     -0.560360    26A     -0.534485    27A     -0.502160
      28A     -0.490607    29A     -0.489688    30A     -0.484891
      31A     -0.481613    32A     -0.477796    33A     -0.329647
      34A     -0.320243

    Virtual:

      35A      0.136027    36A      0.141092    37A      0.171445
      38A      0.193435    39A      0.204138    40A      0.222842
      41A      0.229360    42A      0.241286    43A      0.253957
      44A      0.260402    45A      0.264107    46A      0.278143
      47A      0.282655    48A      0.283712    49A      0.313731
      50A      0.327058    51A      0.366910    52A      0.386823
      53A      0.406054    54A      0.458650    55A      0.461139
      56A      0.482811    57A      0.495303    58A      0.558961
      59A      0.593793    60A      0.599775    61A      0.608258
      62A      0.636370    63A      0.642082    64A      0.672945
      65A      0.674946    66A      0.695132    67A      0.697819
      68A      0.712563    69A      0.725325    70A      0.741679
      71A      0.744397    72A      0.748049    73A      0.760202
      74A      0.775719    75A      0.782166    76A      0.796848
      77A      0.839071    78A      0.847371    79A      0.858045
      80A      0.867376    81A      0.877329    82A      0.888876
      83A      0.890549    84A      0.894413    85A      0.897804
      86A      0.902080    87A      0.911526    88A      0.922594
      89A      0.927248    90A      0.933229    91A      0.941972
      92A      0.959455    93A      0.984502    94A      0.994999
      95A      1.046191    96A      1.050710    97A      1.104810
      98A      1.117863    99A      1.131668   100A      1.152625
     101A      1.156438   102A      1.172486   103A      1.215706
     104A      1.229153   105A      1.249523   106A      1.251841
     107A      1.262457   108A      1.283044   109A      1.304111
     110A      1.320771   111A      1.326761   112A      1.337253
     113A      1.419338   114A      1.474074   115A      1.482371
     116A      1.511433   117A      1.528116   118A      1.556955
     119A      1.571762   120A      1.613912   121A      1.675991
     122A      1.678154   123A      1.689695   124A      1.706660
     125A      1.734965   126A      1.745612   127A      1.757635
     128A      1.787923   129A      1.807715   130A      1.854253
     131A      1.857066   132A      1.868363   133A      1.889362
     134A      1.894978   135A      1.907305   136A      1.908347
     137A      1.921656   138A      1.924417   139A      1.939228
     140A      1.941023   141A      1.945547   142A      1.951194
     143A      1.953906   144A      1.964475   145A      1.979606
     146A      1.987792   147A      1.997869   148A      2.005927
     149A      2.037216   150A      2.057753   151A      2.070714
     152A      2.095658   153A      2.107522   154A      2.115406
     155A      2.143156   156A      2.164739   157A      2.168745
     158A      2.176837   159A      2.198658   160A      2.256482
     161A      2.279180   162A      2.295661   163A      2.297959
     164A      2.304332   165A      2.315773   166A      2.320364
     167A      2.336400   168A      2.450501   169A      2.468695
     170A      2.473693   171A      2.485193   172A      2.506900
     173A      2.536644   174A      2.563852   175A      2.573705
     176A      2.621754   177A      2.749472   178A      2.752414
     179A      2.761711   180A      2.773069   181A      2.785804
     182A      2.793302   183A      2.831079   184A      2.841568
     185A      2.847776   186A      2.851380   187A      2.875410
     188A      2.948526   189A      2.958376   190A      2.981702
     191A      3.003556   192A      3.025253   193A      3.150956
     194A      3.199231   195A      3.298659   196A      3.958825

    Final Occupation by Irrep:
              A
    DOCC [    34 ]

  @RHF Final Energy:  -348.99248333856769

   => Energetics <=

    Nuclear Repulsion Energy =            396.4468498304359514
    One-Electron Energy =               -1255.5646379832674029
    Two-Electron Energy =                 510.1253048142638136
    Total Energy =                       -348.9924833385676948

Computation Completed

Properties will be evaluated at   0.000000,   0.000000,   0.000000 [a0]

Properties computed using the SCF density matrix

  Nuclear Dipole Moment: [e a0]
     X:    -7.1536      Y:     9.0510      Z:     6.3941

  Electronic Dipole Moment: [e a0]
     X:     7.2221      Y:    -8.9646      Z:    -6.3804

  Dipole Moment: [e a0]
     X:     0.0685      Y:     0.0864      Z:     0.0137     Total:     0.1111

  Dipole Moment: [D]
     X:     0.1741      Y:     0.2195      Z:     0.0348     Total:     0.2823

*** tstop() called on ds3 at Mon Apr 27 22:00:21 2020
Module time:
	user time   =      57.01 seconds =       0.95 minutes
	system time =      26.90 seconds =       0.45 minutes
	total time  =         81 seconds =       1.35 minutes
Total time:
	user time   =      57.01 seconds =       0.95 minutes
	system time =      26.90 seconds =       0.45 minutes
	total time  =         81 seconds =       1.35 minutes
                                     G D M A

                                 by Anthony Stone

                           version 2.2.06, 22 June 2011

               Distributed Multipoles from Gaussian wavefunctions

Starting at 22:0:21 on 27 Apr 2020

Using SCF density matrix from file ./SSI/SSI-072VAL-176PHE-1-dimer.test.29411.fchk

                         Distributed Multipole Analysis

Standard DMA

Positions and radii in angstrom
Multipole moments in atomic units, ea_0^k for rank k

C          x = -3.102903  y =  1.589461  z =  1.478685 angstrom
           Maximum rank =  0   Radius =  0.650 angstrom
                   Q00  =  -0.249874

C          x = -3.121903  y =  2.759461  z =  2.466685 angstrom
           Maximum rank =  0   Radius =  0.650 angstrom
                   Q00  =  -0.226430

H          x = -4.071903  y =  1.477461  z =  0.992685 angstrom
           Maximum rank =  0   Radius =  0.325 angstrom
                   Q00  =   0.083072

H          x = -2.363903  y =  1.790461  z =  0.704685 angstrom
           Maximum rank =  0   Radius =  0.325 angstrom
                   Q00  =   0.075935

H          x = -2.844903  y =  0.668461  z =  2.000685 angstrom
           Maximum rank =  0   Radius =  0.325 angstrom
                   Q00  =   0.077985

H          x = -3.418903  y =  3.658461  z =  1.925685 angstrom
           Maximum rank =  0   Radius =  0.325 angstrom
                   Q00  =   0.080003

H          x = -3.841363  y =  2.564219  z =  3.275544 angstrom
           Maximum rank =  0   Radius =  0.325 angstrom
                   Q00  =   0.082035

H          x = -2.115493  y =  2.916779  z =  2.881891 angstrom
           Maximum rank =  0   Radius =  0.325 angstrom
                   Q00  =   0.079284

C          x =  2.924097  y =  0.827461  z = -0.568315 angstrom
           Maximum rank =  0   Radius =  0.650 angstrom
                   Q00  =  -0.202703

C          x = -0.594903  y = -0.588539  z = -0.198315 angstrom
           Maximum rank =  0   Radius =  0.650 angstrom
                   Q00  =  -0.075363

C          x = -0.434903  y = -1.872539  z = -0.718315 angstrom
           Maximum rank =  0   Radius =  0.650 angstrom
                   Q00  =  -0.087243

C          x =  0.497097  y =  0.284461  z = -0.139315 angstrom
           Maximum rank =  0   Radius =  0.650 angstrom
                   Q00  =  -0.054726

C          x =  1.752097  y = -0.118539  z = -0.600315 angstrom
           Maximum rank =  0   Radius =  0.650 angstrom
                   Q00  =  -0.096992

C          x =  0.818097  y = -2.283539  z = -1.178315 angstrom
           Maximum rank =  0   Radius =  0.650 angstrom
                   Q00  =  -0.070188

C          x =  1.904097  y = -1.408539  z = -1.115315 angstrom
           Maximum rank =  0   Radius =  0.650 angstrom
                   Q00  =  -0.019294

H          x = -1.563903  y = -0.280539  z =  0.162685 angstrom
           Maximum rank =  0   Radius =  0.325 angstrom
                   Q00  =   0.066828

H          x = -1.278903  y = -2.548539  z = -0.764315 angstrom
           Maximum rank =  0   Radius =  0.325 angstrom
                   Q00  =   0.060288

H          x =  0.371097  y =  1.268461  z =  0.284685 angstrom
           Maximum rank =  0   Radius =  0.325 angstrom
                   Q00  =   0.055330

H          x =  0.951097  y = -3.276539  z = -1.578315 angstrom
           Maximum rank =  0   Radius =  0.325 angstrom
                   Q00  =   0.065238

H          x =  3.803097  y =  0.248461  z = -0.288315 angstrom
           Maximum rank =  0   Radius =  0.325 angstrom
                   Q00  =   0.096972

H          x =  2.768097  y =  1.573461  z =  0.206685 angstrom
           Maximum rank =  0   Radius =  0.325 angstrom
                   Q00  =   0.098169

H          x =  2.867097  y = -1.743539  z = -1.458315 angstrom
           Maximum rank =  0   Radius =  0.325 angstrom
                   Q00  =   0.055964

H          x =  3.108037  y =  1.337596  z = -1.525357 angstrom
           Maximum rank =  0   Radius =  0.325 angstrom
                   Q00  =   0.105707

Total multipoles referred to origin at
           x =   0.000000,  y =    0.000000,  z =    0.000000 angstrom
                   Q00  =  -0.000000

Finished at 22:0:21 on 27 Apr 2020

  DMA results are available in the Python driver through the
	  variable('DMA DISTRIBUTED MULTIPOLES')
  and
	  variable('DMA TOTAL MULTIPOLES')
  commands.

    Psi4 stopped on: Monday, 27 April 2020 10:00PM
    Psi4 wall time for execution: 0:01:21.06

*** Psi4 exiting successfully. Buy a developer a beer!
