                               Psi4 1.3.2 release

  ==> Input File <==

--------------------------------------------------------------------------
import numpy as np
set {scf_type pk
basis cc-pvdz
d_convergence 10
gdma_switch   0
gdma_limit    0
gdma_origin   [ 0.0,  0.0,  0.0 ]
}
molecule test {
    units Angstrom
    0 1
    --
    0 1
    C                2.840334261029156    -2.811632863602427     1.582249965327145
    C                4.291334261029156    -3.263632863602427     1.532249965327145
    H                2.181334261029156    -3.604632863602427     1.933249965327145
    H                2.751334261029156    -1.977632863602427     2.273249965327145
    H                2.546334261029156    -2.481632863602427     0.589249965327145
    H                4.627334261029157    -3.588632863602427     2.504249965327145
    H                4.885334261029156    -2.385632863602427     1.289249965327145
    H                4.488060261029156    -4.049102863602427     0.787709965327145
    C               -0.522665738970844    -1.726632863602427    -0.002750034672855
    C               -0.692665738970844    -2.453632863602427    -1.332750034672855
    C               -0.721665738970844    -0.237632863602427    -0.121750034672855
    C                0.267334261029156     0.561367136397573    -0.689750034672855
    C               -1.900665738970843     0.358367136397573     0.319249965327145
    C                0.089334261029156     1.935367136397573    -0.808750034672855
    C               -2.086665738970844     1.732367136397573     0.205249965327145
    C               -1.089665738970843     2.519367136397573    -0.360750034672855
    O               -1.270665738970844     3.864367136397573    -0.474750034672855
    H               -1.234665738970843    -2.138632863602427     0.710249965327145
    H                0.472334261029156    -1.898632863602427     0.391249965327145
    H               -0.034665738970844    -1.943632863602427    -2.037750034672855
    H                1.186334261029157     0.111367136397573    -1.042750034672855
    H               -2.680665738970843    -0.251632863602427     0.756249965327145
    H                0.868334261029156     2.539367136397573    -1.245750034672855
    H               -2.997665738970844     2.195367136397573     0.555249965327145
    H               -0.504665738970844     4.324367136397573    -0.830750034672855
    H               -1.735615738970844    -2.381602863602427    -1.674900034672855
    H               -0.300318738970844    -3.478942863602427    -1.263380034672855

}
e, wfn = energy('scf', return_wfn=True)
gdma(wfn)
dmavals = variable('DMA DISTRIBUTED MULTIPOLES')
charges = np.array(dmavals)
print(charges)
np.save('SSI-062ILE-105TYR-1-dimer.npy', np.array(charges))--------------------------------------------------------------------------

*** tstart() called on ds3
*** at Tue Apr 28 09:31:36 2020

   => Loading Basis Set <=

    Name: CC-PVDZ
    Role: ORBITAL
    Keyword: BASIS
    atoms 1-2, 9-16  entry C          line   138 file /theoryfs2/ds/metcalf/miniconda2/envs/tf2gpu/share/psi4/basis/cc-pvdz.gbs
    atoms 3-8, 18-27 entry H          line    22 file /theoryfs2/ds/metcalf/miniconda2/envs/tf2gpu/share/psi4/basis/cc-pvdz.gbs
    atoms 17         entry O          line   198 file /theoryfs2/ds/metcalf/miniconda2/envs/tf2gpu/share/psi4/basis/cc-pvdz.gbs

         ---------------------------------------------------------
                                   SCF
               by Justin Turney, Rob Parrish, Andy Simmonett
                          and Daniel G. A. Smith
                              RHF Reference
                        1 Threads,    500 MiB Core
         ---------------------------------------------------------

  ==> Geometry <==

    Molecular point group: c1
    Full point group: C1

    Geometry (in Angstrom), charge = 0, multiplicity = 1:

       Center              X                  Y                   Z               Mass
    ------------   -----------------  -----------------  -----------------  -----------------
         C            2.840334261029    -2.811632863602     1.582249965327    12.000000000000
         C            4.291334261029    -3.263632863602     1.532249965327    12.000000000000
         H            2.181334261029    -3.604632863602     1.933249965327     1.007825032230
         H            2.751334261029    -1.977632863602     2.273249965327     1.007825032230
         H            2.546334261029    -2.481632863602     0.589249965327     1.007825032230
         H            4.627334261029    -3.588632863602     2.504249965327     1.007825032230
         H            4.885334261029    -2.385632863602     1.289249965327     1.007825032230
         H            4.488060261029    -4.049102863602     0.787709965327     1.007825032230
         C           -0.522665738971    -1.726632863602    -0.002750034673    12.000000000000
         C           -0.692665738971    -2.453632863602    -1.332750034673    12.000000000000
         C           -0.721665738971    -0.237632863602    -0.121750034673    12.000000000000
         C            0.267334261029     0.561367136398    -0.689750034673    12.000000000000
         C           -1.900665738971     0.358367136398     0.319249965327    12.000000000000
         C            0.089334261029     1.935367136398    -0.808750034673    12.000000000000
         C           -2.086665738971     1.732367136398     0.205249965327    12.000000000000
         C           -1.089665738971     2.519367136398    -0.360750034673    12.000000000000
         O           -1.270665738971     3.864367136398    -0.474750034673    15.994914619570
         H           -1.234665738971    -2.138632863602     0.710249965327     1.007825032230
         H            0.472334261029    -1.898632863602     0.391249965327     1.007825032230
         H           -0.034665738971    -1.943632863602    -2.037750034673     1.007825032230
         H            1.186334261029     0.111367136398    -1.042750034673     1.007825032230
         H           -2.680665738971    -0.251632863602     0.756249965327     1.007825032230
         H            0.868334261029     2.539367136398    -1.245750034673     1.007825032230
         H           -2.997665738971     2.195367136398     0.555249965327     1.007825032230
         H           -0.504665738971     4.324367136398    -0.830750034673     1.007825032230
         H           -1.735615738971    -2.381602863602    -1.674900034673     1.007825032230
         H           -0.300318738971    -3.478942863602    -1.263380034673     1.007825032230

  Running in c1 symmetry.

  Rotational constants: A =      0.05208  B =      0.01288  C =      0.01132 [cm^-1]
  Rotational constants: A =   1561.42687  B =    386.05029  C =    339.23419 [MHz]
  Nuclear repulsion =  566.912510071918064

  Charge       = 0
  Multiplicity = 1
  Electrons    = 84
  Nalpha       = 42
  Nbeta        = 42

  ==> Algorithm <==

  SCF Algorithm Type is PK.
  DIIS enabled.
  MOM disabled.
  Fractional occupation disabled.
  Guess Type is SAD.
  Energy threshold   = 1.00e-06
  Density threshold  = 1.00e-10
  Integral threshold = 0.00e+00

  ==> Primary Basis <==

  Basis Set: CC-PVDZ
    Blend: CC-PVDZ
    Number of shells: 114
    Number of basis function: 234
    Number of Cartesian functions: 245
    Spherical Harmonics?: true
    Max angular momentum: 2

  ==> Pre-Iterations <==

   -------------------------------------------------------
    Irrep   Nso     Nmo     Nalpha   Nbeta   Ndocc  Nsocc
   -------------------------------------------------------
     A        234     234       0       0       0       0
   -------------------------------------------------------
    Total     234     234      42      42      42       0
   -------------------------------------------------------

  ==> Integral Setup <==

  Using integral reordering PK algorithm.
  Sizing the integral batches needed.
  Building batch lookup table.
   Calculation information:
      Number of atoms:                  27
      Number of AO shells:             114
      Number of primitives:            322
      Number of atomic orbitals:       245
      Number of basis functions:       234

      Integral cutoff                 1.00e-12
      Number of threads:                 1

	Batch   1 pq = [       0,    9405] index = [             0,44231715] size =     44231715
	Batch   2 pq = [    9405,   13301] index = [      44231715,88464951] size =     44233236
	Batch   3 pq = [   13301,   16290] index = [      88464951,132690195] size =     44225244
	Batch   4 pq = [   16290,   18810] index = [     132690195,176917455] size =     44227260
	Batch   5 pq = [   18810,   21030] index = [     176917455,221140965] size =     44223510
	Batch   6 pq = [   21030,   23037] index = [     221140965,265363203] size =     44222238
	Batch   7 pq = [   23037,   24883] index = [     265363203,309594286] size =     44231083
	Batch   8 pq = [   24883,   26601] index = [     309594286,353819901] size =     44225615
	Batch   9 pq = [   26601,   27495] index = [     353819901,378001260] size =     24181359
  Task number: 35
  Buffer size: 11059200
  Buffer per thread: 2
  We computed 17580941 shell quartets total.
  Whereas there are 21487290 unique shell quartets.

  ==> DiskJK: Disk-Based J/K Matrices <==

    J tasked:                  Yes
    K tasked:                  Yes
    wK tasked:                  No
    Memory [MiB]:              375
    Schwarz Cutoff:          1E-12

    OpenMP threads:              1

  Minimum eigenvalue in the overlap matrix is 3.1833385307E-04.
  Using Symmetric Orthogonalization.

  SCF Guess: Superposition of Atomic Densities via on-the-fly atomic UHF.

  ==> Iterations <==

                        Total Energy        Delta E     RMS |[F,P]|

   @RHF iter SAD:  -461.76003964031065   -4.61760e+02   0.00000e+00
   @RHF iter   1:  -462.60551556906341   -8.45476e-01   2.82144e-03 DIIS
   @RHF iter   2:  -462.84679813843911   -2.41283e-01   1.19840e-03 DIIS
   @RHF iter   3:  -462.88658669959250   -3.97886e-02   2.73936e-04 DIIS
   @RHF iter   4:  -462.88986841451015   -3.28171e-03   1.16106e-04 DIIS
   @RHF iter   5:  -462.89029829953222   -4.29885e-04   1.93752e-05 DIIS
   @RHF iter   6:  -462.89031787302486   -1.95735e-05   5.41873e-06 DIIS
   @RHF iter   7:  -462.89031931437012   -1.44135e-06   1.88843e-06 DIIS
   @RHF iter   8:  -462.89031950120597   -1.86836e-07   6.55368e-07 DIIS
   @RHF iter   9:  -462.89031952524505   -2.40391e-08   1.84902e-07 DIIS
   @RHF iter  10:  -462.89031952720984   -1.96479e-09   5.44593e-08 DIIS
   @RHF iter  11:  -462.89031952740032   -1.90482e-10   1.86901e-08 DIIS
   @RHF iter  12:  -462.89031952742090   -2.05773e-11   7.80131e-09 DIIS
   @RHF iter  13:  -462.89031952742721   -6.30962e-12   3.54241e-09 DIIS
   @RHF iter  14:  -462.89031952742909   -1.87583e-12   1.47914e-09 DIIS
   @RHF iter  15:  -462.89031952743017   -1.08002e-12   5.88938e-10 DIIS
   @RHF iter  16:  -462.89031952743017    0.00000e+00   1.77951e-10 DIIS
   @RHF iter  17:  -462.89031952742891    1.25056e-12   6.63350e-11 DIIS
  Energy and wave function converged.

  ==> Post-Iterations <==

    Orbital Energies [Eh]
    ---------------------

    Doubly Occupied:

       1A    -20.580961     2A    -11.298074     3A    -11.237601
       4A    -11.236267     5A    -11.231796     6A    -11.228298
       7A    -11.227979     8A    -11.222826     9A    -11.220525
      10A    -11.218919    11A    -11.217806    12A     -1.398186
      13A     -1.152166    14A     -1.058537    15A     -1.024209
      16A     -1.017567    17A     -0.975477    18A     -0.858795
      19A     -0.843358    20A     -0.841900    21A     -0.790575
      22A     -0.732590    23A     -0.671048    24A     -0.645133
      25A     -0.614324    26A     -0.604071    27A     -0.600378
      28A     -0.595011    29A     -0.585588    30A     -0.583477
      31A     -0.571619    32A     -0.541703    33A     -0.518738
      34A     -0.506867    35A     -0.497043    36A     -0.490738
      37A     -0.485620    38A     -0.474535    39A     -0.470529
      40A     -0.462712    41A     -0.338080    42A     -0.300079

    Virtual:

      43A      0.131632    44A      0.154122    45A      0.170901
      46A      0.180806    47A      0.194743    48A      0.211019
      49A      0.215236    50A      0.227883    51A      0.244432
      52A      0.251047    53A      0.254587    54A      0.265165
      55A      0.279543    56A      0.283022    57A      0.290521
      58A      0.291439    59A      0.316971    60A      0.332459
      61A      0.358073    62A      0.383551    63A      0.407503
      64A      0.426998    65A      0.434850    66A      0.473384
      67A      0.488426    68A      0.500230    69A      0.519437
      70A      0.590078    71A      0.597141    72A      0.603563
      73A      0.610857    74A      0.634598    75A      0.643496
      76A      0.651494    77A      0.658671    78A      0.676221
      79A      0.687045    80A      0.693999    81A      0.713254
      82A      0.723453    83A      0.725239    84A      0.735732
      85A      0.741081    86A      0.757467    87A      0.767226
      88A      0.788838    89A      0.809492    90A      0.817765
      91A      0.838978    92A      0.860160    93A      0.861385
      94A      0.873739    95A      0.882477    96A      0.885225
      97A      0.890281    98A      0.892672    99A      0.896971
     100A      0.900516   101A      0.903182   102A      0.911026
     103A      0.918316   104A      0.929861   105A      0.937122
     106A      0.943810   107A      0.952884   108A      0.963779
     109A      0.986342   110A      0.998439   111A      1.021702
     112A      1.029373   113A      1.081446   114A      1.093382
     115A      1.121603   116A      1.125735   117A      1.142040
     118A      1.150804   119A      1.168530   120A      1.190631
     121A      1.202042   122A      1.227180   123A      1.244934
     124A      1.264378   125A      1.266201   126A      1.285108
     127A      1.298901   128A      1.305718   129A      1.313219
     130A      1.346440   131A      1.361073   132A      1.393206
     133A      1.421682   134A      1.440540   135A      1.465507
     136A      1.487501   137A      1.493168   138A      1.509770
     139A      1.549473   140A      1.594197   141A      1.608480
     142A      1.626166   143A      1.637712   144A      1.672193
     145A      1.683225   146A      1.696111   147A      1.697271
     148A      1.724381   149A      1.746287   150A      1.768886
     151A      1.798764   152A      1.841397   153A      1.847160
     154A      1.860312   155A      1.868947   156A      1.877962
     157A      1.886188   158A      1.891931   159A      1.896686
     160A      1.900502   161A      1.907477   162A      1.918062
     163A      1.928535   164A      1.945039   165A      1.951949
     166A      1.954393   167A      1.960345   168A      1.967568
     169A      1.970490   170A      1.974773   171A      1.985951
     172A      2.004755   173A      2.013897   174A      2.029307
     175A      2.046942   176A      2.057086   177A      2.065317
     178A      2.071297   179A      2.082758   180A      2.092847
     181A      2.103873   182A      2.122310   183A      2.134507
     184A      2.153623   185A      2.190918   186A      2.197126
     187A      2.236937   188A      2.246711   189A      2.275176
     190A      2.298638   191A      2.300941   192A      2.316555
     193A      2.349911   194A      2.353395   195A      2.368802
     196A      2.446335   197A      2.455935   198A      2.463421
     199A      2.467743   200A      2.478029   201A      2.485995
     202A      2.513080   203A      2.532916   204A      2.550130
     205A      2.561502   206A      2.585307   207A      2.598873
     208A      2.638204   209A      2.653033   210A      2.758086
     211A      2.770213   212A      2.776579   213A      2.794636
     214A      2.802010   215A      2.813071   216A      2.853405
     217A      2.857704   218A      2.875596   219A      2.881817
     220A      2.927159   221A      2.952367   222A      2.966509
     223A      2.969129   224A      3.007409   225A      3.036071
     226A      3.098139   227A      3.183398   228A      3.245761
     229A      3.290783   230A      3.354570   231A      3.573050
     232A      3.671917   233A      3.989483   234A      4.197234

    Final Occupation by Irrep:
              A
    DOCC [    42 ]

  @RHF Final Energy:  -462.89031952742891

   => Energetics <=

    Nuclear Repulsion Energy =            566.9125100719180637
    One-Electron Energy =               -1751.2622461755518088
    Two-Electron Energy =                 721.4594165762049442
    Total Energy =                       -462.8903195274289146

Computation Completed

Properties will be evaluated at   0.000000,   0.000000,   0.000000 [a0]

Properties computed using the SCF density matrix

  Nuclear Dipole Moment: [e a0]
     X:    13.6045      Y:   -19.6775      Z:     3.4614

  Electronic Dipole Moment: [e a0]
     X:   -13.0394      Y:    19.5774      Z:    -3.6073

  Dipole Moment: [e a0]
     X:     0.5651      Y:    -0.1001      Z:    -0.1459     Total:     0.5922

  Dipole Moment: [D]
     X:     1.4364      Y:    -0.2545      Z:    -0.3708     Total:     1.5051

*** tstop() called on ds3 at Tue Apr 28 09:35:32 2020
Module time:
	user time   =     131.04 seconds =       2.18 minutes
	system time =      57.31 seconds =       0.96 minutes
	total time  =        236 seconds =       3.93 minutes
Total time:
	user time   =     131.04 seconds =       2.18 minutes
	system time =      57.31 seconds =       0.96 minutes
	total time  =        236 seconds =       3.93 minutes
                                     G D M A

                                 by Anthony Stone

                           version 2.2.06, 22 June 2011

               Distributed Multipoles from Gaussian wavefunctions

Starting at 9:35:32 on 28 Apr 2020

Using SCF density matrix from file ./SSI/SSI-062ILE-105TYR-1-dimer.test.10716.fchk

                         Distributed Multipole Analysis

Standard DMA

Positions and radii in angstrom
Multipole moments in atomic units, ea_0^k for rank k

C          x =  2.840334  y = -2.811633  z =  1.582250 angstrom
           Maximum rank =  0   Radius =  0.650 angstrom
                   Q00  =  -0.232677

C          x =  4.291334  y = -3.263633  z =  1.532250 angstrom
           Maximum rank =  0   Radius =  0.650 angstrom
                   Q00  =  -0.239429

H          x =  2.181334  y = -3.604633  z =  1.933250 angstrom
           Maximum rank =  0   Radius =  0.325 angstrom
                   Q00  =   0.079967

H          x =  2.751334  y = -1.977633  z =  2.273250 angstrom
           Maximum rank =  0   Radius =  0.325 angstrom
                   Q00  =   0.082352

H          x =  2.546334  y = -2.481633  z =  0.589250 angstrom
           Maximum rank =  0   Radius =  0.325 angstrom
                   Q00  =   0.072808

H          x =  4.627334  y = -3.588633  z =  2.504250 angstrom
           Maximum rank =  0   Radius =  0.325 angstrom
                   Q00  =   0.082847

H          x =  4.885334  y = -2.385633  z =  1.289250 angstrom
           Maximum rank =  0   Radius =  0.325 angstrom
                   Q00  =   0.075259

H          x =  4.488060  y = -4.049103  z =  0.787710 angstrom
           Maximum rank =  0   Radius =  0.325 angstrom
                   Q00  =   0.081117

C          x = -0.522666  y = -1.726633  z = -0.002750 angstrom
           Maximum rank =  0   Radius =  0.650 angstrom
                   Q00  =  -0.033044

C          x = -0.692666  y = -2.453633  z = -1.332750 angstrom
           Maximum rank =  0   Radius =  0.650 angstrom
                   Q00  =  -0.204605

C          x = -0.721666  y = -0.237633  z = -0.121750 angstrom
           Maximum rank =  0   Radius =  0.650 angstrom
                   Q00  =  -0.140710

C          x =  0.267334  y =  0.561367  z = -0.689750 angstrom
           Maximum rank =  0   Radius =  0.650 angstrom
                   Q00  =   0.008808

C          x = -1.900666  y =  0.358367  z =  0.319250 angstrom
           Maximum rank =  0   Radius =  0.650 angstrom
                   Q00  =  -0.009049

C          x =  0.089334  y =  1.935367  z = -0.808750 angstrom
           Maximum rank =  0   Radius =  0.650 angstrom
                   Q00  =  -0.177779

C          x = -2.086666  y =  1.732367  z =  0.205250 angstrom
           Maximum rank =  0   Radius =  0.650 angstrom
                   Q00  =  -0.114438

C          x = -1.089666  y =  2.519367  z = -0.360750 angstrom
           Maximum rank =  0   Radius =  0.650 angstrom
                   Q00  =   0.310644

O          x = -1.270666  y =  3.864367  z = -0.474750 angstrom
           Maximum rank =  0   Radius =  0.650 angstrom
                   Q00  =  -0.678006

H          x = -1.234666  y = -2.138633  z =  0.710250 angstrom
           Maximum rank =  0   Radius =  0.325 angstrom
                   Q00  =   0.060286

H          x =  0.472334  y = -1.898633  z =  0.391250 angstrom
           Maximum rank =  0   Radius =  0.325 angstrom
                   Q00  =   0.073326

H          x = -0.034666  y = -1.943633  z = -2.037750 angstrom
           Maximum rank =  0   Radius =  0.325 angstrom
                   Q00  =   0.072472

H          x =  1.186334  y =  0.111367  z = -1.042750 angstrom
           Maximum rank =  0   Radius =  0.325 angstrom
                   Q00  =   0.066848

H          x = -2.680666  y = -0.251633  z =  0.756250 angstrom
           Maximum rank =  0   Radius =  0.325 angstrom
                   Q00  =   0.062496

H          x =  0.868334  y =  2.539367  z = -1.245750 angstrom
           Maximum rank =  0   Radius =  0.325 angstrom
                   Q00  =   0.071282

H          x = -2.997666  y =  2.195367  z =  0.555250 angstrom
           Maximum rank =  0   Radius =  0.325 angstrom
                   Q00  =   0.080319

H          x = -0.504666  y =  4.324367  z = -0.830750 angstrom
           Maximum rank =  0   Radius =  0.325 angstrom
                   Q00  =   0.406804

H          x = -1.735616  y = -2.381603  z = -1.674900 angstrom
           Maximum rank =  0   Radius =  0.325 angstrom
                   Q00  =   0.074280

H          x = -0.300319  y = -3.478943  z = -1.263380 angstrom
           Maximum rank =  0   Radius =  0.325 angstrom
                   Q00  =   0.067824

Total multipoles referred to origin at
           x =   0.000000,  y =    0.000000,  z =    0.000000 angstrom
                   Q00  =  -0.000000

Finished at 9:35:32 on 28 Apr 2020

  DMA results are available in the Python driver through the
	  variable('DMA DISTRIBUTED MULTIPOLES')
  and
	  variable('DMA TOTAL MULTIPOLES')
  commands.

    Psi4 stopped on: Tuesday, 28 April 2020 09:35AM
    Psi4 wall time for execution: 0:03:55.29

*** Psi4 exiting successfully. Buy a developer a beer!
