                               Psi4 1.3.2 release

  ==> Input File <==

--------------------------------------------------------------------------
import numpy as np
set {scf_type pk
basis cc-pvdz
d_convergence 10
gdma_switch   0
gdma_limit    0
gdma_origin   [ 0.0,  0.0,  0.0 ]
}
molecule test {
    units Angstrom
    -1 1
    --
    -1 1
    C                1.481071437408791     2.741456666428057     0.134135097791041
    C                0.314071437408791     1.912456666428057     0.600135097791041
    O                0.426071437408791     1.243456666428057     1.649135097791041
    O               -0.739928562591209     1.987456666428057    -0.069864902208959
    H                1.353071437408791     3.757456666428058     0.512135097791041
    H                1.485071437408791     2.808456666428057    -0.954864902208959
    H                2.455831437408791     2.374929666428057     0.488395097791041
    C                0.981071437408791    -2.394543333571943    -0.201864902208959
    C               -0.441928562591209    -2.007543333571943    -0.591864902208959
    O               -1.291928562591209    -2.858543333571943    -0.837864902208959
    N               -0.714928562591209    -0.717543333571943    -0.680864902208959
    H               -1.632928562591209    -0.428543333571943    -0.969864902208959
    H               -0.041928562591209    -0.012543333571943    -0.436864902208959
    H                1.005071437408791    -2.495543333571943     0.881135097791041
    H                1.675071437408791    -1.607543333571943    -0.461864902208959
    H                1.325251437408791    -3.335110333571943    -0.656694902208959

}
e, wfn = energy('scf', return_wfn=True)
gdma(wfn)
dmavals = variable('DMA DISTRIBUTED MULTIPOLES')
charges = np.array(dmavals)
print(charges)
np.save('SSI-030GLU-033GLN-1-dimer.npy', np.array(charges))--------------------------------------------------------------------------

*** tstart() called on ds3
*** at Sun Apr 26 21:35:47 2020

   => Loading Basis Set <=

    Name: CC-PVDZ
    Role: ORBITAL
    Keyword: BASIS
    atoms 1-2, 8-9   entry C          line   138 file /theoryfs2/ds/metcalf/miniconda2/envs/tf2gpu/share/psi4/basis/cc-pvdz.gbs
    atoms 3-4, 10    entry O          line   198 file /theoryfs2/ds/metcalf/miniconda2/envs/tf2gpu/share/psi4/basis/cc-pvdz.gbs
    atoms 5-7, 12-16 entry H          line    22 file /theoryfs2/ds/metcalf/miniconda2/envs/tf2gpu/share/psi4/basis/cc-pvdz.gbs
    atoms 11         entry N          line   168 file /theoryfs2/ds/metcalf/miniconda2/envs/tf2gpu/share/psi4/basis/cc-pvdz.gbs

         ---------------------------------------------------------
                                   SCF
               by Justin Turney, Rob Parrish, Andy Simmonett
                          and Daniel G. A. Smith
                              RHF Reference
                        1 Threads,    500 MiB Core
         ---------------------------------------------------------

  ==> Geometry <==

    Molecular point group: c1
    Full point group: C1

    Geometry (in Angstrom), charge = -1, multiplicity = 1:

       Center              X                  Y                   Z               Mass
    ------------   -----------------  -----------------  -----------------  -----------------
         C            1.481071437409     2.741456666428     0.134135097791    12.000000000000
         C            0.314071437409     1.912456666428     0.600135097791    12.000000000000
         O            0.426071437409     1.243456666428     1.649135097791    15.994914619570
         O           -0.739928562591     1.987456666428    -0.069864902209    15.994914619570
         H            1.353071437409     3.757456666428     0.512135097791     1.007825032230
         H            1.485071437409     2.808456666428    -0.954864902209     1.007825032230
         H            2.455831437409     2.374929666428     0.488395097791     1.007825032230
         C            0.981071437409    -2.394543333572    -0.201864902209    12.000000000000
         C           -0.441928562591    -2.007543333572    -0.591864902209    12.000000000000
         O           -1.291928562591    -2.858543333572    -0.837864902209    15.994914619570
         N           -0.714928562591    -0.717543333572    -0.680864902209    14.003074004430
         H           -1.632928562591    -0.428543333572    -0.969864902209     1.007825032230
         H           -0.041928562591    -0.012543333572    -0.436864902209     1.007825032230
         H            1.005071437409    -2.495543333572     0.881135097791     1.007825032230
         H            1.675071437409    -1.607543333572    -0.461864902209     1.007825032230
         H            1.325251437409    -3.335110333572    -0.656694902209     1.007825032230

  Running in c1 symmetry.

  Rotational constants: A =      0.13036  B =      0.02744  C =      0.02529 [cm^-1]
  Rotational constants: A =   3908.01546  B =    822.60353  C =    758.25062 [MHz]
  Nuclear repulsion =  359.690114293271222

  Charge       = -1
  Multiplicity = 1
  Electrons    = 64
  Nalpha       = 32
  Nbeta        = 32

  ==> Algorithm <==

  SCF Algorithm Type is PK.
  DIIS enabled.
  MOM disabled.
  Fractional occupation disabled.
  Guess Type is SAD.
  Energy threshold   = 1.00e-06
  Density threshold  = 1.00e-10
  Integral threshold = 0.00e+00

  ==> Primary Basis <==

  Basis Set: CC-PVDZ
    Blend: CC-PVDZ
    Number of shells: 72
    Number of basis function: 152
    Number of Cartesian functions: 160
    Spherical Harmonics?: true
    Max angular momentum: 2

  ==> Pre-Iterations <==

   -------------------------------------------------------
    Irrep   Nso     Nmo     Nalpha   Nbeta   Ndocc  Nsocc
   -------------------------------------------------------
     A        152     152       0       0       0       0
   -------------------------------------------------------
    Total     152     152      32      32      32       0
   -------------------------------------------------------

  ==> Integral Setup <==

  Using integral reordering PK algorithm.
  Sizing the integral batches needed.
  Building batch lookup table.
   Calculation information:
      Number of atoms:                  16
      Number of AO shells:              72
      Number of primitives:            216
      Number of atomic orbitals:       160
      Number of basis functions:       152

      Integral cutoff                 1.00e-12
      Number of threads:                 1

	Batch   1 pq = [       0,    9405] index = [             0,44231715] size =     44231715
	Batch   2 pq = [    9405,   11628] index = [      44231715,67611006] size =     23379291
  Task number: 7
  Buffer size: 11059200
  Buffer per thread: 2
  We computed 2934347 shell quartets total.
  Whereas there are 3454506 unique shell quartets.

  ==> DiskJK: Disk-Based J/K Matrices <==

    J tasked:                  Yes
    K tasked:                  Yes
    wK tasked:                  No
    Memory [MiB]:              375
    Schwarz Cutoff:          1E-12

    OpenMP threads:              1

  Minimum eigenvalue in the overlap matrix is 4.5815621563E-03.
  Using Symmetric Orthogonalization.

  SCF Guess: Superposition of Atomic Densities via on-the-fly atomic UHF.

  ==> Iterations <==

                        Total Energy        Delta E     RMS |[F,P]|

   @RHF iter SAD:  -433.53817868280424   -4.33538e+02   0.00000e+00
   @RHF iter   1:  -434.93622273641006   -1.39804e+00   5.45043e-03 DIIS
   @RHF iter   2:  -435.16862897057484   -2.32406e-01   3.18701e-03 DIIS
   @RHF iter   3:  -435.25018735635683   -8.15584e-02   4.80354e-04 DIIS
   @RHF iter   4:  -435.25343843638149   -3.25108e-03   1.83681e-04 DIIS
   @RHF iter   5:  -435.25397942801584   -5.40992e-04   3.66696e-05 DIIS
   @RHF iter   6:  -435.25400452849181   -2.51005e-05   1.84908e-05 DIIS
   @RHF iter   7:  -435.25401013841525   -5.60992e-06   4.84074e-06 DIIS
   @RHF iter   8:  -435.25401097482006   -8.36405e-07   2.11724e-06 DIIS
   @RHF iter   9:  -435.25401110871326   -1.33893e-07   8.33904e-07 DIIS
   @RHF iter  10:  -435.25401112945946   -2.07462e-08   1.86038e-07 DIIS
   @RHF iter  11:  -435.25401113053073   -1.07127e-09   3.89351e-08 DIIS
   @RHF iter  12:  -435.25401113056756   -3.68345e-11   1.47308e-08 DIIS
   @RHF iter  13:  -435.25401113057245   -4.88853e-12   5.12495e-09 DIIS
   @RHF iter  14:  -435.25401113057234    1.13687e-13   2.43649e-09 DIIS
   @RHF iter  15:  -435.25401113057177    5.68434e-13   6.38546e-10 DIIS
   @RHF iter  16:  -435.25401113057234   -5.68434e-13   2.80570e-10 DIIS
   @RHF iter  17:  -435.25401113057308   -7.38964e-13   1.23240e-10 DIIS
   @RHF iter  18:  -435.25401113057183    1.25056e-12   3.87449e-11 DIIS
  Energy and wave function converged.

  ==> Post-Iterations <==

    Orbital Energies [Eh]
    ---------------------

    Doubly Occupied:

       1A    -20.364204     2A    -20.284038     3A    -20.282770
       4A    -15.424607     5A    -11.208649     6A    -11.137176
       7A    -11.117081     8A    -11.066819     9A     -1.230727
      10A     -1.176457    11A     -1.064518    12A     -1.059425
      13A     -0.869390    14A     -0.817548    15A     -0.651795
      16A     -0.572249    17A     -0.525609    18A     -0.519274
      19A     -0.479819    20A     -0.438563    21A     -0.433835
      22A     -0.430237    23A     -0.427355    24A     -0.423073
      25A     -0.385544    26A     -0.363879    27A     -0.324952
      28A     -0.274970    29A     -0.254103    30A     -0.205625
      31A     -0.197350    32A     -0.187142

    Virtual:

      33A      0.303823    34A      0.331485    35A      0.335869
      36A      0.370305    37A      0.374755    38A      0.381742
      39A      0.397785    40A      0.407040    41A      0.452892
      42A      0.476083    43A      0.530245    44A      0.560077
      45A      0.589443    46A      0.677599    47A      0.687951
      48A      0.726150    49A      0.771809    50A      0.788358
      51A      0.809058    52A      0.835674    53A      0.855932
      54A      0.871236    55A      0.885406    56A      0.921475
      57A      0.942915    58A      0.985199    59A      0.989071
      60A      0.993774    61A      1.007852    62A      1.013294
      63A      1.017976    64A      1.035492    65A      1.058689
      66A      1.066325    67A      1.088684    68A      1.123732
      69A      1.163901    70A      1.201074    71A      1.214999
      72A      1.234053    73A      1.251981    74A      1.301970
      75A      1.322763    76A      1.360734    77A      1.392583
      78A      1.482099    79A      1.493658    80A      1.497880
      81A      1.522339    82A      1.540633    83A      1.545496
      84A      1.570447    85A      1.572841    86A      1.590023
      87A      1.633353    88A      1.649634    89A      1.682916
      90A      1.706996    91A      1.720072    92A      1.781439
      93A      1.794115    94A      1.827307    95A      1.829974
      96A      1.862244    97A      1.990117    98A      2.001539
      99A      2.025199   100A      2.033842   101A      2.054075
     102A      2.062723   103A      2.070588   104A      2.096964
     105A      2.113882   106A      2.125871   107A      2.135339
     108A      2.189963   109A      2.206804   110A      2.231854
     111A      2.249894   112A      2.333069   113A      2.347620
     114A      2.390371   115A      2.417222   116A      2.421195
     117A      2.472481   118A      2.554701   119A      2.579543
     120A      2.600436   121A      2.618590   122A      2.666485
     123A      2.701332   124A      2.725622   125A      2.735626
     126A      2.780219   127A      2.830337   128A      2.860305
     129A      2.887823   130A      2.899731   131A      2.940952
     132A      2.957599   133A      2.974970   134A      3.007076
     135A      3.165915   136A      3.221977   137A      3.233964
     138A      3.251511   139A      3.271471   140A      3.285864
     141A      3.351633   142A      3.478618   143A      3.624115
     144A      3.648427   145A      3.697578   146A      3.768429
     147A      3.835826   148A      4.008121   149A      4.045356
     150A      4.058597   151A      4.070119   152A      4.176259

    Final Occupation by Irrep:
              A
    DOCC [    32 ]

  @RHF Final Energy:  -435.25401113057183

   => Energetics <=

    Nuclear Repulsion Energy =            359.6901142932712219
    One-Electron Energy =               -1321.4906870481725036
    Two-Electron Energy =                 526.5465616243294562
    Total Energy =                       -435.2540111305718256

Computation Completed

Properties will be evaluated at   0.000000,   0.000000,   0.000000 [a0]

Properties computed using the SCF density matrix

  Nuclear Dipole Moment: [e a0]
     X:     7.1421      Y:     0.9991      Z:    -1.4930

  Electronic Dipole Moment: [e a0]
     X:    -5.7031      Y:    -1.7857      Z:     0.4931

  Dipole Moment: [e a0]
     X:     1.4390      Y:    -0.7867      Z:    -0.9999     Total:     1.9208

  Dipole Moment: [D]
     X:     3.6576      Y:    -1.9995      Z:    -2.5414     Total:     4.8821

*** tstop() called on ds3 at Sun Apr 26 21:36:29 2020
Module time:
	user time   =      25.35 seconds =       0.42 minutes
	system time =      10.93 seconds =       0.18 minutes
	total time  =         42 seconds =       0.70 minutes
Total time:
	user time   =      25.35 seconds =       0.42 minutes
	system time =      10.93 seconds =       0.18 minutes
	total time  =         42 seconds =       0.70 minutes
                                     G D M A

                                 by Anthony Stone

                           version 2.2.06, 22 June 2011

               Distributed Multipoles from Gaussian wavefunctions

Starting at 21:36:29 on 26 Apr 2020

Using SCF density matrix from file ./SSI/SSI-030GLU-033GLN-1-dimer.test.32427.fchk

                         Distributed Multipole Analysis

Standard DMA

Positions and radii in angstrom
Multipole moments in atomic units, ea_0^k for rank k

C          x =  1.481071  y =  2.741457  z =  0.134135 angstrom
           Maximum rank =  0   Radius =  0.650 angstrom
                   Q00  =  -0.280285

C          x =  0.314071  y =  1.912457  z =  0.600135 angstrom
           Maximum rank =  0   Radius =  0.650 angstrom
                   Q00  =   0.940807

O          x =  0.426071  y =  1.243457  z =  1.649135 angstrom
           Maximum rank =  0   Radius =  0.650 angstrom
                   Q00  =  -0.909536

O          x = -0.739929  y =  1.987457  z = -0.069865 angstrom
           Maximum rank =  0   Radius =  0.650 angstrom
                   Q00  =  -0.929041

H          x =  1.353071  y =  3.757457  z =  0.512135 angstrom
           Maximum rank =  0   Radius =  0.325 angstrom
                   Q00  =   0.090192

H          x =  1.485071  y =  2.808457  z = -0.954865 angstrom
           Maximum rank =  0   Radius =  0.325 angstrom
                   Q00  =   0.056144

H          x =  2.455831  y =  2.374930  z =  0.488395 angstrom
           Maximum rank =  0   Radius =  0.325 angstrom
                   Q00  =   0.051064

C          x =  0.981071  y = -2.394543  z = -0.201865 angstrom
           Maximum rank =  0   Radius =  0.650 angstrom
                   Q00  =  -0.273391

C          x = -0.441929  y = -2.007543  z = -0.591865 angstrom
           Maximum rank =  0   Radius =  0.650 angstrom
                   Q00  =   0.845866

O          x = -1.291929  y = -2.858543  z = -0.837865 angstrom
           Maximum rank =  0   Radius =  0.650 angstrom
                   Q00  =  -0.848656

N          x = -0.714929  y = -0.717543  z = -0.680865 angstrom
           Maximum rank =  0   Radius =  0.650 angstrom
                   Q00  =  -0.532986

H          x = -1.632929  y = -0.428543  z = -0.969865 angstrom
           Maximum rank =  0   Radius =  0.325 angstrom
                   Q00  =   0.219147

H          x = -0.041929  y = -0.012543  z = -0.436865 angstrom
           Maximum rank =  0   Radius =  0.325 angstrom
                   Q00  =   0.256507

H          x =  1.005071  y = -2.495543  z =  0.881135 angstrom
           Maximum rank =  0   Radius =  0.325 angstrom
                   Q00  =   0.129621

H          x =  1.675071  y = -1.607543  z = -0.461865 angstrom
           Maximum rank =  0   Radius =  0.325 angstrom
                   Q00  =   0.092577

H          x =  1.325251  y = -3.335110  z = -0.656695 angstrom
           Maximum rank =  0   Radius =  0.325 angstrom
                   Q00  =   0.091970

Total multipoles referred to origin at
           x =   0.000000,  y =    0.000000,  z =    0.000000 angstrom
                   Q00  =  -1.000000

Finished at 21:36:29 on 26 Apr 2020

  DMA results are available in the Python driver through the
	  variable('DMA DISTRIBUTED MULTIPOLES')
  and
	  variable('DMA TOTAL MULTIPOLES')
  commands.

    Psi4 stopped on: Sunday, 26 April 2020 09:36PM
    Psi4 wall time for execution: 0:00:41.53

*** Psi4 exiting successfully. Buy a developer a beer!
