                               Psi4 1.3.2 release

  ==> Input File <==

--------------------------------------------------------------------------
import numpy as np
set {scf_type pk
basis cc-pvdz
d_convergence 10
gdma_switch   0
gdma_limit    0
gdma_origin   [ 0.0,  0.0,  0.0 ]
}
molecule test {
    units Angstrom
    0 1
    --
    0 1
    C                3.508470212236163    -0.728081812202417    -0.686022635851175
    C                3.913470212236163    -0.238081812202417    -2.080022635851175
    H                4.224470212236163    -0.414081812202417     0.070977364148825
    H                2.548470212236163    -0.296081812202417    -0.413022635851175
    H                3.427470212236163    -1.815081812202417    -0.683022635851175
    H                3.901470212236163     0.851918187797583    -2.089022635851175
    H                3.152470212236163    -0.589081812202417    -2.775022635851174
    H                4.907450212236164    -0.593121812202417    -2.389782635851175
    C               -0.013529787763837    -1.023081812202417    -1.732022635851175
    C               -0.022529787763837    -2.543081812202417    -1.525022635851174
    C               -0.539529787763837    -0.247081812202417    -0.556022635851175
    C               -0.168529787763837    -0.583081812202417     0.749977364148825
    C               -1.400529787763837     0.821918187797583    -0.729022635851175
    C               -0.649529787763837     0.130918187797583     1.825977364148825
    C               -1.902529787763837     1.535918187797583     0.361977364148825
    C               -1.524529787763837     1.188918187797583     1.654977364148825
    O               -1.984529787763837     1.843918187797583     2.764977364148826
    H                0.996470212236163    -0.689081812202417    -1.945022635851175
    H               -0.615529787763837    -0.788081812202417    -2.613022635851175
    H                0.522470212236163    -2.782081812202417    -0.613022635851175
    H                0.549470212236163    -1.369081812202417     0.937977364148825
    H               -1.635529787763837     1.136918187797583    -1.729022635851175
    H               -0.340529787763837    -0.155081812202417     2.819977364148825
    H               -2.567529787763837     2.374918187797583     0.212977364148825
    H               -1.304529787763837     1.885918187797583     3.445977364148825
    H                0.487420212236163    -3.049991812202417    -2.357482635851175
    H               -1.054609787763837    -2.912301812202417    -1.432902635851175

}
e, wfn = energy('scf', return_wfn=True)
gdma(wfn)
dmavals = variable('DMA DISTRIBUTED MULTIPOLES')
charges = np.array(dmavals)
print(charges)
np.save('SSI-159ILE-172TYR-1-dimer.npy', np.array(charges))--------------------------------------------------------------------------

*** tstart() called on ds3
*** at Mon Apr 27 22:50:20 2020

   => Loading Basis Set <=

    Name: CC-PVDZ
    Role: ORBITAL
    Keyword: BASIS
    atoms 1-2, 9-16  entry C          line   138 file /theoryfs2/ds/metcalf/miniconda2/envs/tf2gpu/share/psi4/basis/cc-pvdz.gbs
    atoms 3-8, 18-27 entry H          line    22 file /theoryfs2/ds/metcalf/miniconda2/envs/tf2gpu/share/psi4/basis/cc-pvdz.gbs
    atoms 17         entry O          line   198 file /theoryfs2/ds/metcalf/miniconda2/envs/tf2gpu/share/psi4/basis/cc-pvdz.gbs

         ---------------------------------------------------------
                                   SCF
               by Justin Turney, Rob Parrish, Andy Simmonett
                          and Daniel G. A. Smith
                              RHF Reference
                        1 Threads,    500 MiB Core
         ---------------------------------------------------------

  ==> Geometry <==

    Molecular point group: c1
    Full point group: C1

    Geometry (in Angstrom), charge = 0, multiplicity = 1:

       Center              X                  Y                   Z               Mass
    ------------   -----------------  -----------------  -----------------  -----------------
         C            3.508470212236    -0.728081812202    -0.686022635851    12.000000000000
         C            3.913470212236    -0.238081812202    -2.080022635851    12.000000000000
         H            4.224470212236    -0.414081812202     0.070977364149     1.007825032230
         H            2.548470212236    -0.296081812202    -0.413022635851     1.007825032230
         H            3.427470212236    -1.815081812202    -0.683022635851     1.007825032230
         H            3.901470212236     0.851918187798    -2.089022635851     1.007825032230
         H            3.152470212236    -0.589081812202    -2.775022635851     1.007825032230
         H            4.907450212236    -0.593121812202    -2.389782635851     1.007825032230
         C           -0.013529787764    -1.023081812202    -1.732022635851    12.000000000000
         C           -0.022529787764    -2.543081812202    -1.525022635851    12.000000000000
         C           -0.539529787764    -0.247081812202    -0.556022635851    12.000000000000
         C           -0.168529787764    -0.583081812202     0.749977364149    12.000000000000
         C           -1.400529787764     0.821918187798    -0.729022635851    12.000000000000
         C           -0.649529787764     0.130918187798     1.825977364149    12.000000000000
         C           -1.902529787764     1.535918187798     0.361977364149    12.000000000000
         C           -1.524529787764     1.188918187798     1.654977364149    12.000000000000
         O           -1.984529787764     1.843918187798     2.764977364149    15.994914619570
         H            0.996470212236    -0.689081812202    -1.945022635851     1.007825032230
         H           -0.615529787764    -0.788081812202    -2.613022635851     1.007825032230
         H            0.522470212236    -2.782081812202    -0.613022635851     1.007825032230
         H            0.549470212236    -1.369081812202     0.937977364149     1.007825032230
         H           -1.635529787764     1.136918187798    -1.729022635851     1.007825032230
         H           -0.340529787764    -0.155081812202     2.819977364149     1.007825032230
         H           -2.567529787764     2.374918187798     0.212977364149     1.007825032230
         H           -1.304529787764     1.885918187798     3.445977364149     1.007825032230
         H            0.487420212236    -3.049991812202    -2.357482635851     1.007825032230
         H           -1.054609787764    -2.912301812202    -1.432902635851     1.007825032230

  Running in c1 symmetry.

  Rotational constants: A =      0.05060  B =      0.01648  C =      0.01475 [cm^-1]
  Rotational constants: A =   1517.08322  B =    494.12998  C =    442.23015 [MHz]
  Nuclear repulsion =  586.181139142403708

  Charge       = 0
  Multiplicity = 1
  Electrons    = 84
  Nalpha       = 42
  Nbeta        = 42

  ==> Algorithm <==

  SCF Algorithm Type is PK.
  DIIS enabled.
  MOM disabled.
  Fractional occupation disabled.
  Guess Type is SAD.
  Energy threshold   = 1.00e-06
  Density threshold  = 1.00e-10
  Integral threshold = 0.00e+00

  ==> Primary Basis <==

  Basis Set: CC-PVDZ
    Blend: CC-PVDZ
    Number of shells: 114
    Number of basis function: 234
    Number of Cartesian functions: 245
    Spherical Harmonics?: true
    Max angular momentum: 2

  ==> Pre-Iterations <==

   -------------------------------------------------------
    Irrep   Nso     Nmo     Nalpha   Nbeta   Ndocc  Nsocc
   -------------------------------------------------------
     A        234     234       0       0       0       0
   -------------------------------------------------------
    Total     234     234      42      42      42       0
   -------------------------------------------------------

  ==> Integral Setup <==

  Using integral reordering PK algorithm.
  Sizing the integral batches needed.
  Building batch lookup table.
   Calculation information:
      Number of atoms:                  27
      Number of AO shells:             114
      Number of primitives:            322
      Number of atomic orbitals:       245
      Number of basis functions:       234

      Integral cutoff                 1.00e-12
      Number of threads:                 1

	Batch   1 pq = [       0,    9405] index = [             0,44231715] size =     44231715
	Batch   2 pq = [    9405,   13301] index = [      44231715,88464951] size =     44233236
	Batch   3 pq = [   13301,   16290] index = [      88464951,132690195] size =     44225244
	Batch   4 pq = [   16290,   18810] index = [     132690195,176917455] size =     44227260
	Batch   5 pq = [   18810,   21030] index = [     176917455,221140965] size =     44223510
	Batch   6 pq = [   21030,   23037] index = [     221140965,265363203] size =     44222238
	Batch   7 pq = [   23037,   24883] index = [     265363203,309594286] size =     44231083
	Batch   8 pq = [   24883,   26601] index = [     309594286,353819901] size =     44225615
	Batch   9 pq = [   26601,   27495] index = [     353819901,378001260] size =     24181359
  Task number: 35
  Buffer size: 11059200
  Buffer per thread: 2
  We computed 20613724 shell quartets total.
  Whereas there are 21487290 unique shell quartets.

  ==> DiskJK: Disk-Based J/K Matrices <==

    J tasked:                  Yes
    K tasked:                  Yes
    wK tasked:                  No
    Memory [MiB]:              375
    Schwarz Cutoff:          1E-12

    OpenMP threads:              1

  Minimum eigenvalue in the overlap matrix is 3.1154487847E-04.
  Using Symmetric Orthogonalization.

  SCF Guess: Superposition of Atomic Densities via on-the-fly atomic UHF.

  ==> Iterations <==

                        Total Energy        Delta E     RMS |[F,P]|

   @RHF iter SAD:  -461.78979436920417   -4.61790e+02   0.00000e+00
   @RHF iter   1:  -462.60394639462686   -8.14152e-01   2.80866e-03 DIIS
   @RHF iter   2:  -462.84444197140112   -2.40496e-01   1.19113e-03 DIIS
   @RHF iter   3:  -462.88356006298284   -3.91181e-02   2.73302e-04 DIIS
   @RHF iter   4:  -462.88683298125733   -3.27292e-03   1.16170e-04 DIIS
   @RHF iter   5:  -462.88725959506735   -4.26614e-04   1.93351e-05 DIIS
   @RHF iter   6:  -462.88727874985096   -1.91548e-05   5.26211e-06 DIIS
   @RHF iter   7:  -462.88728014340654   -1.39356e-06   1.87464e-06 DIIS
   @RHF iter   8:  -462.88728034346838   -2.00062e-07   6.59737e-07 DIIS
   @RHF iter   9:  -462.88728037753174   -3.40634e-08   2.17192e-07 DIIS
   @RHF iter  10:  -462.88728038282693   -5.29519e-09   9.82283e-08 DIIS
   @RHF iter  11:  -462.88728038430042   -1.47350e-09   4.24122e-08 DIIS
   @RHF iter  12:  -462.88728038461903   -3.18607e-10   1.93196e-08 DIIS
   @RHF iter  13:  -462.88728038467667   -5.76392e-11   6.81225e-09 DIIS
   @RHF iter  14:  -462.88728038468116   -4.49063e-12   1.84037e-09 DIIS
   @RHF iter  15:  -462.88728038468003    1.13687e-12   6.06117e-10 DIIS
   @RHF iter  16:  -462.88728038468253   -2.50111e-12   2.62941e-10 DIIS
   @RHF iter  17:  -462.88728038467889    3.63798e-12   1.25342e-10 DIIS
   @RHF iter  18:  -462.88728038467912   -2.27374e-13   6.04148e-11 DIIS
  Energy and wave function converged.

  ==> Post-Iterations <==

    Orbital Energies [Eh]
    ---------------------

    Doubly Occupied:

       1A    -20.579456     2A    -11.295018     3A    -11.235605
       4A    -11.235417     5A    -11.231968     6A    -11.231695
       7A    -11.229237     8A    -11.228152     9A    -11.223892
      10A    -11.220423    11A    -11.217696    12A     -1.394773
      13A     -1.155083    14A     -1.060059    15A     -1.020357
      16A     -1.018240    17A     -0.977056    18A     -0.864419
      19A     -0.841881    20A     -0.839156    21A     -0.791297
      22A     -0.731895    23A     -0.673196    24A     -0.643210
      25A     -0.618347    26A     -0.613026    27A     -0.600719
      28A     -0.594813    29A     -0.592469    30A     -0.582236
      31A     -0.559648    32A     -0.534138    33A     -0.519750
      34A     -0.502034    35A     -0.497476    36A     -0.488369
      37A     -0.487733    38A     -0.479696    39A     -0.474739
      40A     -0.462686    41A     -0.338243    42A     -0.306379

    Virtual:

      43A      0.130668    44A      0.149803    45A      0.174800
      46A      0.184520    47A      0.199293    48A      0.205639
      49A      0.214942    50A      0.238122    51A      0.244126
      52A      0.255009    53A      0.260283    54A      0.264932
      55A      0.281701    56A      0.284522    57A      0.294896
      58A      0.299986    59A      0.331051    60A      0.358136
      61A      0.362800    62A      0.390302    63A      0.400844
      64A      0.410025    65A      0.427733    66A      0.479512
      67A      0.494879    68A      0.504430    69A      0.527173
      70A      0.571578    71A      0.600162    72A      0.611842
      73A      0.616037    74A      0.624077    75A      0.638284
      76A      0.657673    77A      0.673135    78A      0.688120
      79A      0.694110    80A      0.705674    81A      0.709464
      82A      0.722226    83A      0.732769    84A      0.741579
      85A      0.748043    86A      0.768219    87A      0.783985
      88A      0.802220    89A      0.818924    90A      0.834334
      91A      0.841722    92A      0.845717    93A      0.863615
      94A      0.866689    95A      0.874600    96A      0.880229
      97A      0.891607    98A      0.892703    99A      0.898474
     100A      0.901744   101A      0.907778   102A      0.917061
     103A      0.931343   104A      0.944859   105A      0.946975
     106A      0.956161   107A      0.960258   108A      0.964867
     109A      0.987493   110A      1.013128   111A      1.013944
     112A      1.026914   113A      1.084805   114A      1.120380
     115A      1.126565   116A      1.130073   117A      1.134700
     118A      1.150772   119A      1.165988   120A      1.169992
     121A      1.204404   122A      1.241999   123A      1.249136
     124A      1.259266   125A      1.272537   126A      1.293763
     127A      1.305794   128A      1.315124   129A      1.323627
     130A      1.338300   131A      1.366329   132A      1.382067
     133A      1.420814   134A      1.457116   135A      1.463299
     136A      1.478597   137A      1.489312   138A      1.519100
     139A      1.543661   140A      1.568029   141A      1.590405
     142A      1.624116   143A      1.637392   144A      1.679650
     145A      1.692408   146A      1.696771   147A      1.717534
     148A      1.738756   149A      1.754123   150A      1.782422
     151A      1.795597   152A      1.810701   153A      1.833831
     154A      1.859723   155A      1.871446   156A      1.874677
     157A      1.888718   158A      1.893821   159A      1.909459
     160A      1.914681   161A      1.922461   162A      1.925144
     163A      1.942557   164A      1.944492   165A      1.948808
     166A      1.953511   167A      1.960730   168A      1.969757
     169A      1.975675   170A      1.982128   171A      1.995284
     172A      2.012853   173A      2.016678   174A      2.024484
     175A      2.051490   176A      2.065315   177A      2.071383
     178A      2.075737   179A      2.080605   180A      2.101619
     181A      2.114193   182A      2.116547   183A      2.130574
     184A      2.162213   185A      2.204693   186A      2.211283
     187A      2.248933   188A      2.263197   189A      2.278150
     190A      2.295299   191A      2.311356   192A      2.312350
     193A      2.329414   194A      2.335306   195A      2.359084
     196A      2.415924   197A      2.434520   198A      2.456993
     199A      2.468172   200A      2.470957   201A      2.483670
     202A      2.517766   203A      2.553063   204A      2.561593
     205A      2.567167   206A      2.598423   207A      2.614999
     208A      2.629839   209A      2.636944   210A      2.744177
     211A      2.766796   212A      2.777469   213A      2.783214
     214A      2.806261   215A      2.825608   216A      2.850328
     217A      2.862998   218A      2.870186   219A      2.892757
     220A      2.940897   221A      2.952231   222A      2.965153
     223A      2.974540   224A      3.010245   225A      3.057317
     226A      3.093216   227A      3.164797   228A      3.291053
     229A      3.301129   230A      3.375604   231A      3.572825
     232A      3.659144   233A      3.996914   234A      4.131719

    Final Occupation by Irrep:
              A
    DOCC [    42 ]

  @RHF Final Energy:  -462.88728038467912

   => Energetics <=

    Nuclear Repulsion Energy =            586.1811391424037083
    One-Electron Energy =               -1789.7534759962929911
    Two-Electron Energy =                 740.6850564692101671
    Total Energy =                       -462.8872803846791157

Computation Completed

Properties will be evaluated at   0.000000,   0.000000,   0.000000 [a0]

Properties computed using the SCF density matrix

  Nuclear Dipole Moment: [e a0]
     X:    16.1144      Y:    -8.6191      Z:   -10.8168

  Electronic Dipole Moment: [e a0]
     X:   -15.5017      Y:     8.4772      Z:    10.8823

  Dipole Moment: [e a0]
     X:     0.6127      Y:    -0.1419      Z:     0.0655     Total:     0.6323

  Dipole Moment: [D]
     X:     1.5572      Y:    -0.3607      Z:     0.1664     Total:     1.6071

*** tstop() called on ds3 at Mon Apr 27 22:54:13 2020
Module time:
	user time   =     150.44 seconds =       2.51 minutes
	system time =      64.78 seconds =       1.08 minutes
	total time  =        233 seconds =       3.88 minutes
Total time:
	user time   =     150.44 seconds =       2.51 minutes
	system time =      64.78 seconds =       1.08 minutes
	total time  =        233 seconds =       3.88 minutes
                                     G D M A

                                 by Anthony Stone

                           version 2.2.06, 22 June 2011

               Distributed Multipoles from Gaussian wavefunctions

Starting at 22:54:13 on 27 Apr 2020

Using SCF density matrix from file ./SSI/SSI-159ILE-172TYR-1-dimer.test.29175.fchk

                         Distributed Multipole Analysis

Standard DMA

Positions and radii in angstrom
Multipole moments in atomic units, ea_0^k for rank k

C          x =  3.508470  y = -0.728082  z = -0.686023 angstrom
           Maximum rank =  0   Radius =  0.650 angstrom
                   Q00  =  -0.244380

C          x =  3.913470  y = -0.238082  z = -2.080023 angstrom
           Maximum rank =  0   Radius =  0.650 angstrom
                   Q00  =  -0.236649

H          x =  4.224470  y = -0.414082  z =  0.070977 angstrom
           Maximum rank =  0   Radius =  0.325 angstrom
                   Q00  =   0.081811

H          x =  2.548470  y = -0.296082  z = -0.413023 angstrom
           Maximum rank =  0   Radius =  0.325 angstrom
                   Q00  =   0.085268

H          x =  3.427470  y = -1.815082  z = -0.683023 angstrom
           Maximum rank =  0   Radius =  0.325 angstrom
                   Q00  =   0.075754

H          x =  3.901470  y =  0.851918  z = -2.089023 angstrom
           Maximum rank =  0   Radius =  0.325 angstrom
                   Q00  =   0.080755

H          x =  3.152470  y = -0.589082  z = -2.775023 angstrom
           Maximum rank =  0   Radius =  0.325 angstrom
                   Q00  =   0.075043

H          x =  4.907450  y = -0.593122  z = -2.389783 angstrom
           Maximum rank =  0   Radius =  0.325 angstrom
                   Q00  =   0.083473

C          x = -0.013530  y = -1.023082  z = -1.732023 angstrom
           Maximum rank =  0   Radius =  0.650 angstrom
                   Q00  =  -0.037478

C          x = -0.022530  y = -2.543082  z = -1.525023 angstrom
           Maximum rank =  0   Radius =  0.650 angstrom
                   Q00  =  -0.253538

C          x = -0.539530  y = -0.247082  z = -0.556023 angstrom
           Maximum rank =  0   Radius =  0.650 angstrom
                   Q00  =  -0.128027

C          x = -0.168530  y = -0.583082  z =  0.749977 angstrom
           Maximum rank =  0   Radius =  0.650 angstrom
                   Q00  =  -0.102073

C          x = -1.400530  y =  0.821918  z = -0.729023 angstrom
           Maximum rank =  0   Radius =  0.650 angstrom
                   Q00  =  -0.021338

C          x = -0.649530  y =  0.130918  z =  1.825977 angstrom
           Maximum rank =  0   Radius =  0.650 angstrom
                   Q00  =  -0.010189

C          x = -1.902530  y =  1.535918  z =  0.361977 angstrom
           Maximum rank =  0   Radius =  0.650 angstrom
                   Q00  =  -0.116629

C          x = -1.524530  y =  1.188918  z =  1.654977 angstrom
           Maximum rank =  0   Radius =  0.650 angstrom
                   Q00  =   0.229601

O          x = -1.984530  y =  1.843918  z =  2.764977 angstrom
           Maximum rank =  0   Radius =  0.650 angstrom
                   Q00  =  -0.639149

H          x =  0.996470  y = -0.689082  z = -1.945023 angstrom
           Maximum rank =  0   Radius =  0.325 angstrom
                   Q00  =   0.076211

H          x = -0.615530  y = -0.788082  z = -2.613023 angstrom
           Maximum rank =  0   Radius =  0.325 angstrom
                   Q00  =   0.062435

H          x =  0.522470  y = -2.782082  z = -0.613023 angstrom
           Maximum rank =  0   Radius =  0.325 angstrom
                   Q00  =   0.078949

H          x =  0.549470  y = -1.369082  z =  0.937977 angstrom
           Maximum rank =  0   Radius =  0.325 angstrom
                   Q00  =   0.070006

H          x = -1.635530  y =  1.136918  z = -1.729023 angstrom
           Maximum rank =  0   Radius =  0.325 angstrom
                   Q00  =   0.063683

H          x = -0.340530  y = -0.155082  z =  2.819977 angstrom
           Maximum rank =  0   Radius =  0.325 angstrom
                   Q00  =   0.067561

H          x = -2.567530  y =  2.374918  z =  0.212977 angstrom
           Maximum rank =  0   Radius =  0.325 angstrom
                   Q00  =   0.079997

H          x = -1.304530  y =  1.885918  z =  3.445977 angstrom
           Maximum rank =  0   Radius =  0.325 angstrom
                   Q00  =   0.406660

H          x =  0.487420  y = -3.049992  z = -2.357483 angstrom
           Maximum rank =  0   Radius =  0.325 angstrom
                   Q00  =   0.086436

H          x = -1.054610  y = -2.912302  z = -1.432903 angstrom
           Maximum rank =  0   Radius =  0.325 angstrom
                   Q00  =   0.085810

Total multipoles referred to origin at
           x =   0.000000,  y =    0.000000,  z =    0.000000 angstrom
                   Q00  =  -0.000000

Finished at 22:54:13 on 27 Apr 2020

  DMA results are available in the Python driver through the
	  variable('DMA DISTRIBUTED MULTIPOLES')
  and
	  variable('DMA TOTAL MULTIPOLES')
  commands.

    Psi4 stopped on: Monday, 27 April 2020 10:54PM
    Psi4 wall time for execution: 0:03:52.96

*** Psi4 exiting successfully. Buy a developer a beer!
