                               Psi4 1.3.2 release

  ==> Input File <==

--------------------------------------------------------------------------
import numpy as np
set {scf_type pk
basis cc-pvdz
d_convergence 10
gdma_switch   0
gdma_limit    0
gdma_origin   [ 0.0,  0.0,  0.0 ]
}
molecule test {
    units Angstrom
    0 1
    --
    0 1
    C                1.845579096719504    -0.357267307661944     0.282366476833016
    C                3.018579096719504     0.465732692338056     0.826366476833016
    C                2.274579096719504    -1.475267307661944    -0.625633523166984
    C                2.153579096719504    -1.608267307661944    -1.972633523166984
    C                3.190579096719504    -3.392267307661944    -1.202633523166984
    N                2.925579096719504    -2.604267307661944    -0.164633523166984
    N                2.733579096719504    -2.813267307661944    -2.308633523166984
    H                1.310579096719504    -0.806267307661944     1.118366476833016
    H                1.161579096719504     0.292732692338056    -0.262633523166984
    H                3.695579096719504    -0.208267307661944     1.355366476833016
    H                1.697579096719503    -0.892267307661944    -2.646633523166984
    H                3.696579096719504    -4.352267307661944    -1.157633523166984
    H                2.808579096719504    -3.204267307661945    -3.242633523166984
    H                2.655829096719504     1.235632692338056     1.523266476833016
    H                3.577189096719504     0.902122692338056    -0.014773523166984
    C               -4.555420903280496     2.226732692338056    -1.089633523166984
    C               -1.258420903280496     1.144732692338056     1.469366476833016
    C               -2.519420903280496     0.593732692338056     1.691366476833016
    C               -1.052420903280496     2.011732692338056     0.398366476833016
    C               -3.575420903280496     0.919732692338056     0.839366476833016
    C               -2.114420903280496     2.330732692338056    -0.448633523166984
    C               -3.386420903280496     1.792732692338056    -0.234633523166984
    O               -0.231420903280496     0.856732692338056     2.316366476833016
    H               -2.682420903280496    -0.070267307661944     2.528366476833016
    H               -0.572420903280496     0.431732692338056     3.121366476833016
    H               -0.078420903280496     2.449732692338056     0.239366476833016
    H               -4.558420903280496     0.507732692338056     1.032366476833016
    H               -1.952420903280496     3.014732692338056    -1.271633523166984
    H               -5.406420903280496     1.564732692338056    -0.918633523166984
    H               -4.271420903280497     2.146732692338055    -2.140633523166984
    H               -4.847520903280496     3.263872692338055    -0.868213523166984

}
e, wfn = energy('scf', return_wfn=True)
gdma(wfn)
dmavals = variable('DMA DISTRIBUTED MULTIPOLES')
charges = np.array(dmavals)
print(charges)
np.save('SSI-014HIE-043TYR-1-dimer.npy', np.array(charges))--------------------------------------------------------------------------

*** tstart() called on ds3
*** at Mon Apr 27 09:17:12 2020

   => Loading Basis Set <=

    Name: CC-PVDZ
    Role: ORBITAL
    Keyword: BASIS
    atoms 1-5, 16-22  entry C          line   138 file /theoryfs2/ds/metcalf/miniconda2/envs/tf2gpu/share/psi4/basis/cc-pvdz.gbs
    atoms 6-7         entry N          line   168 file /theoryfs2/ds/metcalf/miniconda2/envs/tf2gpu/share/psi4/basis/cc-pvdz.gbs
    atoms 8-15, 24-31 entry H          line    22 file /theoryfs2/ds/metcalf/miniconda2/envs/tf2gpu/share/psi4/basis/cc-pvdz.gbs
    atoms 23          entry O          line   198 file /theoryfs2/ds/metcalf/miniconda2/envs/tf2gpu/share/psi4/basis/cc-pvdz.gbs

         ---------------------------------------------------------
                                   SCF
               by Justin Turney, Rob Parrish, Andy Simmonett
                          and Daniel G. A. Smith
                              RHF Reference
                        1 Threads,    500 MiB Core
         ---------------------------------------------------------

  ==> Geometry <==

    Molecular point group: c1
    Full point group: C1

    Geometry (in Angstrom), charge = 0, multiplicity = 1:

       Center              X                  Y                   Z               Mass
    ------------   -----------------  -----------------  -----------------  -----------------
         C            1.845579096720    -0.357267307662     0.282366476833    12.000000000000
         C            3.018579096720     0.465732692338     0.826366476833    12.000000000000
         C            2.274579096720    -1.475267307662    -0.625633523167    12.000000000000
         C            2.153579096720    -1.608267307662    -1.972633523167    12.000000000000
         C            3.190579096720    -3.392267307662    -1.202633523167    12.000000000000
         N            2.925579096720    -2.604267307662    -0.164633523167    14.003074004430
         N            2.733579096720    -2.813267307662    -2.308633523167    14.003074004430
         H            1.310579096720    -0.806267307662     1.118366476833     1.007825032230
         H            1.161579096720     0.292732692338    -0.262633523167     1.007825032230
         H            3.695579096720    -0.208267307662     1.355366476833     1.007825032230
         H            1.697579096720    -0.892267307662    -2.646633523167     1.007825032230
         H            3.696579096720    -4.352267307662    -1.157633523167     1.007825032230
         H            2.808579096720    -3.204267307662    -3.242633523167     1.007825032230
         H            2.655829096720     1.235632692338     1.523266476833     1.007825032230
         H            3.577189096720     0.902122692338    -0.014773523167     1.007825032230
         C           -4.555420903280     2.226732692338    -1.089633523167    12.000000000000
         C           -1.258420903280     1.144732692338     1.469366476833    12.000000000000
         C           -2.519420903280     0.593732692338     1.691366476833    12.000000000000
         C           -1.052420903280     2.011732692338     0.398366476833    12.000000000000
         C           -3.575420903280     0.919732692338     0.839366476833    12.000000000000
         C           -2.114420903280     2.330732692338    -0.448633523167    12.000000000000
         C           -3.386420903280     1.792732692338    -0.234633523167    12.000000000000
         O           -0.231420903280     0.856732692338     2.316366476833    15.994914619570
         H           -2.682420903280    -0.070267307662     2.528366476833     1.007825032230
         H           -0.572420903280     0.431732692338     3.121366476833     1.007825032230
         H           -0.078420903280     2.449732692338     0.239366476833     1.007825032230
         H           -4.558420903280     0.507732692338     1.032366476833     1.007825032230
         H           -1.952420903280     3.014732692338    -1.271633523167     1.007825032230
         H           -5.406420903280     1.564732692338    -0.918633523167     1.007825032230
         H           -4.271420903280     2.146732692338    -2.140633523167     1.007825032230
         H           -4.847520903280     3.263872692338    -0.868213523167     1.007825032230

  Running in c1 symmetry.

  Rotational constants: A =      0.03347  B =      0.00758  C =      0.00690 [cm^-1]
  Rotational constants: A =   1003.49299  B =    227.17387  C =    206.94597 [MHz]
  Nuclear repulsion =  899.918885937170330

  Charge       = 0
  Multiplicity = 1
  Electrons    = 110
  Nalpha       = 55
  Nbeta        = 55

  ==> Algorithm <==

  SCF Algorithm Type is PK.
  DIIS enabled.
  MOM disabled.
  Fractional occupation disabled.
  Guess Type is SAD.
  Energy threshold   = 1.00e-06
  Density threshold  = 1.00e-10
  Integral threshold = 0.00e+00

  ==> Primary Basis <==

  Basis Set: CC-PVDZ
    Blend: CC-PVDZ
    Number of shells: 138
    Number of basis function: 290
    Number of Cartesian functions: 305
    Spherical Harmonics?: true
    Max angular momentum: 2

  ==> Pre-Iterations <==

   -------------------------------------------------------
    Irrep   Nso     Nmo     Nalpha   Nbeta   Ndocc  Nsocc
   -------------------------------------------------------
     A        290     290       0       0       0       0
   -------------------------------------------------------
    Total     290     290      55      55      55       0
   -------------------------------------------------------

  ==> Integral Setup <==

  Using integral reordering PK algorithm.
  Sizing the integral batches needed.
  Building batch lookup table.
   Calculation information:
      Number of atoms:                  31
      Number of AO shells:             138
      Number of primitives:            410
      Number of atomic orbitals:       305
      Number of basis functions:       290

      Integral cutoff                 1.00e-12
      Number of threads:                 1

	Batch   1 pq = [       0,    9405] index = [             0,44231715] size =     44231715
	Batch   2 pq = [    9405,   13301] index = [      44231715,88464951] size =     44233236
	Batch   3 pq = [   13301,   16290] index = [      88464951,132690195] size =     44225244
	Batch   4 pq = [   16290,   18810] index = [     132690195,176917455] size =     44227260
	Batch   5 pq = [   18810,   21030] index = [     176917455,221140965] size =     44223510
	Batch   6 pq = [   21030,   23037] index = [     221140965,265363203] size =     44222238
	Batch   7 pq = [   23037,   24883] index = [     265363203,309594286] size =     44231083
	Batch   8 pq = [   24883,   26601] index = [     309594286,353819901] size =     44225615
	Batch   9 pq = [   26601,   28214] index = [     353819901,398029005] size =     44209104
	Batch  10 pq = [   28214,   29740] index = [     398029005,442248670] size =     44219665
	Batch  11 pq = [   29740,   31191] index = [     442248670,486454836] size =     44206166
	Batch  12 pq = [   31191,   32578] index = [     486454836,530679331] size =     44224495
	Batch  13 pq = [   32578,   33908] index = [     530679331,574893186] size =     44213855
	Batch  14 pq = [   33908,   35188] index = [     574893186,619115266] size =     44222080
	Batch  15 pq = [   35188,   36423] index = [     619115266,663335676] size =     44220410
	Batch  16 pq = [   36423,   37617] index = [     663335676,707538153] size =     44202477
	Batch  17 pq = [   37617,   38775] index = [     707538153,751769700] size =     44231547
	Batch  18 pq = [   38775,   39899] index = [     751769700,795985050] size =     44215350
	Batch  19 pq = [   39899,   40992] index = [     795985050,840192528] size =     44207478
	Batch  20 pq = [   40992,   42057] index = [     840192528,884416653] size =     44224125
	Batch  21 pq = [   42057,   42195] index = [     884416653,890230110] size =      5813457
  Task number: 81
  Buffer size: 11059200
  Buffer per thread: 2
  We computed 38029766 shell quartets total.
  Whereas there are 45998436 unique shell quartets.

  ==> DiskJK: Disk-Based J/K Matrices <==

    J tasked:                  Yes
    K tasked:                  Yes
    wK tasked:                  No
    Memory [MiB]:              375
    Schwarz Cutoff:          1E-12

    OpenMP threads:              1

  Minimum eigenvalue in the overlap matrix is 3.2119947346E-04.
  Using Symmetric Orthogonalization.

  SCF Guess: Superposition of Atomic Densities via on-the-fly atomic UHF.

  ==> Iterations <==

                        Total Energy        Delta E     RMS |[F,P]|

   @RHF iter SAD:  -646.48394105346188   -6.46484e+02   0.00000e+00
   @RHF iter   1:  -647.18951744102844   -7.05576e-01   2.50355e-03 DIIS
   @RHF iter   2:  -647.46801211833724   -2.78495e-01   1.21330e-03 DIIS
   @RHF iter   3:  -647.52592657256082   -5.79145e-02   3.23938e-04 DIIS
   @RHF iter   4:  -647.53132192724377   -5.39535e-03   1.35773e-04 DIIS
   @RHF iter   5:  -647.53218515436492   -8.63227e-04   1.96694e-05 DIIS
   @RHF iter   6:  -647.53221652398236   -3.13696e-05   8.87514e-06 DIIS
   @RHF iter   7:  -647.53222174246025   -5.21848e-06   2.86171e-06 DIIS
   @RHF iter   8:  -647.53222265216436   -9.09704e-07   1.15850e-06 DIIS
   @RHF iter   9:  -647.53222281388628   -1.61722e-07   4.87320e-07 DIIS
   @RHF iter  10:  -647.53222284582296   -3.19367e-08   1.75378e-07 DIIS
   @RHF iter  11:  -647.53222285133518   -5.51222e-09   6.85629e-08 DIIS
   @RHF iter  12:  -647.53222285223126   -8.96080e-10   3.08037e-08 DIIS
   @RHF iter  13:  -647.53222285237587   -1.44610e-10   1.01190e-08 DIIS
   @RHF iter  14:  -647.53222285238871   -1.28466e-11   4.43223e-09 DIIS
   @RHF iter  15:  -647.53222285239087   -2.16005e-12   1.76938e-09 DIIS
   @RHF iter  16:  -647.53222285239690   -6.02540e-12   8.68830e-10 DIIS
   @RHF iter  17:  -647.53222285239394    2.95586e-12   3.30728e-10 DIIS
   @RHF iter  18:  -647.53222285239542   -1.47793e-12   1.16594e-10 DIIS
   @RHF iter  19:  -647.53222285239826   -2.84217e-12   5.83536e-11 DIIS
  Energy and wave function converged.

  ==> Post-Iterations <==

    Orbital Energies [Eh]
    ---------------------

    Doubly Occupied:

       1A    -20.585441     2A    -15.614032     3A    -15.521157
       4A    -11.299197     5A    -11.286801     6A    -11.242266
       7A    -11.239825     8A    -11.239466     9A    -11.234686
      10A    -11.233905    11A    -11.231963    12A    -11.229573
      13A    -11.229415    14A    -11.207796    15A    -11.201397
      16A     -1.400345    17A     -1.332730    18A     -1.149312
      19A     -1.145416    20A     -1.037352    21A     -1.036159
      22A     -1.017504    23A     -0.973763    24A     -0.925346
      25A     -0.845339    26A     -0.843638    27A     -0.809747
      28A     -0.801259    29A     -0.750905    30A     -0.729850
      31A     -0.724193    32A     -0.668578    33A     -0.642042
      34A     -0.611943    35A     -0.608094    36A     -0.597094
      37A     -0.589678    38A     -0.587841    39A     -0.587204
      40A     -0.574596    41A     -0.567878    42A     -0.564258
      43A     -0.549300    44A     -0.527200    45A     -0.497430
      46A     -0.496539    47A     -0.485467    48A     -0.476952
      49A     -0.470255    50A     -0.462898    51A     -0.401919
      52A     -0.368849    53A     -0.338505    54A     -0.302046
      55A     -0.301096

    Virtual:

      56A      0.127822    57A      0.154630    58A      0.176529
      59A      0.179724    60A      0.186132    61A      0.195676
      62A      0.201089    63A      0.217500    64A      0.227991
      65A      0.230525    66A      0.233172    67A      0.252923
      68A      0.258757    69A      0.266960    70A      0.274111
      71A      0.280953    72A      0.291768    73A      0.293927
      74A      0.315490    75A      0.332693    76A      0.368271
      77A      0.374027    78A      0.382933    79A      0.398697
      80A      0.422083    81A      0.432181    82A      0.451352
      83A      0.467346    84A      0.477700    85A      0.488290
      86A      0.493134    87A      0.507850    88A      0.516823
      89A      0.606124    90A      0.612988    91A      0.613280
      92A      0.629803    93A      0.632855    94A      0.646945
      95A      0.656850    96A      0.667189    97A      0.674592
      98A      0.683841    99A      0.695227   100A      0.703266
     101A      0.709931   102A      0.712383   103A      0.727496
     104A      0.731474   105A      0.737179   106A      0.747050
     107A      0.766591   108A      0.769843   109A      0.773783
     110A      0.787994   111A      0.794290   112A      0.814287
     113A      0.827091   114A      0.833578   115A      0.843123
     116A      0.854049   117A      0.862437   118A      0.875256
     119A      0.880577   120A      0.885271   121A      0.892447
     122A      0.900957   123A      0.905899   124A      0.911702
     125A      0.918266   126A      0.924746   127A      0.932442
     128A      0.938458   129A      0.944196   130A      0.945768
     131A      0.955282   132A      0.964752   133A      0.971991
     134A      0.979185   135A      1.001088   136A      1.006336
     137A      1.017900   138A      1.040013   139A      1.054916
     140A      1.066693   141A      1.080145   142A      1.108209
     143A      1.112540   144A      1.128819   145A      1.141947
     146A      1.144855   147A      1.154088   148A      1.170496
     149A      1.178875   150A      1.196503   151A      1.220390
     152A      1.229655   153A      1.243811   154A      1.248722
     155A      1.269152   156A      1.272917   157A      1.290479
     158A      1.307363   159A      1.310214   160A      1.317596
     161A      1.326526   162A      1.336562   163A      1.341472
     164A      1.352334   165A      1.364830   166A      1.393676
     167A      1.412276   168A      1.431071   169A      1.445470
     170A      1.459797   171A      1.490044   172A      1.494960
     173A      1.519162   174A      1.545613   175A      1.559818
     176A      1.570591   177A      1.581762   178A      1.612538
     179A      1.621238   180A      1.672838   181A      1.681976
     182A      1.688035   183A      1.697289   184A      1.707533
     185A      1.730680   186A      1.736337   187A      1.756604
     188A      1.771698   189A      1.781692   190A      1.784311
     191A      1.805870   192A      1.812987   193A      1.839126
     194A      1.844514   195A      1.867364   196A      1.881343
     197A      1.892417   198A      1.899790   199A      1.909490
     200A      1.914676   201A      1.915828   202A      1.923271
     203A      1.935250   204A      1.949396   205A      1.952699
     206A      1.955159   207A      1.962852   208A      1.967092
     209A      1.973803   210A      1.987335   211A      2.000547
     212A      2.002690   213A      2.019609   214A      2.026286
     215A      2.041528   216A      2.044346   217A      2.048761
     218A      2.059206   219A      2.073872   220A      2.079772
     221A      2.091207   222A      2.104371   223A      2.129835
     224A      2.134581   225A      2.147415   226A      2.171630
     227A      2.187947   228A      2.200397   229A      2.210480
     230A      2.226434   231A      2.227742   232A      2.256963
     233A      2.258396   234A      2.268382   235A      2.291013
     236A      2.301519   237A      2.328246   238A      2.331077
     239A      2.345729   240A      2.392600   241A      2.405905
     242A      2.410306   243A      2.442896   244A      2.451864
     245A      2.454742   246A      2.470181   247A      2.497101
     248A      2.502354   249A      2.520796   250A      2.524505
     251A      2.581237   252A      2.588505   253A      2.610281
     254A      2.613886   255A      2.630259   256A      2.635532
     257A      2.694776   258A      2.743733   259A      2.744627
     260A      2.768066   261A      2.770699   262A      2.786443
     263A      2.794049   264A      2.804954   265A      2.813135
     266A      2.832769   267A      2.844235   268A      2.870441
     269A      2.894586   270A      2.908416   271A      2.920724
     272A      2.941165   273A      2.948803   274A      2.964814
     275A      3.003293   276A      3.030088   277A      3.082669
     278A      3.092113   279A      3.109438   280A      3.178592
     281A      3.262792   282A      3.270244   283A      3.277457
     284A      3.342707   285A      3.479622   286A      3.597751
     287A      3.682457   288A      3.795855   289A      3.956216
     290A      4.177043

    Final Occupation by Irrep:
              A
    DOCC [    55 ]

  @RHF Final Energy:  -647.53222285239826

   => Energetics <=

    Nuclear Repulsion Energy =            899.9188859371703302
    One-Electron Energy =               -2666.1073394581553657
    Two-Electron Energy =                1118.6562306685868862
    Total Energy =                       -647.5322228523982631

Computation Completed

Properties will be evaluated at   0.000000,   0.000000,   0.000000 [a0]

Properties computed using the SCF density matrix

  Nuclear Dipole Moment: [e a0]
     X:    -3.5480      Y:     5.9036      Z:    -1.4863

  Electronic Dipole Moment: [e a0]
     X:     2.8157      Y:    -6.1592      Z:     0.5062

  Dipole Moment: [e a0]
     X:    -0.7323      Y:    -0.2556      Z:    -0.9801     Total:     1.2499

  Dipole Moment: [D]
     X:    -1.8614      Y:    -0.6497      Z:    -2.4911     Total:     3.1769

*** tstop() called on ds3 at Mon Apr 27 09:50:38 2020
Module time:
	user time   =     333.90 seconds =       5.57 minutes
	system time =     139.12 seconds =       2.32 minutes
	total time  =       2006 seconds =      33.43 minutes
Total time:
	user time   =     333.90 seconds =       5.57 minutes
	system time =     139.12 seconds =       2.32 minutes
	total time  =       2006 seconds =      33.43 minutes
                                     G D M A

                                 by Anthony Stone

                           version 2.2.06, 22 June 2011

               Distributed Multipoles from Gaussian wavefunctions

Starting at 9:50:38 on 27 Apr 2020

Using SCF density matrix from file ./SSI/SSI-014HIE-043TYR-1-dimer.test.1601.fchk

                         Distributed Multipole Analysis

Standard DMA

Positions and radii in angstrom
Multipole moments in atomic units, ea_0^k for rank k

C          x =  1.845579  y = -0.357267  z =  0.282366 angstrom
           Maximum rank =  0   Radius =  0.650 angstrom
                   Q00  =  -0.010249

C          x =  3.018579  y =  0.465733  z =  0.826366 angstrom
           Maximum rank =  0   Radius =  0.650 angstrom
                   Q00  =  -0.241217

C          x =  2.274579  y = -1.475267  z = -0.625634 angstrom
           Maximum rank =  0   Radius =  0.650 angstrom
                   Q00  =   0.225056

C          x =  2.153579  y = -1.608267  z = -1.972634 angstrom
           Maximum rank =  0   Radius =  0.650 angstrom
                   Q00  =  -0.006587

C          x =  3.190579  y = -3.392267  z = -1.202634 angstrom
           Maximum rank =  0   Radius =  0.650 angstrom
                   Q00  =   0.459627

N          x =  2.925579  y = -2.604267  z = -0.164634 angstrom
           Maximum rank =  0   Radius =  0.650 angstrom
                   Q00  =  -0.785129

N          x =  2.733579  y = -2.813267  z = -2.308634 angstrom
           Maximum rank =  0   Radius =  0.650 angstrom
                   Q00  =  -0.477641

H          x =  1.310579  y = -0.806267  z =  1.118366 angstrom
           Maximum rank =  0   Radius =  0.325 angstrom
                   Q00  =   0.083724

H          x =  1.161579  y =  0.292733  z = -0.262634 angstrom
           Maximum rank =  0   Radius =  0.325 angstrom
                   Q00  =   0.055937

H          x =  3.695579  y = -0.208267  z =  1.355366 angstrom
           Maximum rank =  0   Radius =  0.325 angstrom
                   Q00  =   0.092861

H          x =  1.697579  y = -0.892267  z = -2.646634 angstrom
           Maximum rank =  0   Radius =  0.325 angstrom
                   Q00  =   0.102575

H          x =  3.696579  y = -4.352267  z = -1.157634 angstrom
           Maximum rank =  0   Radius =  0.325 angstrom
                   Q00  =   0.121526

H          x =  2.808579  y = -3.204267  z = -3.242634 angstrom
           Maximum rank =  0   Radius =  0.325 angstrom
                   Q00  =   0.216771

H          x =  2.655829  y =  1.235633  z =  1.523266 angstrom
           Maximum rank =  0   Radius =  0.325 angstrom
                   Q00  =   0.085459

H          x =  3.577189  y =  0.902123  z = -0.014774 angstrom
           Maximum rank =  0   Radius =  0.325 angstrom
                   Q00  =   0.067079

C          x = -4.555421  y =  2.226733  z = -1.089634 angstrom
           Maximum rank =  0   Radius =  0.650 angstrom
                   Q00  =  -0.192538

C          x = -1.258421  y =  1.144733  z =  1.469366 angstrom
           Maximum rank =  0   Radius =  0.650 angstrom
                   Q00  =   0.293770

C          x = -2.519421  y =  0.593733  z =  1.691366 angstrom
           Maximum rank =  0   Radius =  0.650 angstrom
                   Q00  =  -0.168656

C          x = -1.052421  y =  2.011733  z =  0.398366 angstrom
           Maximum rank =  0   Radius =  0.650 angstrom
                   Q00  =  -0.121014

C          x = -3.575421  y =  0.919733  z =  0.839366 angstrom
           Maximum rank =  0   Radius =  0.650 angstrom
                   Q00  =   0.023045

C          x = -2.114421  y =  2.330733  z = -0.448634 angstrom
           Maximum rank =  0   Radius =  0.650 angstrom
                   Q00  =  -0.027628

C          x = -3.386421  y =  1.792733  z = -0.234634 angstrom
           Maximum rank =  0   Radius =  0.650 angstrom
                   Q00  =  -0.135369

O          x = -0.231421  y =  0.856733  z =  2.316366 angstrom
           Maximum rank =  0   Radius =  0.650 angstrom
                   Q00  =  -0.654343

H          x = -2.682421  y = -0.070267  z =  2.528366 angstrom
           Maximum rank =  0   Radius =  0.325 angstrom
                   Q00  =   0.072975

H          x = -0.572421  y =  0.431733  z =  3.121366 angstrom
           Maximum rank =  0   Radius =  0.325 angstrom
                   Q00  =   0.410144

H          x = -0.078421  y =  2.449733  z =  0.239366 angstrom
           Maximum rank =  0   Radius =  0.325 angstrom
                   Q00  =   0.085543

H          x = -4.558421  y =  0.507733  z =  1.032366 angstrom
           Maximum rank =  0   Radius =  0.325 angstrom
                   Q00  =   0.069305

H          x = -1.952421  y =  3.014733  z = -1.271634 angstrom
           Maximum rank =  0   Radius =  0.325 angstrom
                   Q00  =   0.062775

H          x = -5.406421  y =  1.564733  z = -0.918634 angstrom
           Maximum rank =  0   Radius =  0.325 angstrom
                   Q00  =   0.096855

H          x = -4.271421  y =  2.146733  z = -2.140634 angstrom
           Maximum rank =  0   Radius =  0.325 angstrom
                   Q00  =   0.095880

H          x = -4.847521  y =  3.263873  z = -0.868214 angstrom
           Maximum rank =  0   Radius =  0.325 angstrom
                   Q00  =   0.099465

Total multipoles referred to origin at
           x =   0.000000,  y =    0.000000,  z =    0.000000 angstrom
                   Q00  =  -0.000000

Finished at 9:50:38 on 27 Apr 2020

  DMA results are available in the Python driver through the
	  variable('DMA DISTRIBUTED MULTIPOLES')
  and
	  variable('DMA TOTAL MULTIPOLES')
  commands.

    Psi4 stopped on: Monday, 27 April 2020 09:50AM
    Psi4 wall time for execution: 0:33:26.32

*** Psi4 exiting successfully. Buy a developer a beer!
