                               Psi4 1.3.2 release

  ==> Input File <==

--------------------------------------------------------------------------
import numpy as np
set {scf_type pk
basis cc-pvdz
d_convergence 10
gdma_switch   0
gdma_limit    0
gdma_origin   [ 0.0,  0.0,  0.0 ]
}
molecule test {
    units Angstrom
    -1 1
    --
    -1 1
    C               -2.630373894877539    -0.494860610817840    -0.489499268172171
    C               -1.173373894877539    -0.094860610817840    -0.304499268172171
    O               -0.350373894877539    -0.993860610817840    -0.036499268172171
    O               -0.843373894877539     1.107139389182160    -0.418499268172171
    H               -2.867373894877538    -1.366860610817840     0.113500731827829
    H               -2.747373894877539    -0.788860610817840    -1.533499268172172
    H               -3.324158894877538     0.330489389182160    -0.271658268172171
    C                2.542626105122461     0.811139389182160     0.935500731827829
    O                2.125626105122461    -0.347860610817840     0.228500731827829
    H                1.138626105122461    -0.368860610817840     0.204500731827828
    H                3.438626105122461     0.542139389182160     1.497500731827829
    H                2.813236105122461     1.618689389182160     0.239340731827829
    H                1.774793105122461     1.119859389182160     1.660156731827828

}
e, wfn = energy('scf', return_wfn=True)
gdma(wfn)
dmavals = variable('DMA DISTRIBUTED MULTIPOLES')
charges = np.array(dmavals)
print(charges)
np.save('SSI-039ASP-057THR-1-dimer.npy', np.array(charges))--------------------------------------------------------------------------

*** tstart() called on ds3
*** at Tue Apr 28 13:54:13 2020

   => Loading Basis Set <=

    Name: CC-PVDZ
    Role: ORBITAL
    Keyword: BASIS
    atoms 1-2, 8     entry C          line   138 file /theoryfs2/ds/metcalf/miniconda2/envs/tf2gpu/share/psi4/basis/cc-pvdz.gbs
    atoms 3-4, 9     entry O          line   198 file /theoryfs2/ds/metcalf/miniconda2/envs/tf2gpu/share/psi4/basis/cc-pvdz.gbs
    atoms 5-7, 10-13 entry H          line    22 file /theoryfs2/ds/metcalf/miniconda2/envs/tf2gpu/share/psi4/basis/cc-pvdz.gbs

         ---------------------------------------------------------
                                   SCF
               by Justin Turney, Rob Parrish, Andy Simmonett
                          and Daniel G. A. Smith
                              RHF Reference
                        1 Threads,    500 MiB Core
         ---------------------------------------------------------

  ==> Geometry <==

    Molecular point group: c1
    Full point group: C1

    Geometry (in Angstrom), charge = -1, multiplicity = 1:

       Center              X                  Y                   Z               Mass
    ------------   -----------------  -----------------  -----------------  -----------------
         C           -2.630373894878    -0.494860610818    -0.489499268172    12.000000000000
         C           -1.173373894878    -0.094860610818    -0.304499268172    12.000000000000
         O           -0.350373894878    -0.993860610818    -0.036499268172    15.994914619570
         O           -0.843373894878     1.107139389182    -0.418499268172    15.994914619570
         H           -2.867373894878    -1.366860610818     0.113500731828     1.007825032230
         H           -2.747373894878    -0.788860610818    -1.533499268172     1.007825032230
         H           -3.324158894878     0.330489389182    -0.271658268172     1.007825032230
         C            2.542626105122     0.811139389182     0.935500731828    12.000000000000
         O            2.125626105122    -0.347860610818     0.228500731828    15.994914619570
         H            1.138626105122    -0.368860610818     0.204500731828     1.007825032230
         H            3.438626105122     0.542139389182     1.497500731828     1.007825032230
         H            2.813236105122     1.618689389182     0.239340731828     1.007825032230
         H            1.774793105122     1.119859389182     1.660156731828     1.007825032230

  Running in c1 symmetry.

  Rotational constants: A =      0.29050  B =      0.04899  C =      0.04344 [cm^-1]
  Rotational constants: A =   8708.82938  B =   1468.58219  C =   1302.21644 [MHz]
  Nuclear repulsion =  233.181025735623649

  Charge       = -1
  Multiplicity = 1
  Electrons    = 50
  Nalpha       = 25
  Nbeta        = 25

  ==> Algorithm <==

  SCF Algorithm Type is PK.
  DIIS enabled.
  MOM disabled.
  Fractional occupation disabled.
  Guess Type is SAD.
  Energy threshold   = 1.00e-06
  Density threshold  = 1.00e-10
  Integral threshold = 0.00e+00

  ==> Primary Basis <==

  Basis Set: CC-PVDZ
    Blend: CC-PVDZ
    Number of shells: 57
    Number of basis function: 119
    Number of Cartesian functions: 125
    Spherical Harmonics?: true
    Max angular momentum: 2

  ==> Pre-Iterations <==

   -------------------------------------------------------
    Irrep   Nso     Nmo     Nalpha   Nbeta   Ndocc  Nsocc
   -------------------------------------------------------
     A        119     119       0       0       0       0
   -------------------------------------------------------
    Total     119     119      25      25      25       0
   -------------------------------------------------------

  ==> Integral Setup <==

  Using integral reordering PK algorithm.
  Sizing the integral batches needed.
  Building batch lookup table.
   Calculation information:
      Number of atoms:                  13
      Number of AO shells:              57
      Number of primitives:            167
      Number of atomic orbitals:       125
      Number of basis functions:       119

      Integral cutoff                 1.00e-12
      Number of threads:                 1

	Batch   1 pq = [       0,    7140] index = [             0,25493370] size =     25493370
  Task number: 3
  Buffer size: 11059200
  Buffer per thread: 2
  We computed 1135426 shell quartets total.
  Whereas there are 1367031 unique shell quartets.

  ==> DiskJK: Disk-Based J/K Matrices <==

    J tasked:                  Yes
    K tasked:                  Yes
    wK tasked:                  No
    Memory [MiB]:              375
    Schwarz Cutoff:          1E-12

    OpenMP threads:              1

  Minimum eigenvalue in the overlap matrix is 5.0487662026E-03.
  Using Symmetric Orthogonalization.

  SCF Guess: Superposition of Atomic Densities via on-the-fly atomic UHF.

  ==> Iterations <==

                        Total Energy        Delta E     RMS |[F,P]|

   @RHF iter SAD:  -340.69047545634265   -3.40690e+02   0.00000e+00
   @RHF iter   1:  -342.07939874699997   -1.38892e+00   5.97119e-03 DIIS
   @RHF iter   2:  -342.25210893809100   -1.72710e-01   3.42267e-03 DIIS
   @RHF iter   3:  -342.30978526679985   -5.76763e-02   4.74722e-04 DIIS
   @RHF iter   4:  -342.31190802958503   -2.12276e-03   1.73884e-04 DIIS
   @RHF iter   5:  -342.31220171576922   -2.93686e-04   3.98463e-05 DIIS
   @RHF iter   6:  -342.31221519356689   -1.34778e-05   1.65152e-05 DIIS
   @RHF iter   7:  -342.31221732388531   -2.13032e-06   3.42272e-06 DIIS
   @RHF iter   8:  -342.31221748965703   -1.65772e-07   1.30824e-06 DIIS
   @RHF iter   9:  -342.31221750767628   -1.80193e-08   4.86970e-07 DIIS
   @RHF iter  10:  -342.31221751179032   -4.11404e-09   1.53184e-07 DIIS
   @RHF iter  11:  -342.31221751233295   -5.42627e-10   4.88767e-08 DIIS
   @RHF iter  12:  -342.31221751238314   -5.01927e-11   1.83268e-08 DIIS
   @RHF iter  13:  -342.31221751239121   -8.07177e-12   4.96420e-09 DIIS
   @RHF iter  14:  -342.31221751239110    1.13687e-13   1.41578e-09 DIIS
   @RHF iter  15:  -342.31221751239195   -8.52651e-13   4.88619e-10 DIIS
   @RHF iter  16:  -342.31221751239212   -1.70530e-13   1.35173e-10 DIIS
   @RHF iter  17:  -342.31221751239190    2.27374e-13   5.28912e-11 DIIS
  Energy and wave function converged.

  ==> Post-Iterations <==

    Orbital Energies [Eh]
    ---------------------

    Doubly Occupied:

       1A    -20.335599     2A    -20.288743     3A    -20.280256
       4A    -11.139180     5A    -11.110014     6A    -11.066190
       7A     -1.180818     8A     -1.139439     9A     -1.062083
      10A     -0.814550    11A     -0.745864    12A     -0.533884
      13A     -0.484227    14A     -0.440914    15A     -0.431377
      16A     -0.427233    17A     -0.426894    18A     -0.401855
      19A     -0.362713    20A     -0.327765    21A     -0.307281
      22A     -0.247586    23A     -0.206664    24A     -0.196103
      25A     -0.187745

    Virtual:

      26A      0.340966    27A      0.345713    28A      0.383898
      29A      0.403951    30A      0.407150    31A      0.415986
      32A      0.467005    33A      0.485406    34A      0.553241
      35A      0.622992    36A      0.679279    37A      0.745678
      38A      0.799940    39A      0.803422    40A      0.806364
      41A      0.868964    42A      0.902278    43A      0.932451
      44A      0.949283    45A      0.980154    46A      1.018444
      47A      1.021130    48A      1.023509    49A      1.044234
      50A      1.054297    51A      1.065558    52A      1.100287
      53A      1.129504    54A      1.204139    55A      1.300227
      56A      1.317909    57A      1.319074    58A      1.334458
      59A      1.340014    60A      1.419665    61A      1.480690
      62A      1.521973    63A      1.556993    64A      1.579439
      65A      1.598942    66A      1.611155    67A      1.622968
      68A      1.717038    69A      1.733594    70A      1.806441
      71A      1.822592    72A      1.827128    73A      1.838565
      74A      1.896402    75A      1.915648    76A      2.012936
      77A      2.048408    78A      2.055873    79A      2.067481
      80A      2.087603    81A      2.105684    82A      2.127507
      83A      2.137030    84A      2.176715    85A      2.233279
      86A      2.253361    87A      2.309901    88A      2.369065
      89A      2.381021    90A      2.429613    91A      2.466676
      92A      2.506448    93A      2.567819    94A      2.582550
      95A      2.637992    96A      2.685693    97A      2.764176
      98A      2.850766    99A      2.903067   100A      2.912347
     101A      2.925553   102A      2.936827   103A      2.970726
     104A      2.988148   105A      3.213937   106A      3.265555
     107A      3.295474   108A      3.487163   109A      3.510786
     110A      3.589161   111A      3.621682   112A      3.654144
     113A      3.765119   114A      3.801996   115A      3.838563
     116A      4.045381   117A      4.064489   118A      4.198902
     119A      4.381262

    Final Occupation by Irrep:
              A
    DOCC [    25 ]

  @RHF Final Energy:  -342.31221751239190

   => Energetics <=

    Nuclear Repulsion Energy =            233.1810257356236491
    One-Electron Energy =                -942.6965359143782734
    Two-Electron Energy =                 367.2032926663627563
    Total Energy =                       -342.3122175123918964

Computation Completed

Properties will be evaluated at   0.000000,   0.000000,   0.000000 [a0]

Properties computed using the SCF density matrix

  Nuclear Dipole Moment: [e a0]
     X:     0.2167      Y:     1.0175      Z:     1.7893

  Electronic Dipole Moment: [e a0]
     X:    -0.6649      Y:    -0.9087      Z:    -1.3881

  Dipole Moment: [e a0]
     X:    -0.4482      Y:     0.1088      Z:     0.4012     Total:     0.6113

  Dipole Moment: [D]
     X:    -1.1392      Y:     0.2765      Z:     1.0197     Total:     1.5538

*** tstop() called on ds3 at Tue Apr 28 13:54:28 2020
Module time:
	user time   =      10.63 seconds =       0.18 minutes
	system time =       4.00 seconds =       0.07 minutes
	total time  =         15 seconds =       0.25 minutes
Total time:
	user time   =      10.63 seconds =       0.18 minutes
	system time =       4.00 seconds =       0.07 minutes
	total time  =         15 seconds =       0.25 minutes
                                     G D M A

                                 by Anthony Stone

                           version 2.2.06, 22 June 2011

               Distributed Multipoles from Gaussian wavefunctions

Starting at 13:54:28 on 28 Apr 2020

Using SCF density matrix from file ./SSI/SSI-039ASP-057THR-1-dimer.test.28567.fchk

                         Distributed Multipole Analysis

Standard DMA

Positions and radii in angstrom
Multipole moments in atomic units, ea_0^k for rank k

C          x = -2.630374  y = -0.494861  z = -0.489499 angstrom
           Maximum rank =  0   Radius =  0.650 angstrom
                   Q00  =  -0.259266

C          x = -1.173374  y = -0.094861  z = -0.304499 angstrom
           Maximum rank =  0   Radius =  0.650 angstrom
                   Q00  =   0.902172

O          x = -0.350374  y = -0.993861  z = -0.036499 angstrom
           Maximum rank =  0   Radius =  0.650 angstrom
                   Q00  =  -0.921351

O          x = -0.843374  y =  1.107139  z = -0.418499 angstrom
           Maximum rank =  0   Radius =  0.650 angstrom
                   Q00  =  -0.903753

H          x = -2.867374  y = -1.366861  z =  0.113501 angstrom
           Maximum rank =  0   Radius =  0.325 angstrom
                   Q00  =   0.066317

H          x = -2.747374  y = -0.788861  z = -1.533499 angstrom
           Maximum rank =  0   Radius =  0.325 angstrom
                   Q00  =   0.086290

H          x = -3.324159  y =  0.330489  z = -0.271658 angstrom
           Maximum rank =  0   Radius =  0.325 angstrom
                   Q00  =   0.059647

C          x =  2.542626  y =  0.811139  z =  0.935501 angstrom
           Maximum rank =  0   Radius =  0.650 angstrom
                   Q00  =   0.008769

O          x =  2.125626  y = -0.347861  z =  0.228501 angstrom
           Maximum rank =  0   Radius =  0.650 angstrom
                   Q00  =  -0.712303

H          x =  1.138626  y = -0.368861  z =  0.204501 angstrom
           Maximum rank =  0   Radius =  0.325 angstrom
                   Q00  =   0.557093

H          x =  3.438626  y =  0.542139  z =  1.497501 angstrom
           Maximum rank =  0   Radius =  0.325 angstrom
                   Q00  =   0.026133

H          x =  2.813236  y =  1.618689  z =  0.239341 angstrom
           Maximum rank =  0   Radius =  0.325 angstrom
                   Q00  =   0.036517

H          x =  1.774793  y =  1.119859  z =  1.660157 angstrom
           Maximum rank =  0   Radius =  0.325 angstrom
                   Q00  =   0.053736

Total multipoles referred to origin at
           x =   0.000000,  y =    0.000000,  z =    0.000000 angstrom
                   Q00  =  -1.000000

Finished at 13:54:28 on 28 Apr 2020

  DMA results are available in the Python driver through the
	  variable('DMA DISTRIBUTED MULTIPOLES')
  and
	  variable('DMA TOTAL MULTIPOLES')
  commands.

    Psi4 stopped on: Tuesday, 28 April 2020 01:54PM
    Psi4 wall time for execution: 0:00:14.87

*** Psi4 exiting successfully. Buy a developer a beer!
