                               Psi4 1.3.2 release

  ==> Input File <==

--------------------------------------------------------------------------
import numpy as np
set {scf_type pk
basis cc-pvdz
d_convergence 10
gdma_switch   0
gdma_limit    0
gdma_origin   [ 0.0,  0.0,  0.0 ]
}
molecule test {
    units Angstrom
    0 1
    --
    0 1
    C               -2.368817923364501     0.312216616757440     0.303373742938728
    C               -1.625817923364501    -0.625783383242560    -0.597626257061272
    C               -1.000817923364501    -1.798783383242560    -0.324626257061272
    C               -0.830817923364501    -1.415783383242560    -2.485626257061272
    N               -1.512817923364501    -0.404783383242560    -1.957626257061272
    N               -0.509817923364501    -2.268783383242560    -1.520626257061272
    H               -1.941817923364501     1.305216616757440     0.162373742938728
    H               -2.217817923364500     0.022216616757440     1.343373742938728
    H               -0.895817923364501    -2.251783383242560     0.650373742938728
    H               -0.592817923364501    -1.539783383242560    -3.536626257061272
    H               -0.048817923364501    -3.166783383242560    -1.681626257061272
    H               -3.443687923364501     0.347496616757440     0.072272842938728
    C                1.282182076635499     1.703216616757440     0.207373742938728
    C                1.819182076635499     0.711216616757440    -0.826626257061272
    C                2.310182076635499     1.270216616757440     2.781373742938728
    S                0.825182076635499     0.962216616757440     1.788373742938728
    H                2.021182076635499     2.484216616757440     0.376373742938728
    H                0.395182076635499     2.174216616757440    -0.214626257061272
    H                2.095182076635499     1.260216616757440    -1.726626257061272
    H                1.008182076635499     0.048216616757440    -1.097626257061272
    H                2.532182076635500     2.338216616757440     2.790373742938728
    H                2.134182076635499     0.935216616757440     3.803373742938728
    H                3.156182076635500     0.720216616757440     2.378373742938728
    H                2.661842076635499     0.081566616757440    -0.504963257061272

}
e, wfn = energy('scf', return_wfn=True)
gdma(wfn)
dmavals = variable('DMA DISTRIBUTED MULTIPOLES')
charges = np.array(dmavals)
print(charges)
np.save('SSI-048HIE-174MET-1-dimer.npy', np.array(charges))--------------------------------------------------------------------------

*** tstart() called on ds3
*** at Tue Apr 28 15:52:44 2020

   => Loading Basis Set <=

    Name: CC-PVDZ
    Role: ORBITAL
    Keyword: BASIS
    atoms 1-4, 13-15  entry C          line   138 file /theoryfs2/ds/metcalf/miniconda2/envs/tf2gpu/share/psi4/basis/cc-pvdz.gbs
    atoms 5-6         entry N          line   168 file /theoryfs2/ds/metcalf/miniconda2/envs/tf2gpu/share/psi4/basis/cc-pvdz.gbs
    atoms 7-12, 17-24 entry H          line    22 file /theoryfs2/ds/metcalf/miniconda2/envs/tf2gpu/share/psi4/basis/cc-pvdz.gbs
    atoms 16          entry S          line   598 file /theoryfs2/ds/metcalf/miniconda2/envs/tf2gpu/share/psi4/basis/cc-pvdz.gbs

         ---------------------------------------------------------
                                   SCF
               by Justin Turney, Rob Parrish, Andy Simmonett
                          and Daniel G. A. Smith
                              RHF Reference
                        1 Threads,    500 MiB Core
         ---------------------------------------------------------

  ==> Geometry <==

    Molecular point group: c1
    Full point group: C1

    Geometry (in Angstrom), charge = 0, multiplicity = 1:

       Center              X                  Y                   Z               Mass
    ------------   -----------------  -----------------  -----------------  -----------------
         C           -2.368817923365     0.312216616757     0.303373742939    12.000000000000
         C           -1.625817923365    -0.625783383243    -0.597626257061    12.000000000000
         C           -1.000817923365    -1.798783383243    -0.324626257061    12.000000000000
         C           -0.830817923365    -1.415783383243    -2.485626257061    12.000000000000
         N           -1.512817923365    -0.404783383243    -1.957626257061    14.003074004430
         N           -0.509817923365    -2.268783383243    -1.520626257061    14.003074004430
         H           -1.941817923365     1.305216616757     0.162373742939     1.007825032230
         H           -2.217817923365     0.022216616757     1.343373742939     1.007825032230
         H           -0.895817923365    -2.251783383243     0.650373742939     1.007825032230
         H           -0.592817923365    -1.539783383243    -3.536626257061     1.007825032230
         H           -0.048817923365    -3.166783383243    -1.681626257061     1.007825032230
         H           -3.443687923365     0.347496616757     0.072272842939     1.007825032230
         C            1.282182076635     1.703216616757     0.207373742939    12.000000000000
         C            1.819182076635     0.711216616757    -0.826626257061    12.000000000000
         C            2.310182076635     1.270216616757     2.781373742939    12.000000000000
         S            0.825182076635     0.962216616757     1.788373742939    31.972071174400
         H            2.021182076635     2.484216616757     0.376373742939     1.007825032230
         H            0.395182076635     2.174216616757    -0.214626257061     1.007825032230
         H            2.095182076635     1.260216616757    -1.726626257061     1.007825032230
         H            1.008182076635     0.048216616757    -1.097626257061     1.007825032230
         H            2.532182076635     2.338216616757     2.790373742939     1.007825032230
         H            2.134182076635     0.935216616757     3.803373742939     1.007825032230
         H            3.156182076635     0.720216616757     2.378373742939     1.007825032230
         H            2.661842076635     0.081566616757    -0.504963257061     1.007825032230

  Running in c1 symmetry.

  Rotational constants: A =      0.06031  B =      0.01931  C =      0.01767 [cm^-1]
  Rotational constants: A =   1808.03471  B =    578.98535  C =    529.72103 [MHz]
  Nuclear repulsion =  614.446719613161463

  Charge       = 0
  Multiplicity = 1
  Electrons    = 86
  Nalpha       = 43
  Nbeta        = 43

  ==> Algorithm <==

  SCF Algorithm Type is PK.
  DIIS enabled.
  MOM disabled.
  Fractional occupation disabled.
  Guess Type is SAD.
  Energy threshold   = 1.00e-06
  Density threshold  = 1.00e-10
  Integral threshold = 0.00e+00

  ==> Primary Basis <==

  Basis Set: CC-PVDZ
    Blend: CC-PVDZ
    Number of shells: 104
    Number of basis function: 214
    Number of Cartesian functions: 224
    Spherical Harmonics?: true
    Max angular momentum: 2

  ==> Pre-Iterations <==

   -------------------------------------------------------
    Irrep   Nso     Nmo     Nalpha   Nbeta   Ndocc  Nsocc
   -------------------------------------------------------
     A        214     214       0       0       0       0
   -------------------------------------------------------
    Total     214     214      43      43      43       0
   -------------------------------------------------------

  ==> Integral Setup <==

  Using integral reordering PK algorithm.
  Sizing the integral batches needed.
  Building batch lookup table.
   Calculation information:
      Number of atoms:                  24
      Number of AO shells:             104
      Number of primitives:            318
      Number of atomic orbitals:       224
      Number of basis functions:       214

      Integral cutoff                 1.00e-12
      Number of threads:                 1

	Batch   1 pq = [       0,    9405] index = [             0,44231715] size =     44231715
	Batch   2 pq = [    9405,   13301] index = [      44231715,88464951] size =     44233236
	Batch   3 pq = [   13301,   16290] index = [      88464951,132690195] size =     44225244
	Batch   4 pq = [   16290,   18810] index = [     132690195,176917455] size =     44227260
	Batch   5 pq = [   18810,   21030] index = [     176917455,221140965] size =     44223510
	Batch   6 pq = [   21030,   23005] index = [     221140965,264626515] size =     43485550
  Task number: 24
  Buffer size: 11059200
  Buffer per thread: 2
  We computed 14322389 shell quartets total.
  Whereas there are 14908530 unique shell quartets.

  ==> DiskJK: Disk-Based J/K Matrices <==

    J tasked:                  Yes
    K tasked:                  Yes
    wK tasked:                  No
    Memory [MiB]:              375
    Schwarz Cutoff:          1E-12

    OpenMP threads:              1

  Minimum eigenvalue in the overlap matrix is 1.1520032184E-03.
  Using Symmetric Orthogonalization.

  SCF Guess: Superposition of Atomic Densities via on-the-fly atomic UHF.

  ==> Iterations <==

                        Total Energy        Delta E     RMS |[F,P]|

   @RHF iter SAD:  -778.77405866299353   -7.78774e+02   0.00000e+00
   @RHF iter   1:  -779.42701394819881   -6.52955e-01   2.77003e-03 DIIS
   @RHF iter   2:  -779.61715892738005   -1.90145e-01   1.37181e-03 DIIS
   @RHF iter   3:  -779.65815813940571   -4.09992e-02   3.88951e-04 DIIS
   @RHF iter   4:  -779.66250287396645   -4.34473e-03   1.47095e-04 DIIS
   @RHF iter   5:  -779.66308105336350   -5.78179e-04   2.47686e-05 DIIS
   @RHF iter   6:  -779.66310655622465   -2.55029e-05   9.97904e-06 DIIS
   @RHF iter   7:  -779.66311074746613   -4.19124e-06   3.43919e-06 DIIS
   @RHF iter   8:  -779.66311161287513   -8.65409e-07   1.47359e-06 DIIS
   @RHF iter   9:  -779.66311181153355   -1.98658e-07   5.39924e-07 DIIS
   @RHF iter  10:  -779.66311183385130   -2.23177e-08   1.75884e-07 DIIS
   @RHF iter  11:  -779.66311183632831   -2.47701e-09   6.83379e-08 DIIS
   @RHF iter  12:  -779.66311183664106   -3.12752e-10   2.73705e-08 DIIS
   @RHF iter  13:  -779.66311183668790   -4.68390e-11   8.63129e-09 DIIS
   @RHF iter  14:  -779.66311183669529   -7.38964e-12   3.03708e-09 DIIS
   @RHF iter  15:  -779.66311183669700   -1.70530e-12   1.06025e-09 DIIS
   @RHF iter  16:  -779.66311183670086   -3.86535e-12   3.90126e-10 DIIS
   @RHF iter  17:  -779.66311183669666    4.20641e-12   1.45240e-10 DIIS
   @RHF iter  18:  -779.66311183669836   -1.70530e-12   4.56923e-11 DIIS
  Energy and wave function converged.

  ==> Post-Iterations <==

    Orbital Energies [Eh]
    ---------------------

    Doubly Occupied:

       1A    -91.926879     2A    -15.619693     3A    -15.526366
       4A    -11.291129     5A    -11.251825     6A    -11.249253
       7A    -11.246894     8A    -11.236741     9A    -11.216914
      10A    -11.212907    11A     -8.930850    12A     -6.612903
      13A     -6.611316    14A     -6.609177    15A     -1.339955
      16A     -1.150496    17A     -1.069987    18A     -1.027619
      19A     -0.989181    20A     -0.936766    21A     -0.876480
      22A     -0.813425    23A     -0.780043    24A     -0.758348
      25A     -0.737505    26A     -0.625823    27A     -0.607292
      28A     -0.601111    29A     -0.592307    30A     -0.590368
      31A     -0.579095    32A     -0.557201    33A     -0.548831
      34A     -0.534528    35A     -0.520386    36A     -0.517137
      37A     -0.495819    38A     -0.469108    39A     -0.412999
      40A     -0.409580    41A     -0.375492    42A     -0.326412
      43A     -0.305276

    Virtual:

      44A      0.173599    45A      0.181393    46A      0.188470
      47A      0.191783    48A      0.212254    49A      0.221293
      50A      0.225650    51A      0.226729    52A      0.238376
      53A      0.254569    54A      0.257089    55A      0.258782
      56A      0.285046    57A      0.294850    58A      0.297638
      59A      0.318642    60A      0.332366    61A      0.355653
      62A      0.381469    63A      0.390242    64A      0.397692
      65A      0.432077    66A      0.487450    67A      0.527484
      68A      0.547690    69A      0.558124    70A      0.577427
      71A      0.594589    72A      0.608366    73A      0.619287
      74A      0.632602    75A      0.642885    76A      0.653817
      77A      0.665262    78A      0.691347    79A      0.705661
      80A      0.730391    81A      0.747524    82A      0.759493
      83A      0.777244    84A      0.804748    85A      0.810338
      86A      0.822831    87A      0.832553    88A      0.840778
      89A      0.845251    90A      0.862679    91A      0.868725
      92A      0.877999    93A      0.880424    94A      0.892826
      95A      0.900718    96A      0.903593    97A      0.911305
      98A      0.918842    99A      0.927965   100A      0.936286
     101A      0.943008   102A      0.945786   103A      0.959001
     104A      0.970661   105A      0.979206   106A      0.997643
     107A      1.007375   108A      1.027291   109A      1.043569
     110A      1.055486   111A      1.070508   112A      1.096382
     113A      1.134628   114A      1.154866   115A      1.158061
     116A      1.168417   117A      1.221685   118A      1.242005
     119A      1.259871   120A      1.265514   121A      1.295451
     122A      1.320907   123A      1.324184   124A      1.333406
     125A      1.345546   126A      1.355879   127A      1.388681
     128A      1.429193   129A      1.444173   130A      1.461442
     131A      1.482313   132A      1.514461   133A      1.534054
     134A      1.571983   135A      1.588310   136A      1.615646
     137A      1.644753   138A      1.658203   139A      1.673575
     140A      1.695160   141A      1.704169   142A      1.716867
     143A      1.772547   144A      1.781688   145A      1.807133
     146A      1.837623   147A      1.851233   148A      1.862571
     149A      1.881151   150A      1.889738   151A      1.905426
     152A      1.924897   153A      1.931150   154A      1.934820
     155A      1.939396   156A      1.954893   157A      1.962278
     158A      1.982225   159A      1.988386   160A      2.001835
     161A      2.004091   162A      2.028510   163A      2.034332
     164A      2.041746   165A      2.046622   166A      2.057149
     167A      2.082509   168A      2.120610   169A      2.126174
     170A      2.132634   171A      2.141876   172A      2.179593
     173A      2.222105   174A      2.224471   175A      2.236621
     176A      2.261267   177A      2.315609   178A      2.338860
     179A      2.351535   180A      2.364079   181A      2.412916
     182A      2.424486   183A      2.445632   184A      2.448539
     185A      2.455693   186A      2.473994   187A      2.508098
     188A      2.547547   189A      2.563052   190A      2.598476
     191A      2.613360   192A      2.702404   193A      2.742035
     194A      2.751940   195A      2.761493   196A      2.778728
     197A      2.789428   198A      2.798330   199A      2.806393
     200A      2.806767   201A      2.836713   202A      2.838880
     203A      2.877669   204A      2.884736   205A      2.902084
     206A      2.914586   207A      2.932504   208A      2.988410
     209A      3.021928   210A      3.065712   211A      3.170638
     212A      3.248673   213A      3.475930   214A      3.795963

    Final Occupation by Irrep:
              A
    DOCC [    43 ]

  @RHF Final Energy:  -779.66311183669836

   => Energetics <=

    Nuclear Repulsion Energy =            614.4467196131614628
    One-Electron Energy =               -2288.0368294144327592
    Two-Electron Energy =                 893.9269979645730473
    Total Energy =                       -779.6631118366983628

Computation Completed

Properties will be evaluated at   0.000000,   0.000000,   0.000000 [a0]

Properties computed using the SCF density matrix

  Nuclear Dipole Moment: [e a0]
     X:     6.4618      Y:     4.4943      Z:     2.6961

  Electronic Dipole Moment: [e a0]
     X:    -5.3793      Y:    -5.4598      Z:    -2.6915

  Dipole Moment: [e a0]
     X:     1.0825      Y:    -0.9655      Z:     0.0046     Total:     1.4505

  Dipole Moment: [D]
     X:     2.7515      Y:    -2.4541      Z:     0.0117     Total:     3.6869

*** tstop() called on ds3 at Tue Apr 28 15:57:56 2020
Module time:
	user time   =     122.75 seconds =       2.05 minutes
	system time =      37.98 seconds =       0.63 minutes
	total time  =        312 seconds =       5.20 minutes
Total time:
	user time   =     122.75 seconds =       2.05 minutes
	system time =      37.98 seconds =       0.63 minutes
	total time  =        312 seconds =       5.20 minutes
                                     G D M A

                                 by Anthony Stone

                           version 2.2.06, 22 June 2011

               Distributed Multipoles from Gaussian wavefunctions

Starting at 15:57:56 on 28 Apr 2020

Using SCF density matrix from file ./SSI/SSI-048HIE-174MET-1-dimer.test.19802.fchk

                         Distributed Multipole Analysis

Standard DMA

Positions and radii in angstrom
Multipole moments in atomic units, ea_0^k for rank k

C          x = -2.368818  y =  0.312217  z =  0.303374 angstrom
           Maximum rank =  0   Radius =  0.650 angstrom
                   Q00  =  -0.181133

C          x = -1.625818  y = -0.625783  z = -0.597626 angstrom
           Maximum rank =  0   Radius =  0.650 angstrom
                   Q00  =   0.205735

C          x = -1.000818  y = -1.798783  z = -0.324626 angstrom
           Maximum rank =  0   Radius =  0.650 angstrom
                   Q00  =   0.017118

C          x = -0.830818  y = -1.415783  z = -2.485626 angstrom
           Maximum rank =  0   Radius =  0.650 angstrom
                   Q00  =   0.463460

N          x = -1.512818  y = -0.404783  z = -1.957626 angstrom
           Maximum rank =  0   Radius =  0.650 angstrom
                   Q00  =  -0.770671

N          x = -0.509818  y = -2.268783  z = -1.520626 angstrom
           Maximum rank =  0   Radius =  0.650 angstrom
                   Q00  =  -0.483043

H          x = -1.941818  y =  1.305217  z =  0.162374 angstrom
           Maximum rank =  0   Radius =  0.325 angstrom
                   Q00  =   0.105571

H          x = -2.217818  y =  0.022217  z =  1.343374 angstrom
           Maximum rank =  0   Radius =  0.325 angstrom
                   Q00  =   0.102438

H          x = -0.895818  y = -2.251783  z =  0.650374 angstrom
           Maximum rank =  0   Radius =  0.325 angstrom
                   Q00  =   0.107944

H          x = -0.592818  y = -1.539783  z = -3.536626 angstrom
           Maximum rank =  0   Radius =  0.325 angstrom
                   Q00  =   0.121029

H          x = -0.048818  y = -3.166783  z = -1.681626 angstrom
           Maximum rank =  0   Radius =  0.325 angstrom
                   Q00  =   0.222034

H          x = -3.443688  y =  0.347497  z =  0.072273 angstrom
           Maximum rank =  0   Radius =  0.325 angstrom
                   Q00  =   0.108041

C          x =  1.282182  y =  1.703217  z =  0.207374 angstrom
           Maximum rank =  0   Radius =  0.650 angstrom
                   Q00  =  -0.192479

C          x =  1.819182  y =  0.711217  z = -0.826626 angstrom
           Maximum rank =  0   Radius =  0.650 angstrom
                   Q00  =  -0.259149

C          x =  2.310182  y =  1.270217  z =  2.781374 angstrom
           Maximum rank =  0   Radius =  0.650 angstrom
                   Q00  =  -0.354933

S          x =  0.825182  y =  0.962217  z =  1.788374 angstrom
           Maximum rank =  0   Radius =  0.650 angstrom
                   Q00  =   0.084699

H          x =  2.021182  y =  2.484217  z =  0.376374 angstrom
           Maximum rank =  0   Radius =  0.325 angstrom
                   Q00  =   0.063638

H          x =  0.395182  y =  2.174217  z = -0.214626 angstrom
           Maximum rank =  0   Radius =  0.325 angstrom
                   Q00  =   0.086146

H          x =  2.095182  y =  1.260217  z = -1.726626 angstrom
           Maximum rank =  0   Radius =  0.325 angstrom
                   Q00  =   0.080368

H          x =  1.008182  y =  0.048217  z = -1.097626 angstrom
           Maximum rank =  0   Radius =  0.325 angstrom
                   Q00  =   0.102593

H          x =  2.532182  y =  2.338217  z =  2.790374 angstrom
           Maximum rank =  0   Radius =  0.325 angstrom
                   Q00  =   0.089587

H          x =  2.134182  y =  0.935217  z =  3.803374 angstrom
           Maximum rank =  0   Radius =  0.325 angstrom
                   Q00  =   0.117762

H          x =  3.156182  y =  0.720217  z =  2.378374 angstrom
           Maximum rank =  0   Radius =  0.325 angstrom
                   Q00  =   0.086201

H          x =  2.661842  y =  0.081567  z = -0.504963 angstrom
           Maximum rank =  0   Radius =  0.325 angstrom
                   Q00  =   0.077044

Total multipoles referred to origin at
           x =   0.000000,  y =    0.000000,  z =    0.000000 angstrom
                   Q00  =  -0.000000

Finished at 15:57:56 on 28 Apr 2020

  DMA results are available in the Python driver through the
	  variable('DMA DISTRIBUTED MULTIPOLES')
  and
	  variable('DMA TOTAL MULTIPOLES')
  commands.

    Psi4 stopped on: Tuesday, 28 April 2020 03:57PM
    Psi4 wall time for execution: 0:05:11.69

*** Psi4 exiting successfully. Buy a developer a beer!
