                               Psi4 1.3.2 release

  ==> Input File <==

--------------------------------------------------------------------------
import numpy as np
set {scf_type pk
basis cc-pvdz
d_convergence 10
gdma_switch   0
gdma_limit    0
gdma_origin   [ 0.0,  0.0,  0.0 ]
}
molecule test {
    units Angstrom
    0 1
    --
    0 1
    C                1.640380513121582     2.424662151396688    -1.848152844649791
    C                2.658380513121582     2.150662151396688    -2.944152844649791
    H                1.001380513121582     1.562662151396688    -1.676152844649791
    H                2.168380513121582     2.642662151396688    -0.922152844649791
    H                1.025380513121582     3.282662151396688    -2.119152844649790
    H                3.315380513121582     1.336662151396688    -2.633152844649791
    H                3.265380513121582     3.048662151396688    -3.046152844649791
    H                2.178650513121582     1.888202151396688    -3.898601844649790
    C                1.271380513121582     0.128662151396688     0.973847155350209
    C                1.537380513121582     0.041662151396688     2.467847155350209
    C               -0.084619486878418    -0.406337848603312     0.599847155350209
    C               -0.339619486878418    -1.769337848603312     0.664847155350209
    C               -1.108619486878418     0.446662151396688     0.217847155350209
    C               -1.606619486878418    -2.276337848603312     0.355847155350209
    C               -2.369619486878418    -0.060337848603312    -0.120152844649791
    C               -2.614619486878418    -1.428337848603312    -0.039152844649791
    H                1.365380513121582     1.167662151396688     0.663847155350209
    H                2.018380513121582    -0.446337848603312     0.428847155350209
    H                1.199380513121582    -0.942337848603312     2.794847155350209
    H                0.440380513121582    -2.450337848603312     0.972847155350209
    H               -0.918619486878418     1.502662151396688     0.144847155350209
    H               -1.787619486878418    -3.335337848603312     0.429847155350209
    H               -3.162619486878418     0.604662151396688    -0.432152844649791
    H               -3.591619486878418    -1.820337848603312    -0.283152844649791
    H                0.960840513121582     0.805562151396688     3.010117155350210
    H                2.621220513121582     0.063442151396688     2.654417155350210

}
e, wfn = energy('scf', return_wfn=True)
gdma(wfn)
dmavals = variable('DMA DISTRIBUTED MULTIPOLES')
charges = np.array(dmavals)
print(charges)
np.save('SSI-009ILE-108PHE-1-dimer.npy', np.array(charges))--------------------------------------------------------------------------

*** tstart() called on ds3
*** at Mon Apr 27 12:51:46 2020

   => Loading Basis Set <=

    Name: CC-PVDZ
    Role: ORBITAL
    Keyword: BASIS
    atoms 1-2, 9-16  entry C          line   138 file /theoryfs2/ds/metcalf/miniconda2/envs/tf2gpu/share/psi4/basis/cc-pvdz.gbs
    atoms 3-8, 17-26 entry H          line    22 file /theoryfs2/ds/metcalf/miniconda2/envs/tf2gpu/share/psi4/basis/cc-pvdz.gbs

         ---------------------------------------------------------
                                   SCF
               by Justin Turney, Rob Parrish, Andy Simmonett
                          and Daniel G. A. Smith
                              RHF Reference
                        1 Threads,    500 MiB Core
         ---------------------------------------------------------

  ==> Geometry <==

    Molecular point group: c1
    Full point group: C1

    Geometry (in Angstrom), charge = 0, multiplicity = 1:

       Center              X                  Y                   Z               Mass
    ------------   -----------------  -----------------  -----------------  -----------------
         C            1.640380513122     2.424662151397    -1.848152844650    12.000000000000
         C            2.658380513122     2.150662151397    -2.944152844650    12.000000000000
         H            1.001380513122     1.562662151397    -1.676152844650     1.007825032230
         H            2.168380513122     2.642662151397    -0.922152844650     1.007825032230
         H            1.025380513122     3.282662151397    -2.119152844650     1.007825032230
         H            3.315380513122     1.336662151397    -2.633152844650     1.007825032230
         H            3.265380513122     3.048662151397    -3.046152844650     1.007825032230
         H            2.178650513122     1.888202151397    -3.898601844650     1.007825032230
         C            1.271380513122     0.128662151397     0.973847155350    12.000000000000
         C            1.537380513122     0.041662151397     2.467847155350    12.000000000000
         C           -0.084619486878    -0.406337848603     0.599847155350    12.000000000000
         C           -0.339619486878    -1.769337848603     0.664847155350    12.000000000000
         C           -1.108619486878     0.446662151397     0.217847155350    12.000000000000
         C           -1.606619486878    -2.276337848603     0.355847155350    12.000000000000
         C           -2.369619486878    -0.060337848603    -0.120152844650    12.000000000000
         C           -2.614619486878    -1.428337848603    -0.039152844650    12.000000000000
         H            1.365380513122     1.167662151397     0.663847155350     1.007825032230
         H            2.018380513122    -0.446337848603     0.428847155350     1.007825032230
         H            1.199380513122    -0.942337848603     2.794847155350     1.007825032230
         H            0.440380513122    -2.450337848603     0.972847155350     1.007825032230
         H           -0.918619486878     1.502662151397     0.144847155350     1.007825032230
         H           -1.787619486878    -3.335337848603     0.429847155350     1.007825032230
         H           -3.162619486878     0.604662151397    -0.432152844650     1.007825032230
         H           -3.591619486878    -1.820337848603    -0.283152844650     1.007825032230
         H            0.960840513122     0.805562151397     3.010117155350     1.007825032230
         H            2.621220513122     0.063442151397     2.654417155350     1.007825032230

  Running in c1 symmetry.

  Rotational constants: A =      0.04984  B =      0.02115  C =      0.01707 [cm^-1]
  Rotational constants: A =   1494.29948  B =    634.02638  C =    511.84019 [MHz]
  Nuclear repulsion =  490.597409572962647

  Charge       = 0
  Multiplicity = 1
  Electrons    = 76
  Nalpha       = 38
  Nbeta        = 38

  ==> Algorithm <==

  SCF Algorithm Type is PK.
  DIIS enabled.
  MOM disabled.
  Fractional occupation disabled.
  Guess Type is SAD.
  Energy threshold   = 1.00e-06
  Density threshold  = 1.00e-10
  Integral threshold = 0.00e+00

  ==> Primary Basis <==

  Basis Set: CC-PVDZ
    Blend: CC-PVDZ
    Number of shells: 108
    Number of basis function: 220
    Number of Cartesian functions: 230
    Spherical Harmonics?: true
    Max angular momentum: 2

  ==> Pre-Iterations <==

   -------------------------------------------------------
    Irrep   Nso     Nmo     Nalpha   Nbeta   Ndocc  Nsocc
   -------------------------------------------------------
     A        220     220       0       0       0       0
   -------------------------------------------------------
    Total     220     220      38      38      38       0
   -------------------------------------------------------

  ==> Integral Setup <==

  Using integral reordering PK algorithm.
  Sizing the integral batches needed.
  Building batch lookup table.
   Calculation information:
      Number of atoms:                  26
      Number of AO shells:             108
      Number of primitives:            300
      Number of atomic orbitals:       230
      Number of basis functions:       220

      Integral cutoff                 1.00e-12
      Number of threads:                 1

	Batch   1 pq = [       0,    9405] index = [             0,44231715] size =     44231715
	Batch   2 pq = [    9405,   13301] index = [      44231715,88464951] size =     44233236
	Batch   3 pq = [   13301,   16290] index = [      88464951,132690195] size =     44225244
	Batch   4 pq = [   16290,   18810] index = [     132690195,176917455] size =     44227260
	Batch   5 pq = [   18810,   21030] index = [     176917455,221140965] size =     44223510
	Batch   6 pq = [   21030,   23037] index = [     221140965,265363203] size =     44222238
	Batch   7 pq = [   23037,   24310] index = [     265363203,295500205] size =     30137002
  Task number: 27
  Buffer size: 11059200
  Buffer per thread: 2
  We computed 15268570 shell quartets total.
  Whereas there are 17325441 unique shell quartets.

  ==> DiskJK: Disk-Based J/K Matrices <==

    J tasked:                  Yes
    K tasked:                  Yes
    wK tasked:                  No
    Memory [MiB]:              375
    Schwarz Cutoff:          1E-12

    OpenMP threads:              1

  Minimum eigenvalue in the overlap matrix is 3.0180029325E-04.
  Using Symmetric Orthogonalization.

  SCF Guess: Superposition of Atomic Densities via on-the-fly atomic UHF.

  ==> Iterations <==

                        Total Energy        Delta E     RMS |[F,P]|

   @RHF iter SAD:  -386.98001884674085   -3.86980e+02   0.00000e+00
   @RHF iter   1:  -387.77144425322285   -7.91425e-01   2.74055e-03 DIIS
   @RHF iter   2:  -387.98796328122143   -2.16519e-01   1.14057e-03 DIIS
   @RHF iter   3:  -388.02234973849215   -3.43865e-02   2.48698e-04 DIIS
   @RHF iter   4:  -388.02520553434636   -2.85580e-03   5.64971e-05 DIIS
   @RHF iter   5:  -388.02530287556169   -9.73412e-05   2.10697e-05 DIIS
   @RHF iter   6:  -388.02531680339541   -1.39278e-05   4.04839e-06 DIIS
   @RHF iter   7:  -388.02531747130280   -6.67907e-07   1.15690e-06 DIIS
   @RHF iter   8:  -388.02531752383163   -5.25288e-08   2.96453e-07 DIIS
   @RHF iter   9:  -388.02531753019105   -6.35941e-09   1.22367e-07 DIIS
   @RHF iter  10:  -388.02531753169399   -1.50294e-09   6.52232e-08 DIIS
   @RHF iter  11:  -388.02531753221751   -5.23528e-10   2.60509e-08 DIIS
   @RHF iter  12:  -388.02531753230471   -8.71978e-11   1.21513e-08 DIIS
   @RHF iter  13:  -388.02531753231625   -1.15392e-11   4.42579e-09 DIIS
   @RHF iter  14:  -388.02531753232245   -6.19593e-12   1.19026e-09 DIIS
   @RHF iter  15:  -388.02531753232097    1.47793e-12   3.47313e-10 DIIS
   @RHF iter  16:  -388.02531753231972    1.25056e-12   1.08394e-10 DIIS
   @RHF iter  17:  -388.02531753231870    1.02318e-12   4.89099e-11 DIIS
  Energy and wave function converged.

  ==> Post-Iterations <==

    Orbital Energies [Eh]
    ---------------------

    Doubly Occupied:

       1A    -11.235321     2A    -11.235141     3A    -11.233399
       4A    -11.229455     5A    -11.229241     6A    -11.228952
       7A    -11.225543     8A    -11.221655     9A    -11.217069
      10A    -11.214336    11A     -1.155324    12A     -1.066145
      13A     -1.020750    14A     -1.009309    15A     -0.983623
      16A     -0.860498    17A     -0.836790    18A     -0.826682
      19A     -0.784312    20A     -0.692337    21A     -0.640925
      22A     -0.633913    23A     -0.600228    24A     -0.599667
      25A     -0.596971    26A     -0.585080    27A     -0.576017
      28A     -0.540104    29A     -0.517508    30A     -0.503881
      31A     -0.498207    32A     -0.486795    33A     -0.485562
      34A     -0.481723    35A     -0.471231    36A     -0.465959
      37A     -0.329953    38A     -0.323405

    Virtual:

      39A      0.132613    40A      0.144107    41A      0.177893
      42A      0.189319    43A      0.203457    44A      0.207866
      45A      0.234189    46A      0.236215    47A      0.241189
      48A      0.255764    49A      0.258455    50A      0.263914
      51A      0.275682    52A      0.286595    53A      0.291676
      54A      0.299055    55A      0.315783    56A      0.341013
      57A      0.352469    58A      0.391697    59A      0.409004
      60A      0.426326    61A      0.452572    62A      0.472318
      63A      0.489354    64A      0.505099    65A      0.571017
      66A      0.578927    67A      0.593855    68A      0.602830
      69A      0.620160    70A      0.623380    71A      0.638198
      72A      0.647394    73A      0.679895    74A      0.694296
      75A      0.695925    76A      0.718760    77A      0.737118
      78A      0.742119    79A      0.748202    80A      0.753754
      81A      0.758943    82A      0.762694    83A      0.790483
      84A      0.796669    85A      0.835457    86A      0.839420
      87A      0.853485    88A      0.868607    89A      0.875381
      90A      0.876164    91A      0.890532    92A      0.893111
      93A      0.895661    94A      0.898816    95A      0.905329
      96A      0.916171    97A      0.918413    98A      0.923877
      99A      0.936585   100A      0.939878   101A      0.962106
     102A      0.963400   103A      0.976311   104A      0.993489
     105A      1.005870   106A      1.024263   107A      1.059835
     108A      1.067690   109A      1.124687   110A      1.127806
     111A      1.144423   112A      1.146190   113A      1.157090
     114A      1.192557   115A      1.204927   116A      1.216886
     117A      1.238659   118A      1.248329   119A      1.252584
     120A      1.268630   121A      1.298187   122A      1.309387
     123A      1.313364   124A      1.328383   125A      1.406223
     126A      1.424719   127A      1.455902   128A      1.483522
     129A      1.489913   130A      1.517347   131A      1.532442
     132A      1.568753   133A      1.618826   134A      1.619868
     135A      1.669268   136A      1.682161   137A      1.699230
     138A      1.703640   139A      1.726524   140A      1.751553
     141A      1.759739   142A      1.772572   143A      1.838240
     144A      1.851448   145A      1.861359   146A      1.862871
     147A      1.877500   148A      1.881092   149A      1.887756
     150A      1.898106   151A      1.910776   152A      1.913678
     153A      1.932115   154A      1.938446   155A      1.948776
     156A      1.950296   157A      1.953992   158A      1.960823
     159A      1.961202   160A      1.962640   161A      1.975045
     162A      1.981194   163A      1.991821   164A      2.006095
     165A      2.021871   166A      2.037618   167A      2.048762
     168A      2.072102   169A      2.082862   170A      2.091528
     171A      2.102406   172A      2.113729   173A      2.126188
     174A      2.159345   175A      2.169788   176A      2.178616
     177A      2.187280   178A      2.211104   179A      2.245145
     180A      2.261150   181A      2.277772   182A      2.300895
     183A      2.308546   184A      2.322597   185A      2.330343
     186A      2.342063   187A      2.387071   188A      2.445644
     189A      2.470757   190A      2.480787   191A      2.490065
     192A      2.495212   193A      2.524769   194A      2.558569
     195A      2.570287   196A      2.588721   197A      2.603360
     198A      2.657516   199A      2.745051   200A      2.767411
     201A      2.775136   202A      2.780844   203A      2.787797
     204A      2.808060   205A      2.815024   206A      2.844551
     207A      2.855018   208A      2.858612   209A      2.867024
     210A      2.900261   211A      2.962382   212A      2.973076
     213A      2.987762   214A      3.006464   215A      3.044162
     216A      3.068933   217A      3.198561   218A      3.212597
     219A      3.316444   220A      3.982157

    Final Occupation by Irrep:
              A
    DOCC [    38 ]

  @RHF Final Energy:  -388.02531753231870

   => Energetics <=

    Nuclear Repulsion Energy =            490.5974095729626470
    One-Electron Energy =               -1495.5594265412653385
    Two-Electron Energy =                 616.9366994359839964
    Total Energy =                       -388.0253175323186952

Computation Completed

Properties will be evaluated at   0.000000,   0.000000,   0.000000 [a0]

Properties computed using the SCF density matrix

  Nuclear Dipole Moment: [e a0]
     X:    11.3431      Y:     8.3536      Z:    -3.6665

  Electronic Dipole Moment: [e a0]
     X:   -11.2488      Y:    -8.3358      Z:     3.7038

  Dipole Moment: [e a0]
     X:     0.0943      Y:     0.0179      Z:     0.0373     Total:     0.1030

  Dipole Moment: [D]
     X:     0.2397      Y:     0.0454      Z:     0.0948     Total:     0.2618

*** tstop() called on ds3 at Mon Apr 27 12:54:30 2020
Module time:
	user time   =     118.08 seconds =       1.97 minutes
	system time =      54.09 seconds =       0.90 minutes
	total time  =        164 seconds =       2.73 minutes
Total time:
	user time   =     118.08 seconds =       1.97 minutes
	system time =      54.09 seconds =       0.90 minutes
	total time  =        164 seconds =       2.73 minutes
                                     G D M A

                                 by Anthony Stone

                           version 2.2.06, 22 June 2011

               Distributed Multipoles from Gaussian wavefunctions

Starting at 12:54:30 on 27 Apr 2020

Using SCF density matrix from file ./SSI/SSI-009ILE-108PHE-1-dimer.test.4403.fchk

                         Distributed Multipole Analysis

Standard DMA

Positions and radii in angstrom
Multipole moments in atomic units, ea_0^k for rank k

C          x =  1.640381  y =  2.424662  z = -1.848153 angstrom
           Maximum rank =  0   Radius =  0.650 angstrom
                   Q00  =  -0.246189

C          x =  2.658381  y =  2.150662  z = -2.944153 angstrom
           Maximum rank =  0   Radius =  0.650 angstrom
                   Q00  =  -0.224579

H          x =  1.001381  y =  1.562662  z = -1.676153 angstrom
           Maximum rank =  0   Radius =  0.325 angstrom
                   Q00  =   0.086005

H          x =  2.168381  y =  2.642662  z = -0.922153 angstrom
           Maximum rank =  0   Radius =  0.325 angstrom
                   Q00  =   0.073458

H          x =  1.025381  y =  3.282662  z = -2.119153 angstrom
           Maximum rank =  0   Radius =  0.325 angstrom
                   Q00  =   0.076791

H          x =  3.315381  y =  1.336662  z = -2.633153 angstrom
           Maximum rank =  0   Radius =  0.325 angstrom
                   Q00  =   0.076977

H          x =  3.265381  y =  3.048662  z = -3.046153 angstrom
           Maximum rank =  0   Radius =  0.325 angstrom
                   Q00  =   0.075362

H          x =  2.178651  y =  1.888202  z = -3.898602 angstrom
           Maximum rank =  0   Radius =  0.325 angstrom
                   Q00  =   0.081991

C          x =  1.271381  y =  0.128662  z =  0.973847 angstrom
           Maximum rank =  0   Radius =  0.650 angstrom
                   Q00  =  -0.048100

C          x =  1.537381  y =  0.041662  z =  2.467847 angstrom
           Maximum rank =  0   Radius =  0.650 angstrom
                   Q00  =  -0.205447

C          x = -0.084619  y = -0.406338  z =  0.599847 angstrom
           Maximum rank =  0   Radius =  0.650 angstrom
                   Q00  =  -0.098132

C          x = -0.339619  y = -1.769338  z =  0.664847 angstrom
           Maximum rank =  0   Radius =  0.650 angstrom
                   Q00  =  -0.008249

C          x = -1.108619  y =  0.446662  z =  0.217847 angstrom
           Maximum rank =  0   Radius =  0.650 angstrom
                   Q00  =  -0.087700

C          x = -1.606619  y = -2.276338  z =  0.355847 angstrom
           Maximum rank =  0   Radius =  0.650 angstrom
                   Q00  =  -0.073572

C          x = -2.369619  y = -0.060338  z = -0.120153 angstrom
           Maximum rank =  0   Radius =  0.650 angstrom
                   Q00  =  -0.064226

C          x = -2.614619  y = -1.428338  z = -0.039153 angstrom
           Maximum rank =  0   Radius =  0.650 angstrom
                   Q00  =  -0.075385

H          x =  1.365381  y =  1.167662  z =  0.663847 angstrom
           Maximum rank =  0   Radius =  0.325 angstrom
                   Q00  =   0.069417

H          x =  2.018381  y = -0.446338  z =  0.428847 angstrom
           Maximum rank =  0   Radius =  0.325 angstrom
                   Q00  =   0.068388

H          x =  1.199381  y = -0.942338  z =  2.794847 angstrom
           Maximum rank =  0   Radius =  0.325 angstrom
                   Q00  =   0.078640

H          x =  0.440381  y = -2.450338  z =  0.972847 angstrom
           Maximum rank =  0   Radius =  0.325 angstrom
                   Q00  =   0.055588

H          x = -0.918619  y =  1.502662  z =  0.144847 angstrom
           Maximum rank =  0   Radius =  0.325 angstrom
                   Q00  =   0.059125

H          x = -1.787619  y = -3.335338  z =  0.429847 angstrom
           Maximum rank =  0   Radius =  0.325 angstrom
                   Q00  =   0.062697

H          x = -3.162619  y =  0.604662  z = -0.432153 angstrom
           Maximum rank =  0   Radius =  0.325 angstrom
                   Q00  =   0.065284

H          x = -3.591619  y = -1.820338  z = -0.283153 angstrom
           Maximum rank =  0   Radius =  0.325 angstrom
                   Q00  =   0.060080

H          x =  0.960841  y =  0.805562  z =  3.010117 angstrom
           Maximum rank =  0   Radius =  0.325 angstrom
                   Q00  =   0.073209

H          x =  2.621221  y =  0.063442  z =  2.654417 angstrom
           Maximum rank =  0   Radius =  0.325 angstrom
                   Q00  =   0.068568

Total multipoles referred to origin at
           x =   0.000000,  y =    0.000000,  z =    0.000000 angstrom
                   Q00  =  -0.000000

Finished at 12:54:30 on 27 Apr 2020

  DMA results are available in the Python driver through the
	  variable('DMA DISTRIBUTED MULTIPOLES')
  and
	  variable('DMA TOTAL MULTIPOLES')
  commands.

    Psi4 stopped on: Monday, 27 April 2020 12:54PM
    Psi4 wall time for execution: 0:02:44.93

*** Psi4 exiting successfully. Buy a developer a beer!
