                               Psi4 1.3.2 release

  ==> Input File <==

--------------------------------------------------------------------------
import numpy as np
set {scf_type pk
basis cc-pvdz
d_convergence 10
gdma_switch   0
gdma_limit    0
gdma_origin   [ 0.0,  0.0,  0.0 ]
}
molecule test {
    units Angstrom
    0 1
    --
    0 1
    C                1.823858776522951     0.881439088109393    -1.916952288080197
    C               -0.332141223477049    -1.674560911890607    -0.061952288080197
    C                0.167858776522951    -1.554560911890607     1.254047711919803
    C                0.197858776522951    -0.881560911890607    -1.094952288080197
    C                1.231858776522951     0.024439088109393    -0.828952288080197
    C                1.197858776522950    -0.652560911890607     1.522047711919803
    C                1.729858776522951     0.128439088109393     0.470047711919803
    H               -1.166141223477049    -2.330560911890607    -0.253952288080197
    H               -0.255141223477049    -2.149560911890608     2.053047711919803
    H               -0.217141223477049    -0.958560911890607    -2.089952288080197
    H                1.593858776522950    -0.564560911890607     2.524047711919803
    H                2.256858776522950     1.775439088109393    -1.464952288080197
    H                1.025858776522951     1.208439088109393    -2.584952288080197
    H                2.523858776522951     0.829439088109393     0.686047711919803
    H                2.600298776522950     0.353977088109393    -2.490468288080197
    C               -2.782141223477050     0.811439088109393     0.548047711919803
    C               -2.593141223477049     2.288439088109393     0.212047711919803
    H               -3.542141223477050     0.358439088109393    -0.089952288080197
    H               -1.836141223477050     0.302439088109393     0.401047711919803
    H               -3.055141223477049     0.679439088109393     1.595047711919803
    H               -1.949141223477050     2.706439088109393     0.989047711919803
    H               -3.547971223477050     2.833956088109392     0.238726811919803
    H               -2.072731223477050     2.445206088109392    -0.744299588080197

}
e, wfn = energy('scf', return_wfn=True)
gdma(wfn)
dmavals = variable('DMA DISTRIBUTED MULTIPOLES')
charges = np.array(dmavals)
print(charges)
np.save('SSI-059PHE-127ILE-1-dimer.npy', np.array(charges))--------------------------------------------------------------------------

*** tstart() called on ds3
*** at Tue Apr 28 11:15:14 2020

   => Loading Basis Set <=

    Name: CC-PVDZ
    Role: ORBITAL
    Keyword: BASIS
    atoms 1-7, 16-17  entry C          line   138 file /theoryfs2/ds/metcalf/miniconda2/envs/tf2gpu/share/psi4/basis/cc-pvdz.gbs
    atoms 8-15, 18-23 entry H          line    22 file /theoryfs2/ds/metcalf/miniconda2/envs/tf2gpu/share/psi4/basis/cc-pvdz.gbs

         ---------------------------------------------------------
                                   SCF
               by Justin Turney, Rob Parrish, Andy Simmonett
                          and Daniel G. A. Smith
                              RHF Reference
                        1 Threads,    500 MiB Core
         ---------------------------------------------------------

  ==> Geometry <==

    Molecular point group: c1
    Full point group: C1

    Geometry (in Angstrom), charge = 0, multiplicity = 1:

       Center              X                  Y                   Z               Mass
    ------------   -----------------  -----------------  -----------------  -----------------
         C            1.823858776523     0.881439088109    -1.916952288080    12.000000000000
         C           -0.332141223477    -1.674560911891    -0.061952288080    12.000000000000
         C            0.167858776523    -1.554560911891     1.254047711920    12.000000000000
         C            0.197858776523    -0.881560911891    -1.094952288080    12.000000000000
         C            1.231858776523     0.024439088109    -0.828952288080    12.000000000000
         C            1.197858776523    -0.652560911891     1.522047711920    12.000000000000
         C            1.729858776523     0.128439088109     0.470047711920    12.000000000000
         H           -1.166141223477    -2.330560911891    -0.253952288080     1.007825032230
         H           -0.255141223477    -2.149560911891     2.053047711920     1.007825032230
         H           -0.217141223477    -0.958560911891    -2.089952288080     1.007825032230
         H            1.593858776523    -0.564560911891     2.524047711920     1.007825032230
         H            2.256858776523     1.775439088109    -1.464952288080     1.007825032230
         H            1.025858776523     1.208439088109    -2.584952288080     1.007825032230
         H            2.523858776523     0.829439088109     0.686047711920     1.007825032230
         H            2.600298776523     0.353977088109    -2.490468288080     1.007825032230
         C           -2.782141223477     0.811439088109     0.548047711920    12.000000000000
         C           -2.593141223477     2.288439088109     0.212047711920    12.000000000000
         H           -3.542141223477     0.358439088109    -0.089952288080     1.007825032230
         H           -1.836141223477     0.302439088109     0.401047711920     1.007825032230
         H           -3.055141223477     0.679439088109     1.595047711920     1.007825032230
         H           -1.949141223477     2.706439088109     0.989047711920     1.007825032230
         H           -3.547971223477     2.833956088109     0.238726811920     1.007825032230
         H           -2.072731223477     2.445206088109    -0.744299588080     1.007825032230

  Running in c1 symmetry.

  Rotational constants: A =      0.05628  B =      0.03375  C =      0.02728 [cm^-1]
  Rotational constants: A =   1687.34186  B =   1011.75867  C =    817.89583 [MHz]
  Nuclear repulsion =  416.230904300973464

  Charge       = 0
  Multiplicity = 1
  Electrons    = 68
  Nalpha       = 34
  Nbeta        = 34

  ==> Algorithm <==

  SCF Algorithm Type is PK.
  DIIS enabled.
  MOM disabled.
  Fractional occupation disabled.
  Guess Type is SAD.
  Energy threshold   = 1.00e-06
  Density threshold  = 1.00e-10
  Integral threshold = 0.00e+00

  ==> Primary Basis <==

  Basis Set: CC-PVDZ
    Blend: CC-PVDZ
    Number of shells: 96
    Number of basis function: 196
    Number of Cartesian functions: 205
    Spherical Harmonics?: true
    Max angular momentum: 2

  ==> Pre-Iterations <==

   -------------------------------------------------------
    Irrep   Nso     Nmo     Nalpha   Nbeta   Ndocc  Nsocc
   -------------------------------------------------------
     A        196     196       0       0       0       0
   -------------------------------------------------------
    Total     196     196      34      34      34       0
   -------------------------------------------------------

  ==> Integral Setup <==

  Using integral reordering PK algorithm.
  Sizing the integral batches needed.
  Building batch lookup table.
   Calculation information:
      Number of atoms:                  23
      Number of AO shells:              96
      Number of primitives:            268
      Number of atomic orbitals:       205
      Number of basis functions:       196

      Integral cutoff                 1.00e-12
      Number of threads:                 1

	Batch   1 pq = [       0,    9405] index = [             0,44231715] size =     44231715
	Batch   2 pq = [    9405,   13301] index = [      44231715,88464951] size =     44233236
	Batch   3 pq = [   13301,   16290] index = [      88464951,132690195] size =     44225244
	Batch   4 pq = [   16290,   18810] index = [     132690195,176917455] size =     44227260
	Batch   5 pq = [   18810,   19306] index = [     176917455,186370471] size =      9453016
  Task number: 17
  Buffer size: 11059200
  Buffer per thread: 2
  We computed 10561057 shell quartets total.
  Whereas there are 10841496 unique shell quartets.

  ==> DiskJK: Disk-Based J/K Matrices <==

    J tasked:                  Yes
    K tasked:                  Yes
    wK tasked:                  No
    Memory [MiB]:              375
    Schwarz Cutoff:          1E-12

    OpenMP threads:              1

  Minimum eigenvalue in the overlap matrix is 3.3260185574E-04.
  Using Symmetric Orthogonalization.

  SCF Guess: Superposition of Atomic Densities via on-the-fly atomic UHF.

  ==> Iterations <==

                        Total Energy        Delta E     RMS |[F,P]|

   @RHF iter SAD:  -347.76854479100643   -3.47769e+02   0.00000e+00
   @RHF iter   1:  -348.76816142493254   -9.99617e-01   2.86080e-03 DIIS
   @RHF iter   2:  -348.95706170320943   -1.88900e-01   1.18026e-03 DIIS
   @RHF iter   3:  -348.98630647601749   -2.92448e-02   2.59642e-04 DIIS
   @RHF iter   4:  -348.98875893482966   -2.45246e-03   6.19009e-05 DIIS
   @RHF iter   5:  -348.98885294090979   -9.40061e-05   2.07954e-05 DIIS
   @RHF iter   6:  -348.98886367636516   -1.07355e-05   5.04591e-06 DIIS
   @RHF iter   7:  -348.98886446388451   -7.87519e-07   1.27668e-06 DIIS
   @RHF iter   8:  -348.98886453882841   -7.49439e-08   4.24280e-07 DIIS
   @RHF iter   9:  -348.98886455606737   -1.72390e-08   1.99891e-07 DIIS
   @RHF iter  10:  -348.98886456098410   -4.91673e-09   9.80729e-08 DIIS
   @RHF iter  11:  -348.98886456227569   -1.29160e-09   3.08695e-08 DIIS
   @RHF iter  12:  -348.98886456237028   -9.45874e-11   1.38856e-08 DIIS
   @RHF iter  13:  -348.98886456238006   -9.77707e-12   4.42527e-09 DIIS
   @RHF iter  14:  -348.98886456238085   -7.95808e-13   1.43571e-09 DIIS
   @RHF iter  15:  -348.98886456238284   -1.98952e-12   5.79192e-10 DIIS
   @RHF iter  16:  -348.98886456237989    2.95586e-12   2.76071e-10 DIIS
   @RHF iter  17:  -348.98886456238040   -5.11591e-13   9.46338e-11 DIIS
  Energy and wave function converged.

  ==> Post-Iterations <==

    Orbital Energies [Eh]
    ---------------------

    Doubly Occupied:

       1A    -11.243974     2A    -11.240803     3A    -11.240673
       4A    -11.235905     5A    -11.235167     6A    -11.234590
       7A    -11.231124     8A    -11.211242     9A    -11.203286
      10A     -1.148182    11A     -1.043849    12A     -1.009751
      13A     -1.006946    14A     -0.930960    15A     -0.828709
      16A     -0.825509    17A     -0.794040    18A     -0.689076
      19A     -0.634229    20A     -0.628584    21A     -0.590975
      22A     -0.586784    23A     -0.581894    24A     -0.577928
      25A     -0.563082    26A     -0.535164    27A     -0.497915
      28A     -0.490660    29A     -0.487029    30A     -0.482080
      31A     -0.472761    32A     -0.465698    33A     -0.329721
      34A     -0.322737

    Virtual:

      35A      0.129858    36A      0.137960    37A      0.173739
      38A      0.195738    39A      0.204793    40A      0.215886
      41A      0.240813    42A      0.242186    43A      0.256031
      44A      0.260478    45A      0.266041    46A      0.271335
      47A      0.289284    48A      0.290690    49A      0.303132
      50A      0.330608    51A      0.358779    52A      0.372995
      53A      0.406611    54A      0.445511    55A      0.457181
      56A      0.475295    57A      0.487330    58A      0.560304
      59A      0.584876    60A      0.588382    61A      0.598276
      62A      0.617827    63A      0.641661    64A      0.664835
      65A      0.673488    66A      0.684400    67A      0.688169
      68A      0.698202    69A      0.734549    70A      0.738963
      71A      0.740212    72A      0.752596    73A      0.757223
      74A      0.773319    75A      0.801113    76A      0.832015
      77A      0.844636    78A      0.859669    79A      0.862766
      80A      0.870197    81A      0.876208    82A      0.889174
      83A      0.892436    84A      0.896029    85A      0.900791
      86A      0.913318    87A      0.915995    88A      0.922812
      89A      0.929001    90A      0.937168    91A      0.946383
      92A      0.968428    93A      0.979237    94A      1.000163
      95A      1.039159    96A      1.095899    97A      1.118554
      98A      1.127358    99A      1.137450   100A      1.141296
     101A      1.149438   102A      1.167575   103A      1.188557
     104A      1.227766   105A      1.234737   106A      1.245210
     107A      1.256444   108A      1.294338   109A      1.298930
     110A      1.307697   111A      1.321128   112A      1.361049
     113A      1.431469   114A      1.477108   115A      1.485757
     116A      1.508452   117A      1.514063   118A      1.554141
     119A      1.595334   120A      1.627670   121A      1.673832
     122A      1.690501   123A      1.695067   124A      1.707550
     125A      1.727080   126A      1.748911   127A      1.761556
     128A      1.786914   129A      1.821469   130A      1.848891
     131A      1.866667   132A      1.873307   133A      1.882147
     134A      1.887624   135A      1.895773   136A      1.909363
     137A      1.910843   138A      1.928829   139A      1.933689
     140A      1.942610   141A      1.947580   142A      1.951764
     143A      1.956440   144A      1.969707   145A      1.980133
     146A      1.992023   147A      1.996053   148A      2.004396
     149A      2.032136   150A      2.058425   151A      2.072415
     152A      2.105121   153A      2.113359   154A      2.124334
     155A      2.142717   156A      2.144817   157A      2.158272
     158A      2.169679   159A      2.180645   160A      2.251435
     161A      2.267622   162A      2.286303   163A      2.291792
     164A      2.308325   165A      2.311788   166A      2.322951
     167A      2.328664   168A      2.453720   169A      2.463476
     170A      2.471276   171A      2.479055   172A      2.488889
     173A      2.528940   174A      2.565789   175A      2.603995
     176A      2.617428   177A      2.734802   178A      2.741268
     179A      2.759813   180A      2.765254   181A      2.776140
     182A      2.800669   183A      2.820048   184A      2.841885
     185A      2.862850   186A      2.873136   187A      2.886995
     188A      2.961023   189A      2.962021   190A      2.993623
     191A      3.001520   192A      3.039284   193A      3.135948
     194A      3.177402   195A      3.273689   196A      3.925352

    Final Occupation by Irrep:
              A
    DOCC [    34 ]

  @RHF Final Energy:  -348.98886456238040

   => Energetics <=

    Nuclear Repulsion Energy =            416.2309043009734637
    One-Electron Energy =               -1295.2374826126265361
    Two-Electron Energy =                 530.0177137492727297
    Total Energy =                       -348.9888645623803995

Computation Completed

Properties will be evaluated at   0.000000,   0.000000,   0.000000 [a0]

Properties computed using the SCF density matrix

  Nuclear Dipole Moment: [e a0]
     X:    -7.1632      Y:     7.0216      Z:    -1.1545

  Electronic Dipole Moment: [e a0]
     X:     7.3053      Y:    -6.9984      Z:     1.0840

  Dipole Moment: [e a0]
     X:     0.1421      Y:     0.0232      Z:    -0.0705     Total:     0.1603

  Dipole Moment: [D]
     X:     0.3613      Y:     0.0590      Z:    -0.1792     Total:     0.4076

*** tstop() called on ds3 at Tue Apr 28 11:17:23 2020
Module time:
	user time   =      77.04 seconds =       1.28 minutes
	system time =      27.55 seconds =       0.46 minutes
	total time  =        129 seconds =       2.15 minutes
Total time:
	user time   =      77.04 seconds =       1.28 minutes
	system time =      27.55 seconds =       0.46 minutes
	total time  =        129 seconds =       2.15 minutes
                                     G D M A

                                 by Anthony Stone

                           version 2.2.06, 22 June 2011

               Distributed Multipoles from Gaussian wavefunctions

Starting at 11:17:23 on 28 Apr 2020

Using SCF density matrix from file ./SSI/SSI-059PHE-127ILE-1-dimer.test.3381.fchk

                         Distributed Multipole Analysis

Standard DMA

Positions and radii in angstrom
Multipole moments in atomic units, ea_0^k for rank k

C          x =  1.823859  y =  0.881439  z = -1.916952 angstrom
           Maximum rank =  0   Radius =  0.650 angstrom
                   Q00  =  -0.200442

C          x = -0.332141  y = -1.674561  z = -0.061952 angstrom
           Maximum rank =  0   Radius =  0.650 angstrom
                   Q00  =  -0.066578

C          x =  0.167859  y = -1.554561  z =  1.254048 angstrom
           Maximum rank =  0   Radius =  0.650 angstrom
                   Q00  =  -0.079156

C          x =  0.197859  y = -0.881561  z = -1.094952 angstrom
           Maximum rank =  0   Radius =  0.650 angstrom
                   Q00  =  -0.093592

C          x =  1.231859  y =  0.024439  z = -0.828952 angstrom
           Maximum rank =  0   Radius =  0.650 angstrom
                   Q00  =  -0.101553

C          x =  1.197859  y = -0.652561  z =  1.522048 angstrom
           Maximum rank =  0   Radius =  0.650 angstrom
                   Q00  =  -0.078258

C          x =  1.729859  y =  0.128439  z =  0.470048 angstrom
           Maximum rank =  0   Radius =  0.650 angstrom
                   Q00  =  -0.002054

H          x = -1.166141  y = -2.330561  z = -0.253952 angstrom
           Maximum rank =  0   Radius =  0.325 angstrom
                   Q00  =   0.069660

H          x = -0.255141  y = -2.149561  z =  2.053048 angstrom
           Maximum rank =  0   Radius =  0.325 angstrom
                   Q00  =   0.065607

H          x = -0.217141  y = -0.958561  z = -2.089952 angstrom
           Maximum rank =  0   Radius =  0.325 angstrom
                   Q00  =   0.060318

H          x =  1.593859  y = -0.564561  z =  2.524048 angstrom
           Maximum rank =  0   Radius =  0.325 angstrom
                   Q00  =   0.069192

H          x =  2.256859  y =  1.775439  z = -1.464952 angstrom
           Maximum rank =  0   Radius =  0.325 angstrom
                   Q00  =   0.097628

H          x =  1.025859  y =  1.208439  z = -2.584952 angstrom
           Maximum rank =  0   Radius =  0.325 angstrom
                   Q00  =   0.098886

H          x =  2.523859  y =  0.829439  z =  0.686048 angstrom
           Maximum rank =  0   Radius =  0.325 angstrom
                   Q00  =   0.059961

H          x =  2.600299  y =  0.353977  z = -2.490468 angstrom
           Maximum rank =  0   Radius =  0.325 angstrom
                   Q00  =   0.106153

C          x = -2.782141  y =  0.811439  z =  0.548048 angstrom
           Maximum rank =  0   Radius =  0.650 angstrom
                   Q00  =  -0.241696

C          x = -2.593141  y =  2.288439  z =  0.212048 angstrom
           Maximum rank =  0   Radius =  0.650 angstrom
                   Q00  =  -0.236121

H          x = -3.542141  y =  0.358439  z = -0.089952 angstrom
           Maximum rank =  0   Radius =  0.325 angstrom
                   Q00  =   0.068699

H          x = -1.836141  y =  0.302439  z =  0.401048 angstrom
           Maximum rank =  0   Radius =  0.325 angstrom
                   Q00  =   0.105512

H          x = -3.055141  y =  0.679439  z =  1.595048 angstrom
           Maximum rank =  0   Radius =  0.325 angstrom
                   Q00  =   0.073621

H          x = -1.949141  y =  2.706439  z =  0.989048 angstrom
           Maximum rank =  0   Radius =  0.325 angstrom
                   Q00  =   0.073247

H          x = -3.547971  y =  2.833956  z =  0.238727 angstrom
           Maximum rank =  0   Radius =  0.325 angstrom
                   Q00  =   0.073949

H          x = -2.072731  y =  2.445206  z = -0.744300 angstrom
           Maximum rank =  0   Radius =  0.325 angstrom
                   Q00  =   0.077018

Total multipoles referred to origin at
           x =   0.000000,  y =    0.000000,  z =    0.000000 angstrom
                   Q00  =  -0.000000

Finished at 11:17:23 on 28 Apr 2020

  DMA results are available in the Python driver through the
	  variable('DMA DISTRIBUTED MULTIPOLES')
  and
	  variable('DMA TOTAL MULTIPOLES')
  commands.

    Psi4 stopped on: Tuesday, 28 April 2020 11:17AM
    Psi4 wall time for execution: 0:02:09.37

*** Psi4 exiting successfully. Buy a developer a beer!
