                               Psi4 1.3.2 release

  ==> Input File <==

--------------------------------------------------------------------------
import numpy as np
set {scf_type pk
basis cc-pvdz
d_convergence 10
gdma_switch   0
gdma_limit    0
gdma_origin   [ 0.0,  0.0,  0.0 ]
}
molecule test {
    units Angstrom
    0 1
    --
    0 1
    C               -2.029534232786862     1.269099974208946    -0.873577622492251
    C               -1.114534232786862     2.358099974208947    -1.377577622492251
    H               -2.725534232786862     0.949099974208946    -1.645577622492251
    H               -1.437534232786862     0.405099974208946    -0.588577622492251
    H               -2.577534232786862     1.606099974208946     0.001422377507749
    H               -0.547534232786862     1.965099974208946    -2.222577622492251
    H               -0.408534232786862     2.573099974208946    -0.575577622492251
    H               -1.619674232786862     3.283602974208946    -1.691065622492251
    C                0.933465767213138    -0.838900025791054     0.351422377507749
    C                0.219465767213138    -0.936900025791054     1.684422377507749
    C                2.056465767213138    -1.882900025791054     0.246422377507749
    H                0.212465767213138    -1.064900025791054    -0.434577622492251
    H                1.297465767213138     0.172099974208946     0.193422377507749
    H                0.075465767213138    -1.986900025791054     1.948422377507749
    H               -0.772534232786862    -0.492900025791054     1.584422377507749
    H                2.886465767213138    -1.857900025791054     0.922422377507749
    H                1.589465767213138    -2.860900025791054     0.399422377507749
    H                0.749675767213138    -0.420355025791054     2.498089177507749
    H                2.500015767213138    -1.895281025791054    -0.760113622492251

}
e, wfn = energy('scf', return_wfn=True)
gdma(wfn)
dmavals = variable('DMA DISTRIBUTED MULTIPOLES')
charges = np.array(dmavals)
print(charges)
np.save('SSI-007ILE-015LYS-1-dimer.npy', np.array(charges))--------------------------------------------------------------------------

*** tstart() called on ds3
*** at Tue Apr 28 03:29:15 2020

   => Loading Basis Set <=

    Name: CC-PVDZ
    Role: ORBITAL
    Keyword: BASIS
    atoms 1-2, 9-11  entry C          line   138 file /theoryfs2/ds/metcalf/miniconda2/envs/tf2gpu/share/psi4/basis/cc-pvdz.gbs
    atoms 3-8, 12-19 entry H          line    22 file /theoryfs2/ds/metcalf/miniconda2/envs/tf2gpu/share/psi4/basis/cc-pvdz.gbs

         ---------------------------------------------------------
                                   SCF
               by Justin Turney, Rob Parrish, Andy Simmonett
                          and Daniel G. A. Smith
                              RHF Reference
                        1 Threads,    500 MiB Core
         ---------------------------------------------------------

  ==> Geometry <==

    Molecular point group: c1
    Full point group: C1

    Geometry (in Angstrom), charge = 0, multiplicity = 1:

       Center              X                  Y                   Z               Mass
    ------------   -----------------  -----------------  -----------------  -----------------
         C           -2.029534232787     1.269099974209    -0.873577622492    12.000000000000
         C           -1.114534232787     2.358099974209    -1.377577622492    12.000000000000
         H           -2.725534232787     0.949099974209    -1.645577622492     1.007825032230
         H           -1.437534232787     0.405099974209    -0.588577622492     1.007825032230
         H           -2.577534232787     1.606099974209     0.001422377508     1.007825032230
         H           -0.547534232787     1.965099974209    -2.222577622492     1.007825032230
         H           -0.408534232787     2.573099974209    -0.575577622492     1.007825032230
         H           -1.619674232787     3.283602974209    -1.691065622492     1.007825032230
         C            0.933465767213    -0.838900025791     0.351422377508    12.000000000000
         C            0.219465767213    -0.936900025791     1.684422377508    12.000000000000
         C            2.056465767213    -1.882900025791     0.246422377508    12.000000000000
         H            0.212465767213    -1.064900025791    -0.434577622492     1.007825032230
         H            1.297465767213     0.172099974209     0.193422377508     1.007825032230
         H            0.075465767213    -1.986900025791     1.948422377508     1.007825032230
         H           -0.772534232787    -0.492900025791     1.584422377508     1.007825032230
         H            2.886465767213    -1.857900025791     0.922422377508     1.007825032230
         H            1.589465767213    -2.860900025791     0.399422377508     1.007825032230
         H            0.749675767213    -0.420355025791     2.498089177508     1.007825032230
         H            2.500015767213    -1.895281025791    -0.760113622492     1.007825032230

  Running in c1 symmetry.

  Rotational constants: A =      0.23079  B =      0.04240  C =      0.03868 [cm^-1]
  Rotational constants: A =   6918.81458  B =   1271.21014  C =   1159.70250 [MHz]
  Nuclear repulsion =  180.036432805565056

  Charge       = 0
  Multiplicity = 1
  Electrons    = 44
  Nalpha       = 22
  Nbeta        = 22

  ==> Algorithm <==

  SCF Algorithm Type is PK.
  DIIS enabled.
  MOM disabled.
  Fractional occupation disabled.
  Guess Type is SAD.
  Energy threshold   = 1.00e-06
  Density threshold  = 1.00e-10
  Integral threshold = 0.00e+00

  ==> Primary Basis <==

  Basis Set: CC-PVDZ
    Blend: CC-PVDZ
    Number of shells: 72
    Number of basis function: 140
    Number of Cartesian functions: 145
    Spherical Harmonics?: true
    Max angular momentum: 2

  ==> Pre-Iterations <==

   -------------------------------------------------------
    Irrep   Nso     Nmo     Nalpha   Nbeta   Ndocc  Nsocc
   -------------------------------------------------------
     A        140     140       0       0       0       0
   -------------------------------------------------------
    Total     140     140      22      22      22       0
   -------------------------------------------------------

  ==> Integral Setup <==

  Using integral reordering PK algorithm.
  Sizing the integral batches needed.
  Building batch lookup table.
   Calculation information:
      Number of atoms:                  19
      Number of AO shells:              72
      Number of primitives:            180
      Number of atomic orbitals:       145
      Number of basis functions:       140

      Integral cutoff                 1.00e-12
      Number of threads:                 1

	Batch   1 pq = [       0,    9405] index = [             0,44231715] size =     44231715
	Batch   2 pq = [    9405,    9870] index = [      44231715,48713385] size =      4481670
  Task number: 5
  Buffer size: 11059200
  Buffer per thread: 2
  We computed 2938185 shell quartets total.
  Whereas there are 3454506 unique shell quartets.

  ==> DiskJK: Disk-Based J/K Matrices <==

    J tasked:                  Yes
    K tasked:                  Yes
    wK tasked:                  No
    Memory [MiB]:              375
    Schwarz Cutoff:          1E-12

    OpenMP threads:              1

  Minimum eigenvalue in the overlap matrix is 5.0321102089E-03.
  Using Symmetric Orthogonalization.

  SCF Guess: Superposition of Atomic Densities via on-the-fly atomic UHF.

  ==> Iterations <==

                        Total Energy        Delta E     RMS |[F,P]|

   @RHF iter SAD:  -196.43697152573665   -1.96437e+02   0.00000e+00
   @RHF iter   1:  -197.30470393909391   -8.67732e-01   3.83943e-03 DIIS
   @RHF iter   2:  -197.46637273458202   -1.61669e-01   1.66685e-03 DIIS
   @RHF iter   3:  -197.49557539510167   -2.92027e-02   3.27302e-04 DIIS
   @RHF iter   4:  -197.49781787522602   -2.24248e-03   4.85156e-05 DIIS
   @RHF iter   5:  -197.49785641092896   -3.85357e-05   1.50005e-05 DIIS
   @RHF iter   6:  -197.49785976125824   -3.35033e-06   2.31106e-06 DIIS
   @RHF iter   7:  -197.49785985753101   -9.62728e-08   4.18193e-07 DIIS
   @RHF iter   8:  -197.49785986066644   -3.13543e-09   1.02302e-07 DIIS
   @RHF iter   9:  -197.49785986083936   -1.72918e-10   2.84264e-08 DIIS
   @RHF iter  10:  -197.49785986085709   -1.77351e-11   6.11086e-09 DIIS
   @RHF iter  11:  -197.49785986085840   -1.30740e-12   1.27170e-09 DIIS
   @RHF iter  12:  -197.49785986085655    1.84741e-12   2.70222e-10 DIIS
   @RHF iter  13:  -197.49785986085752   -9.66338e-13   4.41333e-11 DIIS
  Energy and wave function converged.

  ==> Post-Iterations <==

    Orbital Energies [Eh]
    ---------------------

    Doubly Occupied:

       1A    -11.222415     2A    -11.216834     3A    -11.215396
       4A    -11.214835     5A    -11.213749     6A     -1.056079
       7A     -1.023870     8A     -0.925414     9A     -0.837207
      10A     -0.803172    11A     -0.627317    12A     -0.605883
      13A     -0.601294    14A     -0.589484    15A     -0.552520
      16A     -0.526793    17A     -0.507279    18A     -0.484598
      19A     -0.483638    20A     -0.476797    21A     -0.469926
      22A     -0.465758

    Virtual:

      23A      0.169555    24A      0.197663    25A      0.217305
      26A      0.221296    27A      0.239963    28A      0.244308
      29A      0.256398    30A      0.273310    31A      0.277065
      32A      0.277835    33A      0.294838    34A      0.312396
      35A      0.326045    36A      0.348947    37A      0.385758
      38A      0.404768    39A      0.438278    40A      0.567355
      41A      0.584714    42A      0.597962    43A      0.602788
      44A      0.605615    45A      0.622108    46A      0.628405
      47A      0.687165    48A      0.718687    49A      0.742384
      50A      0.793926    51A      0.825100    52A      0.853100
      53A      0.863796    54A      0.880352    55A      0.885294
      56A      0.891734    57A      0.894637    58A      0.899800
      59A      0.907936    60A      0.914359    61A      0.918134
      62A      0.921424    63A      0.939467    64A      0.940019
      65A      0.959830    66A      0.978838    67A      0.990685
      68A      1.031572    69A      1.117492    70A      1.132146
      71A      1.139301    72A      1.145612    73A      1.207480
      74A      1.303908    75A      1.388259    76A      1.427108
      77A      1.451272    78A      1.473978    79A      1.492851
      80A      1.566532    81A      1.584083    82A      1.630430
      83A      1.665244    84A      1.687210    85A      1.703356
      86A      1.713732    87A      1.725896    88A      1.827659
      89A      1.856426    90A      1.872683    91A      1.875669
      92A      1.896610    93A      1.899234    94A      1.916061
      95A      1.929320    96A      1.938516    97A      1.956426
      98A      1.958254    99A      1.964259   100A      1.970402
     101A      1.977338   102A      1.982725   103A      1.988663
     104A      2.005677   105A      2.022432   106A      2.049416
     107A      2.083816   108A      2.103994   109A      2.117460
     110A      2.134857   111A      2.151008   112A      2.282849
     113A      2.314175   114A      2.319668   115A      2.330613
     116A      2.359124   117A      2.388990   118A      2.461616
     119A      2.465178   120A      2.483303   121A      2.533054
     122A      2.557552   123A      2.574472   124A      2.593336
     125A      2.616355   126A      2.622282   127A      2.762309
     128A      2.772578   129A      2.781191   130A      2.794615
     131A      2.812707   132A      2.836222   133A      2.864889
     134A      2.886348   135A      2.908647   136A      2.953127
     137A      2.967155   138A      2.985562   139A      3.036733
     140A      3.063669

    Final Occupation by Irrep:
              A
    DOCC [    22 ]

  @RHF Final Energy:  -197.49785986085752

   => Energetics <=

    Nuclear Repulsion Energy =            180.0364328055650560
    One-Electron Energy =                -620.8280673667209157
    Two-Electron Energy =                 243.2937747002983713
    Total Energy =                       -197.4978598608575169

Computation Completed

Properties will be evaluated at   0.000000,   0.000000,   0.000000 [a0]

Properties computed using the SCF density matrix

  Nuclear Dipole Moment: [e a0]
     X:    -0.7292      Y:     0.3516      Z:    -0.3473

  Electronic Dipole Moment: [e a0]
     X:     0.7312      Y:    -0.3612      Z:     0.3355

  Dipole Moment: [e a0]
     X:     0.0020      Y:    -0.0096      Z:    -0.0117     Total:     0.0153

  Dipole Moment: [D]
     X:     0.0051      Y:    -0.0243      Z:    -0.0298     Total:     0.0388

*** tstop() called on ds3 at Tue Apr 28 03:29:39 2020
Module time:
	user time   =      14.81 seconds =       0.25 minutes
	system time =       5.84 seconds =       0.10 minutes
	total time  =         24 seconds =       0.40 minutes
Total time:
	user time   =      14.81 seconds =       0.25 minutes
	system time =       5.84 seconds =       0.10 minutes
	total time  =         24 seconds =       0.40 minutes
                                     G D M A

                                 by Anthony Stone

                           version 2.2.06, 22 June 2011

               Distributed Multipoles from Gaussian wavefunctions

Starting at 3:29:39 on 28 Apr 2020

Using SCF density matrix from file ./SSI/SSI-007ILE-015LYS-1-dimer.test.14288.fchk

                         Distributed Multipole Analysis

Standard DMA

Positions and radii in angstrom
Multipole moments in atomic units, ea_0^k for rank k

C          x = -2.029534  y =  1.269100  z = -0.873578 angstrom
           Maximum rank =  0   Radius =  0.650 angstrom
                   Q00  =  -0.232826

C          x = -1.114534  y =  2.358100  z = -1.377578 angstrom
           Maximum rank =  0   Radius =  0.650 angstrom
                   Q00  =  -0.235041

H          x = -2.725534  y =  0.949100  z = -1.645578 angstrom
           Maximum rank =  0   Radius =  0.325 angstrom
                   Q00  =   0.076546

H          x = -1.437534  y =  0.405100  z = -0.588578 angstrom
           Maximum rank =  0   Radius =  0.325 angstrom
                   Q00  =   0.080124

H          x = -2.577534  y =  1.606100  z =  0.001422 angstrom
           Maximum rank =  0   Radius =  0.325 angstrom
                   Q00  =   0.076797

H          x = -0.547534  y =  1.965100  z = -2.222578 angstrom
           Maximum rank =  0   Radius =  0.325 angstrom
                   Q00  =   0.074739

H          x = -0.408534  y =  2.573100  z = -0.575578 angstrom
           Maximum rank =  0   Radius =  0.325 angstrom
                   Q00  =   0.074344

H          x = -1.619674  y =  3.283603  z = -1.691066 angstrom
           Maximum rank =  0   Radius =  0.325 angstrom
                   Q00  =   0.082204

C          x =  0.933466  y = -0.838900  z =  0.351422 angstrom
           Maximum rank =  0   Radius =  0.650 angstrom
                   Q00  =  -0.091672

C          x =  0.219466  y = -0.936900  z =  1.684422 angstrom
           Maximum rank =  0   Radius =  0.650 angstrom
                   Q00  =  -0.232574

C          x =  2.056466  y = -1.882900  z =  0.246422 angstrom
           Maximum rank =  0   Radius =  0.650 angstrom
                   Q00  =  -0.254750

H          x =  0.212466  y = -1.064900  z = -0.434578 angstrom
           Maximum rank =  0   Radius =  0.325 angstrom
                   Q00  =   0.049775

H          x =  1.297466  y =  0.172100  z =  0.193422 angstrom
           Maximum rank =  0   Radius =  0.325 angstrom
                   Q00  =   0.055853

H          x =  0.075466  y = -1.986900  z =  1.948422 angstrom
           Maximum rank =  0   Radius =  0.325 angstrom
                   Q00  =   0.073605

H          x = -0.772534  y = -0.492900  z =  1.584422 angstrom
           Maximum rank =  0   Radius =  0.325 angstrom
                   Q00  =   0.084321

H          x =  2.886466  y = -1.857900  z =  0.922422 angstrom
           Maximum rank =  0   Radius =  0.325 angstrom
                   Q00  =   0.086538

H          x =  1.589466  y = -2.860900  z =  0.399422 angstrom
           Maximum rank =  0   Radius =  0.325 angstrom
                   Q00  =   0.070781

H          x =  0.749676  y = -0.420355  z =  2.498089 angstrom
           Maximum rank =  0   Radius =  0.325 angstrom
                   Q00  =   0.081251

H          x =  2.500016  y = -1.895281  z = -0.760114 angstrom
           Maximum rank =  0   Radius =  0.325 angstrom
                   Q00  =   0.079987

Total multipoles referred to origin at
           x =   0.000000,  y =    0.000000,  z =    0.000000 angstrom
                   Q00  =  -0.000000

Finished at 3:29:39 on 28 Apr 2020

  DMA results are available in the Python driver through the
	  variable('DMA DISTRIBUTED MULTIPOLES')
  and
	  variable('DMA TOTAL MULTIPOLES')
  commands.

    Psi4 stopped on: Tuesday, 28 April 2020 03:29AM
    Psi4 wall time for execution: 0:00:24.11

*** Psi4 exiting successfully. Buy a developer a beer!
