                               Psi4 1.3.2 release

  ==> Input File <==

--------------------------------------------------------------------------
import numpy as np
set {scf_type pk
basis cc-pvdz
d_convergence 10
gdma_switch   0
gdma_limit    0
gdma_origin   [ 0.0,  0.0,  0.0 ]
}
molecule test {
    units Angstrom
    0 1
    --
    0 1
    C               -0.039439146076785     0.782407339324391    -2.164768723136097
    C                1.003560853923215     0.852407339324391    -3.256768723136096
    C                0.343560853923215     1.484407339324390    -0.900768723136097
    C                1.320560853923215     0.912407339324391    -0.135768723136097
    C               -0.226439146076785     2.699407339324390    -0.514768723136097
    C                1.751560853923215     1.504407339324390     1.044231276863903
    C                0.148560853923215     3.301407339324391     0.696231276863903
    C                1.166560853923215     2.688407339324391     1.441231276863904
    O                1.587560853923215     3.257407339324391     2.600231276863903
    H               -0.967439146076785     1.215407339324390    -2.531768723136097
    H               -0.244439146076785    -0.263592660675609    -1.943768723136096
    H                1.869560853923215     0.290407339324391    -2.919768723136097
    H                1.777560853923215    -0.013592660675609    -0.453768723136097
    H               -0.988439146076785     3.160407339324391    -1.129768723136097
    H                2.521560853923215     1.040407339324391     1.640231276863903
    H               -0.310439146076785     4.218407339324390     1.032231276863903
    H                2.240560853923215     2.711407339324390     3.053231276863904
    H                1.270390853923215     1.906367339324391    -3.424008723136097
    H                0.601200853923215     0.395137339324391    -4.172748723136096
    C               -0.978439146076785    -3.623592660675610    -2.037768723136097
    C                0.079560853923215    -2.329592660675609    -0.172768723136097
    C               -1.052439146076785    -2.980592660675609    -0.700768723136097
    C                0.044560853923215    -1.741592660675609     1.095231276863903
    C               -1.137439146076785    -1.786592660675610     1.849231276863903
    C               -2.224439146076785    -3.012592660675609     0.035231276863903
    C               -2.257439146076785    -2.461592660675610     1.338231276863903
    H                0.996560853923215    -2.295592660675609    -0.742768723136096
    H                0.925560853923215    -1.262592660675609     1.499231276863903
    H               -0.418439146076785    -2.960592660675609    -2.694768723136096
    H               -1.988439146076785    -3.692592660675610    -2.436768723136097
    H               -1.173439146076785    -1.336592660675610     2.832231276863903
    H               -3.109439146076785    -3.483592660675610    -0.367768723136097
    H               -3.166439146076784    -2.512592660675609     1.922231276863903
    H               -0.532409146076785    -4.629102660675610    -2.037068723136097

}
e, wfn = energy('scf', return_wfn=True)
gdma(wfn)
dmavals = variable('DMA DISTRIBUTED MULTIPOLES')
charges = np.array(dmavals)
print(charges)
np.save('SSI-185TYR-220PHE-1-dimer.npy', np.array(charges))--------------------------------------------------------------------------

*** tstart() called on ds3
*** at Tue Apr 28 15:00:36 2020

   => Loading Basis Set <=

    Name: CC-PVDZ
    Role: ORBITAL
    Keyword: BASIS
    atoms 1-8, 20-26   entry C          line   138 file /theoryfs2/ds/metcalf/miniconda2/envs/tf2gpu/share/psi4/basis/cc-pvdz.gbs
    atoms 9            entry O          line   198 file /theoryfs2/ds/metcalf/miniconda2/envs/tf2gpu/share/psi4/basis/cc-pvdz.gbs
    atoms 10-19, 27-34 entry H          line    22 file /theoryfs2/ds/metcalf/miniconda2/envs/tf2gpu/share/psi4/basis/cc-pvdz.gbs

         ---------------------------------------------------------
                                   SCF
               by Justin Turney, Rob Parrish, Andy Simmonett
                          and Daniel G. A. Smith
                              RHF Reference
                        1 Threads,    500 MiB Core
         ---------------------------------------------------------

  ==> Geometry <==

    Molecular point group: c1
    Full point group: C1

    Geometry (in Angstrom), charge = 0, multiplicity = 1:

       Center              X                  Y                   Z               Mass
    ------------   -----------------  -----------------  -----------------  -----------------
         C           -0.039439146077     0.782407339324    -2.164768723136    12.000000000000
         C            1.003560853923     0.852407339324    -3.256768723136    12.000000000000
         C            0.343560853923     1.484407339324    -0.900768723136    12.000000000000
         C            1.320560853923     0.912407339324    -0.135768723136    12.000000000000
         C           -0.226439146077     2.699407339324    -0.514768723136    12.000000000000
         C            1.751560853923     1.504407339324     1.044231276864    12.000000000000
         C            0.148560853923     3.301407339324     0.696231276864    12.000000000000
         C            1.166560853923     2.688407339324     1.441231276864    12.000000000000
         O            1.587560853923     3.257407339324     2.600231276864    15.994914619570
         H           -0.967439146077     1.215407339324    -2.531768723136     1.007825032230
         H           -0.244439146077    -0.263592660676    -1.943768723136     1.007825032230
         H            1.869560853923     0.290407339324    -2.919768723136     1.007825032230
         H            1.777560853923    -0.013592660676    -0.453768723136     1.007825032230
         H           -0.988439146077     3.160407339324    -1.129768723136     1.007825032230
         H            2.521560853923     1.040407339324     1.640231276864     1.007825032230
         H           -0.310439146077     4.218407339324     1.032231276864     1.007825032230
         H            2.240560853923     2.711407339324     3.053231276864     1.007825032230
         H            1.270390853923     1.906367339324    -3.424008723136     1.007825032230
         H            0.601200853923     0.395137339324    -4.172748723136     1.007825032230
         C           -0.978439146077    -3.623592660676    -2.037768723136    12.000000000000
         C            0.079560853923    -2.329592660676    -0.172768723136    12.000000000000
         C           -1.052439146077    -2.980592660676    -0.700768723136    12.000000000000
         C            0.044560853923    -1.741592660676     1.095231276864    12.000000000000
         C           -1.137439146077    -1.786592660676     1.849231276864    12.000000000000
         C           -2.224439146077    -3.012592660676     0.035231276864    12.000000000000
         C           -2.257439146077    -2.461592660676     1.338231276864    12.000000000000
         H            0.996560853923    -2.295592660676    -0.742768723136     1.007825032230
         H            0.925560853923    -1.262592660676     1.499231276864     1.007825032230
         H           -0.418439146077    -2.960592660676    -2.694768723136     1.007825032230
         H           -1.988439146077    -3.692592660676    -2.436768723136     1.007825032230
         H           -1.173439146077    -1.336592660676     2.832231276864     1.007825032230
         H           -3.109439146077    -3.483592660676    -0.367768723136     1.007825032230
         H           -3.166439146077    -2.512592660676     1.922231276864     1.007825032230
         H           -0.532409146077    -4.629102660676    -2.037068723136     1.007825032230

  Running in c1 symmetry.

  Rotational constants: A =      0.02450  B =      0.01038  C =      0.00832 [cm^-1]
  Rotational constants: A =    734.57026  B =    311.10339  C =    249.32918 [MHz]
  Nuclear repulsion = 1020.130006502993183

  Charge       = 0
  Multiplicity = 1
  Electrons    = 116
  Nalpha       = 58
  Nbeta        = 58

  ==> Algorithm <==

  SCF Algorithm Type is PK.
  DIIS enabled.
  MOM disabled.
  Fractional occupation disabled.
  Guess Type is SAD.
  Energy threshold   = 1.00e-06
  Density threshold  = 1.00e-10
  Integral threshold = 0.00e+00

  ==> Primary Basis <==

  Basis Set: CC-PVDZ
    Blend: CC-PVDZ
    Number of shells: 150
    Number of basis function: 314
    Number of Cartesian functions: 330
    Spherical Harmonics?: true
    Max angular momentum: 2

  ==> Pre-Iterations <==

   -------------------------------------------------------
    Irrep   Nso     Nmo     Nalpha   Nbeta   Ndocc  Nsocc
   -------------------------------------------------------
     A        314     314       0       0       0       0
   -------------------------------------------------------
    Total     314     314      58      58      58       0
   -------------------------------------------------------

  ==> Integral Setup <==

  Using integral reordering PK algorithm.
  Sizing the integral batches needed.
  Building batch lookup table.
   Calculation information:
      Number of atoms:                  34
      Number of AO shells:             150
      Number of primitives:            442
      Number of atomic orbitals:       330
      Number of basis functions:       314

      Integral cutoff                 1.00e-12
      Number of threads:                 1

	Batch   1 pq = [       0,    9405] index = [             0,44231715] size =     44231715
	Batch   2 pq = [    9405,   13301] index = [      44231715,88464951] size =     44233236
	Batch   3 pq = [   13301,   16290] index = [      88464951,132690195] size =     44225244
	Batch   4 pq = [   16290,   18810] index = [     132690195,176917455] size =     44227260
	Batch   5 pq = [   18810,   21030] index = [     176917455,221140965] size =     44223510
	Batch   6 pq = [   21030,   23037] index = [     221140965,265363203] size =     44222238
	Batch   7 pq = [   23037,   24883] index = [     265363203,309594286] size =     44231083
	Batch   8 pq = [   24883,   26601] index = [     309594286,353819901] size =     44225615
	Batch   9 pq = [   26601,   28214] index = [     353819901,398029005] size =     44209104
	Batch  10 pq = [   28214,   29740] index = [     398029005,442248670] size =     44219665
	Batch  11 pq = [   29740,   31191] index = [     442248670,486454836] size =     44206166
	Batch  12 pq = [   31191,   32578] index = [     486454836,530679331] size =     44224495
	Batch  13 pq = [   32578,   33908] index = [     530679331,574893186] size =     44213855
	Batch  14 pq = [   33908,   35188] index = [     574893186,619115266] size =     44222080
	Batch  15 pq = [   35188,   36423] index = [     619115266,663335676] size =     44220410
	Batch  16 pq = [   36423,   37617] index = [     663335676,707538153] size =     44202477
	Batch  17 pq = [   37617,   38775] index = [     707538153,751769700] size =     44231547
	Batch  18 pq = [   38775,   39899] index = [     751769700,795985050] size =     44215350
	Batch  19 pq = [   39899,   40992] index = [     795985050,840192528] size =     44207478
	Batch  20 pq = [   40992,   42057] index = [     840192528,884416653] size =     44224125
	Batch  21 pq = [   42057,   43095] index = [     884416653,928611060] size =     44194407
	Batch  22 pq = [   43095,   44109] index = [     928611060,972823995] size =     44212935
	Batch  23 pq = [   44109,   45100] index = [     972823995,1017027550] size =     44203555
	Batch  24 pq = [   45100,   46070] index = [    1017027550,1061245485] size =     44217935
	Batch  25 pq = [   46070,   47020] index = [    1061245485,1105463710] size =     44218225
	Batch  26 pq = [   47020,   47951] index = [    1105463710,1149673176] size =     44209466
	Batch  27 pq = [   47951,   48864] index = [    1149673176,1193869680] size =     44196504
	Batch  28 pq = [   48864,   49455] index = [    1193869680,1222923240] size =     29053560
  Task number: 111
  Buffer size: 11059200
  Buffer per thread: 2
  We computed 73330267 shell quartets total.
  Whereas there are 64133475 unique shell quartets.
    14.34 percent of shell quartets recomputed by reordering.

  ==> DiskJK: Disk-Based J/K Matrices <==

    J tasked:                  Yes
    K tasked:                  Yes
    wK tasked:                  No
    Memory [MiB]:              375
    Schwarz Cutoff:          1E-12

    OpenMP threads:              1

  Minimum eigenvalue in the overlap matrix is 3.0964714379E-04.
  Using Symmetric Orthogonalization.

  SCF Guess: Superposition of Atomic Densities via on-the-fly atomic UHF.

  ==> Iterations <==

                        Total Energy        Delta E     RMS |[F,P]|

   @RHF iter SAD:  -652.33156964632735   -6.52332e+02   0.00000e+00
   @RHF iter   1:  -653.05306520324280   -7.21496e-01   2.30058e-03 DIIS
   @RHF iter   2:  -653.35385563345233   -3.00790e-01   9.78914e-04 DIIS
   @RHF iter   3:  -653.40229358382521   -4.84380e-02   2.41936e-04 DIIS
   @RHF iter   4:  -653.40653692474450   -4.24334e-03   1.02736e-04 DIIS
   @RHF iter   5:  -653.40714562736389   -6.08703e-04   1.64243e-05 DIIS
   @RHF iter   6:  -653.40716980145714   -2.41741e-05   5.64926e-06 DIIS
   @RHF iter   7:  -653.40717264091018   -2.83945e-06   1.84498e-06 DIIS
   @RHF iter   8:  -653.40717310554703   -4.64637e-07   7.41923e-07 DIIS
   @RHF iter   9:  -653.40717320648241   -1.00935e-07   3.43304e-07 DIIS
   @RHF iter  10:  -653.40717323209856   -2.56161e-08   1.51636e-07 DIIS
   @RHF iter  11:  -653.40717323937133   -7.27277e-09   6.49287e-08 DIIS
   @RHF iter  12:  -653.40717324049456   -1.12323e-09   2.53636e-08 DIIS
   @RHF iter  13:  -653.40717324061825   -1.23691e-10   7.18991e-09 DIIS
   @RHF iter  14:  -653.40717324062416   -5.91172e-12   2.42353e-09 DIIS
   @RHF iter  15:  -653.40717324062462   -4.54747e-13   9.33066e-10 DIIS
   @RHF iter  16:  -653.40717324062120    3.41061e-12   5.00551e-10 DIIS
   @RHF iter  17:  -653.40717324062780   -6.59384e-12   2.46843e-10 DIIS
   @RHF iter  18:  -653.40717324062246    5.34328e-12   9.57984e-11 DIIS
  Energy and wave function converged.

  ==> Post-Iterations <==

    Orbital Energies [Eh]
    ---------------------

    Doubly Occupied:

       1A    -20.578915     2A    -11.296855     3A    -11.240523
       4A    -11.239244     5A    -11.238742     6A    -11.237348
       7A    -11.233008     8A    -11.232435     9A    -11.231687
      10A    -11.231611    11A    -11.230533    12A    -11.228519
      13A    -11.227443    14A    -11.221282    15A    -11.218411
      16A    -11.216968    17A     -1.399037    18A     -1.153522
      19A     -1.148064    20A     -1.059169    21A     -1.045769
      22A     -1.017685    23A     -1.006969    24A     -0.975339
      25A     -0.930906    26A     -0.856161    27A     -0.845544
      28A     -0.824852    29A     -0.794157    30A     -0.787451
      31A     -0.730072    32A     -0.688476    33A     -0.674023
      34A     -0.645032    35A     -0.633412    36A     -0.629381
      37A     -0.610243    38A     -0.599282    39A     -0.588468
      40A     -0.584038    41A     -0.581414    42A     -0.577693
      43A     -0.568751    44A     -0.563003    45A     -0.542273
      46A     -0.533823    47A     -0.517639    48A     -0.497110
      49A     -0.485962    50A     -0.485123    51A     -0.481507
      52A     -0.472617    53A     -0.469377    54A     -0.460357
      55A     -0.340803    56A     -0.323929    57A     -0.319834
      58A     -0.298378

    Virtual:

      59A      0.126931    60A      0.130413    61A      0.144647
      62A      0.156588    63A      0.171974    64A      0.177350
      65A      0.196542    66A      0.198749    67A      0.209320
      68A      0.221222    69A      0.231201    70A      0.244112
      71A      0.247497    72A      0.256275    73A      0.257835
      74A      0.274163    75A      0.282867    76A      0.292752
      77A      0.297732    78A      0.309359    79A      0.328735
      80A      0.335736    81A      0.353487    82A      0.362469
      83A      0.390211    84A      0.398645    85A      0.426419
      86A      0.430883    87A      0.451959    88A      0.460046
      89A      0.468541    90A      0.490848    91A      0.495788
      92A      0.501767    93A      0.506792    94A      0.520345
      95A      0.567977    96A      0.593620    97A      0.595693
      98A      0.611820    99A      0.632286   100A      0.640895
     101A      0.649823   102A      0.659270   103A      0.670557
     104A      0.682108   105A      0.688061   106A      0.695729
     107A      0.702236   108A      0.708137   109A      0.715171
     110A      0.722530   111A      0.725814   112A      0.737181
     113A      0.740078   114A      0.744824   115A      0.748128
     116A      0.754861   117A      0.760729   118A      0.773573
     119A      0.777814   120A      0.786021   121A      0.793926
     122A      0.814060   123A      0.818950   124A      0.831799
     125A      0.847787   126A      0.850842   127A      0.862922
     128A      0.868422   129A      0.872819   130A      0.880531
     131A      0.884469   132A      0.887951   133A      0.893288
     134A      0.896797   135A      0.902660   136A      0.909255
     137A      0.912496   138A      0.924478   139A      0.927305
     140A      0.932541   141A      0.939977   142A      0.941723
     143A      0.960270   144A      0.967204   145A      0.972514
     146A      0.981885   147A      0.992548   148A      0.994824
     149A      1.018985   150A      1.030674   151A      1.053061
     152A      1.072445   153A      1.081291   154A      1.100984
     155A      1.112160   156A      1.126395   157A      1.141971
     158A      1.148555   159A      1.152690   160A      1.168075
     161A      1.176780   162A      1.183245   163A      1.206667
     164A      1.210992   165A      1.229293   166A      1.240486
     167A      1.248574   168A      1.254836   169A      1.266365
     170A      1.278735   171A      1.279647   172A      1.288251
     173A      1.296033   174A      1.308285   175A      1.311305
     176A      1.313760   177A      1.319721   178A      1.333905
     179A      1.354670   180A      1.364787   181A      1.389357
     182A      1.412608   183A      1.427275   184A      1.452337
     185A      1.464597   186A      1.485551   187A      1.514873
     188A      1.522882   189A      1.536074   190A      1.545499
     191A      1.566436   192A      1.601724   193A      1.620836
     194A      1.626240   195A      1.643303   196A      1.682569
     197A      1.684432   198A      1.695989   199A      1.707788
     200A      1.736633   201A      1.739377   202A      1.750545
     203A      1.755975   204A      1.765992   205A      1.787965
     206A      1.789317   207A      1.801747   208A      1.809776
     209A      1.839462   210A      1.845293   211A      1.855998
     212A      1.879770   213A      1.885324   214A      1.888777
     215A      1.895349   216A      1.904201   217A      1.905021
     218A      1.913110   219A      1.914383   220A      1.922980
     221A      1.926148   222A      1.935600   223A      1.941919
     224A      1.952024   225A      1.961326   226A      1.970155
     227A      1.973060   228A      1.977851   229A      1.986497
     230A      1.997536   231A      1.998766   232A      2.009711
     233A      2.020544   234A      2.033793   235A      2.043604
     236A      2.045728   237A      2.049520   238A      2.058782
     239A      2.069834   240A      2.076054   241A      2.085482
     242A      2.098742   243A      2.105446   244A      2.119108
     245A      2.131630   246A      2.144017   247A      2.145257
     248A      2.163540   249A      2.167180   250A      2.178409
     251A      2.183363   252A      2.192727   253A      2.211541
     254A      2.247662   255A      2.254482   256A      2.271650
     257A      2.282509   258A      2.291413   259A      2.297600
     260A      2.306473   261A      2.310331   262A      2.320673
     263A      2.325897   264A      2.349277   265A      2.357313
     266A      2.369590   267A      2.449868   268A      2.462060
     269A      2.465875   270A      2.472786   271A      2.481187
     272A      2.501505   273A      2.515707   274A      2.533202
     275A      2.535029   276A      2.559115   277A      2.568500
     278A      2.595122   279A      2.624350   280A      2.652925
     281A      2.668475   282A      2.742360   283A      2.755742
     284A      2.767800   285A      2.776172   286A      2.779421
     287A      2.783773   288A      2.804762   289A      2.816136
     290A      2.824563   291A      2.851973   292A      2.868773
     293A      2.875473   294A      2.886553   295A      2.937550
     296A      2.958017   297A      2.985149   298A      2.994769
     299A      3.003653   300A      3.008764   301A      3.062853
     302A      3.114277   303A      3.143746   304A      3.186806
     305A      3.194955   306A      3.255914   307A      3.284562
     308A      3.293775   309A      3.350429   310A      3.586682
     311A      3.685818   312A      3.939012   313A      4.001999
     314A      4.191579

    Final Occupation by Irrep:
              A
    DOCC [    58 ]

  @RHF Final Energy:  -653.40717324062246

   => Energetics <=

    Nuclear Repulsion Energy =           1020.1300065029931829
    One-Electron Energy =               -2911.3740296390487856
    Two-Electron Energy =                1237.8368498954332608
    Total Energy =                       -653.4071732406223418

Computation Completed

Properties will be evaluated at   0.000000,   0.000000,   0.000000 [a0]

Properties computed using the SCF density matrix

  Nuclear Dipole Moment: [e a0]
     X:    -0.6452      Y:    -7.0271      Z:   -12.0578

  Electronic Dipole Moment: [e a0]
     X:     0.8283      Y:     6.4719      Z:    11.9489

  Dipole Moment: [e a0]
     X:     0.1830      Y:    -0.5552      Z:    -0.1089     Total:     0.5946

  Dipole Moment: [D]
     X:     0.4652      Y:    -1.4111      Z:    -0.2767     Total:     1.5113

*** tstop() called on ds3 at Tue Apr 28 15:29:10 2020
Module time:
	user time   =     629.54 seconds =      10.49 minutes
	system time =     190.53 seconds =       3.18 minutes
	total time  =       1714 seconds =      28.57 minutes
Total time:
	user time   =     629.54 seconds =      10.49 minutes
	system time =     190.53 seconds =       3.18 minutes
	total time  =       1714 seconds =      28.57 minutes
                                     G D M A

                                 by Anthony Stone

                           version 2.2.06, 22 June 2011

               Distributed Multipoles from Gaussian wavefunctions

Starting at 15:29:10 on 28 Apr 2020

Using SCF density matrix from file ./SSI/SSI-185TYR-220PHE-1-dimer.test.28255.fchk

                         Distributed Multipole Analysis

Standard DMA

Positions and radii in angstrom
Multipole moments in atomic units, ea_0^k for rank k

C          x = -0.039439  y =  0.782407  z = -2.164769 angstrom
           Maximum rank =  0   Radius =  0.650 angstrom
                   Q00  =  -0.028984

C          x =  1.003561  y =  0.852407  z = -3.256769 angstrom
           Maximum rank =  0   Radius =  0.650 angstrom
                   Q00  =  -0.233846

C          x =  0.343561  y =  1.484407  z = -0.900769 angstrom
           Maximum rank =  0   Radius =  0.650 angstrom
                   Q00  =  -0.118234

C          x =  1.320561  y =  0.912407  z = -0.135769 angstrom
           Maximum rank =  0   Radius =  0.650 angstrom
                   Q00  =   0.033596

C          x = -0.226439  y =  2.699407  z = -0.514769 angstrom
           Maximum rank =  0   Radius =  0.650 angstrom
                   Q00  =  -0.049838

C          x =  1.751561  y =  1.504407  z =  1.044231 angstrom
           Maximum rank =  0   Radius =  0.650 angstrom
                   Q00  =  -0.201659

C          x =  0.148561  y =  3.301407  z =  0.696231 angstrom
           Maximum rank =  0   Radius =  0.650 angstrom
                   Q00  =  -0.123510

C          x =  1.166561  y =  2.688407  z =  1.441231 angstrom
           Maximum rank =  0   Radius =  0.650 angstrom
                   Q00  =   0.319353

O          x =  1.587561  y =  3.257407  z =  2.600231 angstrom
           Maximum rank =  0   Radius =  0.650 angstrom
                   Q00  =  -0.637931

H          x = -0.967439  y =  1.215407  z = -2.531769 angstrom
           Maximum rank =  0   Radius =  0.325 angstrom
                   Q00  =   0.057737

H          x = -0.244439  y = -0.263593  z = -1.943769 angstrom
           Maximum rank =  0   Radius =  0.325 angstrom
                   Q00  =   0.068401

H          x =  1.869561  y =  0.290407  z = -2.919769 angstrom
           Maximum rank =  0   Radius =  0.325 angstrom
                   Q00  =   0.073362

H          x =  1.777561  y = -0.013593  z = -0.453769 angstrom
           Maximum rank =  0   Radius =  0.325 angstrom
                   Q00  =   0.058037

H          x = -0.988439  y =  3.160407  z = -1.129769 angstrom
           Maximum rank =  0   Radius =  0.325 angstrom
                   Q00  =   0.067506

H          x =  2.521561  y =  1.040407  z =  1.640231 angstrom
           Maximum rank =  0   Radius =  0.325 angstrom
                   Q00  =   0.066643

H          x = -0.310439  y =  4.218407  z =  1.032231 angstrom
           Maximum rank =  0   Radius =  0.325 angstrom
                   Q00  =   0.084771

H          x =  2.240561  y =  2.711407  z =  3.053231 angstrom
           Maximum rank =  0   Radius =  0.325 angstrom
                   Q00  =   0.404954

H          x =  1.270391  y =  1.906367  z = -3.424009 angstrom
           Maximum rank =  0   Radius =  0.325 angstrom
                   Q00  =   0.081962

H          x =  0.601201  y =  0.395137  z = -4.172749 angstrom
           Maximum rank =  0   Radius =  0.325 angstrom
                   Q00  =   0.078506

C          x = -0.978439  y = -3.623593  z = -2.037769 angstrom
           Maximum rank =  0   Radius =  0.650 angstrom
                   Q00  =  -0.196789

C          x =  0.079561  y = -2.329593  z = -0.172769 angstrom
           Maximum rank =  0   Radius =  0.650 angstrom
                   Q00  =  -0.017986

C          x = -1.052439  y = -2.980593  z = -0.700769 angstrom
           Maximum rank =  0   Radius =  0.650 angstrom
                   Q00  =  -0.082241

C          x =  0.044561  y = -1.741593  z =  1.095231 angstrom
           Maximum rank =  0   Radius =  0.650 angstrom
                   Q00  =  -0.074078

C          x = -1.137439  y = -1.786593  z =  1.849231 angstrom
           Maximum rank =  0   Radius =  0.650 angstrom
                   Q00  =  -0.078286

C          x = -2.224439  y = -3.012593  z =  0.035231 angstrom
           Maximum rank =  0   Radius =  0.650 angstrom
                   Q00  =  -0.094574

C          x = -2.257439  y = -2.461593  z =  1.338231 angstrom
           Maximum rank =  0   Radius =  0.650 angstrom
                   Q00  =  -0.062042

H          x =  0.996561  y = -2.295593  z = -0.742769 angstrom
           Maximum rank =  0   Radius =  0.325 angstrom
                   Q00  =   0.050443

H          x =  0.925561  y = -1.262593  z =  1.499231 angstrom
           Maximum rank =  0   Radius =  0.325 angstrom
                   Q00  =   0.065932

H          x = -0.418439  y = -2.960593  z = -2.694769 angstrom
           Maximum rank =  0   Radius =  0.325 angstrom
                   Q00  =   0.092202

H          x = -1.988439  y = -3.692593  z = -2.436769 angstrom
           Maximum rank =  0   Radius =  0.325 angstrom
                   Q00  =   0.096121

H          x = -1.173439  y = -1.336593  z =  2.832231 angstrom
           Maximum rank =  0   Radius =  0.325 angstrom
                   Q00  =   0.065149

H          x = -3.109439  y = -3.483593  z = -0.367769 angstrom
           Maximum rank =  0   Radius =  0.325 angstrom
                   Q00  =   0.060258

H          x = -3.166439  y = -2.512593  z =  1.922231 angstrom
           Maximum rank =  0   Radius =  0.325 angstrom
                   Q00  =   0.068970

H          x = -0.532409  y = -4.629103  z = -2.037069 angstrom
           Maximum rank =  0   Radius =  0.325 angstrom
                   Q00  =   0.106094

Total multipoles referred to origin at
           x =   0.000000,  y =    0.000000,  z =    0.000000 angstrom
                   Q00  =  -0.000000

Finished at 15:29:10 on 28 Apr 2020

  DMA results are available in the Python driver through the
	  variable('DMA DISTRIBUTED MULTIPOLES')
  and
	  variable('DMA TOTAL MULTIPOLES')
  commands.

    Psi4 stopped on: Tuesday, 28 April 2020 03:29PM
    Psi4 wall time for execution: 0:28:33.80

*** Psi4 exiting successfully. Buy a developer a beer!
