                               Psi4 1.3.2 release

  ==> Input File <==

--------------------------------------------------------------------------
import numpy as np
set {scf_type pk
basis cc-pvdz
d_convergence 10
gdma_switch   0
gdma_limit    0
gdma_origin   [ 0.0,  0.0,  0.0 ]
}
molecule test {
    units Angstrom
    0 1
    --
    0 1
    C               -3.476130193813758     1.602826089524799     1.295269266798342
    C               -2.153130193813758    -0.525173910475201     0.970269266798343
    C               -3.138130193813758     0.354826089524799     0.515269266798343
    C               -1.863130193813758    -1.693173910475201     0.257269266798343
    C               -2.572130193813758    -1.992173910475201    -0.908730733201657
    C               -3.844130193813758     0.043826089524799    -0.649730733201658
    C               -3.561130193813758    -1.121173910475201    -1.361730733201657
    H               -1.609130193813758    -0.307173910475201     1.877269266798343
    H               -1.096130193813758    -2.368173910475201     0.609269266798342
    H               -3.440130193813758     1.362826089524799     2.359269266798342
    H               -4.502130193813759     1.897826089524799     1.067269266798342
    H               -2.354130193813758    -2.899173910475201    -1.456730733201657
    H               -4.619130193813758     0.707826089524799    -1.005730733201657
    H               -4.120130193813758    -1.365173910475201    -2.251730733201657
    H               -2.802239193813759     2.450766089524799     1.103243266798342
    C                4.164869806186242     0.162826089524799    -2.464730733201657
    C                1.143869806186242     0.495826089524799    -0.168730733201657
    C                1.732869806186242     0.471826089524799     1.091269266798342
    C                1.939869806186242     0.413826089524799    -1.307730733201658
    C                3.328869806186241     0.295826089524799    -1.209730733201657
    C                3.118869806186241     0.357826089524799     1.213269266798342
    C                3.910869806186242     0.256826089524799     0.066269266798343
    O                0.946869806186242     0.556826089524799     2.202269266798343
    H                0.071869806186242     0.580826089524799    -0.258730733201657
    H                1.466869806186242     0.418826089524799    -2.279730733201657
    H                3.576869806186242     0.330826089524799     2.188269266798343
    H                1.455869806186242     0.312826089524799     2.991269266798342
    H                3.594869806186241     0.543826089524799    -3.312730733201657
    H                4.331869806186242    -0.899173910475201    -2.632730733201658
    H                4.976869806186242     0.140826089524799     0.185269266798343
    H                5.136298806186241     0.678086089524799    -2.435904733201657

}
e, wfn = energy('scf', return_wfn=True)
gdma(wfn)
dmavals = variable('DMA DISTRIBUTED MULTIPOLES')
charges = np.array(dmavals)
print(charges)
np.save('SSI-040PHE-052TYR-1-dimer.npy', np.array(charges))--------------------------------------------------------------------------

*** tstart() called on ds3
*** at Tue Apr 28 08:31:56 2020

   => Loading Basis Set <=

    Name: CC-PVDZ
    Role: ORBITAL
    Keyword: BASIS
    atoms 1-7, 16-22  entry C          line   138 file /theoryfs2/ds/metcalf/miniconda2/envs/tf2gpu/share/psi4/basis/cc-pvdz.gbs
    atoms 8-15, 24-31 entry H          line    22 file /theoryfs2/ds/metcalf/miniconda2/envs/tf2gpu/share/psi4/basis/cc-pvdz.gbs
    atoms 23          entry O          line   198 file /theoryfs2/ds/metcalf/miniconda2/envs/tf2gpu/share/psi4/basis/cc-pvdz.gbs

         ---------------------------------------------------------
                                   SCF
               by Justin Turney, Rob Parrish, Andy Simmonett
                          and Daniel G. A. Smith
                              RHF Reference
                        1 Threads,    500 MiB Core
         ---------------------------------------------------------

  ==> Geometry <==

    Molecular point group: c1
    Full point group: C1

    Geometry (in Angstrom), charge = 0, multiplicity = 1:

       Center              X                  Y                   Z               Mass
    ------------   -----------------  -----------------  -----------------  -----------------
         C           -3.476130193814     1.602826089525     1.295269266798    12.000000000000
         C           -2.153130193814    -0.525173910475     0.970269266798    12.000000000000
         C           -3.138130193814     0.354826089525     0.515269266798    12.000000000000
         C           -1.863130193814    -1.693173910475     0.257269266798    12.000000000000
         C           -2.572130193814    -1.992173910475    -0.908730733202    12.000000000000
         C           -3.844130193814     0.043826089525    -0.649730733202    12.000000000000
         C           -3.561130193814    -1.121173910475    -1.361730733202    12.000000000000
         H           -1.609130193814    -0.307173910475     1.877269266798     1.007825032230
         H           -1.096130193814    -2.368173910475     0.609269266798     1.007825032230
         H           -3.440130193814     1.362826089525     2.359269266798     1.007825032230
         H           -4.502130193814     1.897826089525     1.067269266798     1.007825032230
         H           -2.354130193814    -2.899173910475    -1.456730733202     1.007825032230
         H           -4.619130193814     0.707826089525    -1.005730733202     1.007825032230
         H           -4.120130193814    -1.365173910475    -2.251730733202     1.007825032230
         H           -2.802239193814     2.450766089525     1.103243266798     1.007825032230
         C            4.164869806186     0.162826089525    -2.464730733202    12.000000000000
         C            1.143869806186     0.495826089525    -0.168730733202    12.000000000000
         C            1.732869806186     0.471826089525     1.091269266798    12.000000000000
         C            1.939869806186     0.413826089525    -1.307730733202    12.000000000000
         C            3.328869806186     0.295826089525    -1.209730733202    12.000000000000
         C            3.118869806186     0.357826089525     1.213269266798    12.000000000000
         C            3.910869806186     0.256826089525     0.066269266798    12.000000000000
         O            0.946869806186     0.556826089525     2.202269266798    15.994914619570
         H            0.071869806186     0.580826089525    -0.258730733202     1.007825032230
         H            1.466869806186     0.418826089525    -2.279730733202     1.007825032230
         H            3.576869806186     0.330826089525     2.188269266798     1.007825032230
         H            1.455869806186     0.312826089525     2.991269266798     1.007825032230
         H            3.594869806186     0.543826089525    -3.312730733202     1.007825032230
         H            4.331869806186    -0.899173910475    -2.632730733202     1.007825032230
         H            4.976869806186     0.140826089525     0.185269266798     1.007825032230
         H            5.136298806186     0.678086089525    -2.435904733202     1.007825032230

  Running in c1 symmetry.

  Rotational constants: A =      0.03289  B =      0.00906  C =      0.00794 [cm^-1]
  Rotational constants: A =    986.12821  B =    271.68558  C =    238.12376 [MHz]
  Nuclear repulsion =  879.992421022299823

  Charge       = 0
  Multiplicity = 1
  Electrons    = 108
  Nalpha       = 54
  Nbeta        = 54

  ==> Algorithm <==

  SCF Algorithm Type is PK.
  DIIS enabled.
  MOM disabled.
  Fractional occupation disabled.
  Guess Type is SAD.
  Energy threshold   = 1.00e-06
  Density threshold  = 1.00e-10
  Integral threshold = 0.00e+00

  ==> Primary Basis <==

  Basis Set: CC-PVDZ
    Blend: CC-PVDZ
    Number of shells: 138
    Number of basis function: 290
    Number of Cartesian functions: 305
    Spherical Harmonics?: true
    Max angular momentum: 2

  ==> Pre-Iterations <==

   -------------------------------------------------------
    Irrep   Nso     Nmo     Nalpha   Nbeta   Ndocc  Nsocc
   -------------------------------------------------------
     A        290     290       0       0       0       0
   -------------------------------------------------------
    Total     290     290      54      54      54       0
   -------------------------------------------------------

  ==> Integral Setup <==

  Using integral reordering PK algorithm.
  Sizing the integral batches needed.
  Building batch lookup table.
   Calculation information:
      Number of atoms:                  31
      Number of AO shells:             138
      Number of primitives:            410
      Number of atomic orbitals:       305
      Number of basis functions:       290

      Integral cutoff                 1.00e-12
      Number of threads:                 1

	Batch   1 pq = [       0,    9405] index = [             0,44231715] size =     44231715
	Batch   2 pq = [    9405,   13301] index = [      44231715,88464951] size =     44233236
	Batch   3 pq = [   13301,   16290] index = [      88464951,132690195] size =     44225244
	Batch   4 pq = [   16290,   18810] index = [     132690195,176917455] size =     44227260
	Batch   5 pq = [   18810,   21030] index = [     176917455,221140965] size =     44223510
	Batch   6 pq = [   21030,   23037] index = [     221140965,265363203] size =     44222238
	Batch   7 pq = [   23037,   24883] index = [     265363203,309594286] size =     44231083
	Batch   8 pq = [   24883,   26601] index = [     309594286,353819901] size =     44225615
	Batch   9 pq = [   26601,   28214] index = [     353819901,398029005] size =     44209104
	Batch  10 pq = [   28214,   29740] index = [     398029005,442248670] size =     44219665
	Batch  11 pq = [   29740,   31191] index = [     442248670,486454836] size =     44206166
	Batch  12 pq = [   31191,   32578] index = [     486454836,530679331] size =     44224495
	Batch  13 pq = [   32578,   33908] index = [     530679331,574893186] size =     44213855
	Batch  14 pq = [   33908,   35188] index = [     574893186,619115266] size =     44222080
	Batch  15 pq = [   35188,   36423] index = [     619115266,663335676] size =     44220410
	Batch  16 pq = [   36423,   37617] index = [     663335676,707538153] size =     44202477
	Batch  17 pq = [   37617,   38775] index = [     707538153,751769700] size =     44231547
	Batch  18 pq = [   38775,   39899] index = [     751769700,795985050] size =     44215350
	Batch  19 pq = [   39899,   40992] index = [     795985050,840192528] size =     44207478
	Batch  20 pq = [   40992,   42057] index = [     840192528,884416653] size =     44224125
	Batch  21 pq = [   42057,   42195] index = [     884416653,890230110] size =      5813457
  Task number: 81
  Buffer size: 11059200
  Buffer per thread: 2
  We computed 40730977 shell quartets total.
  Whereas there are 45998436 unique shell quartets.

  ==> DiskJK: Disk-Based J/K Matrices <==

    J tasked:                  Yes
    K tasked:                  Yes
    wK tasked:                  No
    Memory [MiB]:              375
    Schwarz Cutoff:          1E-12

    OpenMP threads:              1

  Minimum eigenvalue in the overlap matrix is 3.1089404951E-04.
  Using Symmetric Orthogonalization.

  SCF Guess: Superposition of Atomic Densities via on-the-fly atomic UHF.

  ==> Iterations <==

                        Total Energy        Delta E     RMS |[F,P]|

   @RHF iter SAD:  -613.10810515639980   -6.13108e+02   0.00000e+00
   @RHF iter   1:  -614.06585019007730   -9.57745e-01   2.35769e-03 DIIS
   @RHF iter   2:  -614.33948805375303   -2.73638e-01   9.71261e-04 DIIS
   @RHF iter   3:  -614.37998540482579   -4.04974e-02   2.31261e-04 DIIS
   @RHF iter   4:  -614.38351850707568   -3.53310e-03   8.81060e-05 DIIS
   @RHF iter   5:  -614.38389806598593   -3.79559e-04   1.68090e-05 DIIS
   @RHF iter   6:  -614.38391803955722   -1.99736e-05   5.50177e-06 DIIS
   @RHF iter   7:  -614.38392014113788   -2.10158e-06   1.60501e-06 DIIS
   @RHF iter   8:  -614.38392039387247   -2.52735e-07   6.45554e-07 DIIS
   @RHF iter   9:  -614.38392043072520   -3.68527e-08   2.32118e-07 DIIS
   @RHF iter  10:  -614.38392043695274   -6.22754e-09   8.64823e-08 DIIS
   @RHF iter  11:  -614.38392043845704   -1.50430e-09   4.19759e-08 DIIS
   @RHF iter  12:  -614.38392043883414   -3.77099e-10   2.12752e-08 DIIS
   @RHF iter  13:  -614.38392043893225   -9.81117e-11   6.88250e-09 DIIS
   @RHF iter  14:  -614.38392043894305   -1.08002e-11   2.01186e-09 DIIS
   @RHF iter  15:  -614.38392043893930    3.75167e-12   6.41800e-10 DIIS
   @RHF iter  16:  -614.38392043894362   -4.32010e-12   2.57849e-10 DIIS
   @RHF iter  17:  -614.38392043894214    1.47793e-12   1.00036e-10 DIIS
   @RHF iter  18:  -614.38392043894419   -2.04636e-12   4.37573e-11 DIIS
  Energy and wave function converged.

  ==> Post-Iterations <==

    Orbital Energies [Eh]
    ---------------------

    Doubly Occupied:

       1A    -20.585657     2A    -11.296103     3A    -11.237863
       4A    -11.236104     5A    -11.234628     6A    -11.233481
       7A    -11.232851     8A    -11.231043     9A    -11.230676
      10A    -11.227419    11A    -11.227025    12A    -11.226679
      13A    -11.224549    14A    -11.224264    15A    -11.223527
      16A     -1.399855    17A     -1.145732    18A     -1.144858
      19A     -1.037216    20A     -1.033176    21A     -1.014358
      22A     -1.004654    23A     -0.924706    24A     -0.923546
      25A     -0.840975    26A     -0.818736    27A     -0.798914
      28A     -0.789022    29A     -0.728546    30A     -0.684564
      31A     -0.664527    32A     -0.639297    33A     -0.624984
      34A     -0.623961    35A     -0.607463    36A     -0.585645
      37A     -0.584326    38A     -0.576835    39A     -0.570895
      40A     -0.569915    41A     -0.562586    42A     -0.555598
      43A     -0.528700    44A     -0.525324    45A     -0.494797
      46A     -0.486537    47A     -0.479279    48A     -0.477136
      49A     -0.474231    50A     -0.463837    51A     -0.336116
      52A     -0.324603    53A     -0.316730    54A     -0.298950

    Virtual:

      55A      0.130766    56A      0.140297    57A      0.146811
      58A      0.157586    59A      0.176030    60A      0.189143
      61A      0.193029    62A      0.206393    63A      0.218289
      64A      0.223854    65A      0.233785    66A      0.251424
      67A      0.259691    68A      0.261346    69A      0.268138
      70A      0.279315    71A      0.283249    72A      0.292978
      73A      0.307352    74A      0.322318    75A      0.367260
      76A      0.372269    77A      0.374330    78A      0.383430
      79A      0.431621    80A      0.455180    81A      0.457838
      82A      0.468947    83A      0.483219    84A      0.488103
      85A      0.492318    86A      0.498962    87A      0.506186
      88A      0.570001    89A      0.602432    90A      0.615742
      91A      0.632325    92A      0.642472    93A      0.650390
      94A      0.662704    95A      0.671230    96A      0.684825
      97A      0.690863    98A      0.695045    99A      0.703861
     100A      0.710259   101A      0.715729   102A      0.719971
     103A      0.733057   104A      0.741368   105A      0.747360
     106A      0.748251   107A      0.752214   108A      0.761612
     109A      0.767072   110A      0.776353   111A      0.781502
     112A      0.786644   113A      0.788816   114A      0.797071
     115A      0.815491   116A      0.833459   117A      0.844081
     118A      0.844466   119A      0.867775   120A      0.872030
     121A      0.875013   122A      0.879476   123A      0.881776
     124A      0.885036   125A      0.893187   126A      0.900761
     127A      0.909435   128A      0.912130   129A      0.925951
     130A      0.931263   131A      0.936655   132A      0.940235
     133A      0.945321   134A      0.949295   135A      0.962634
     136A      0.982334   137A      0.996093   138A      1.012879
     139A      1.038845   140A      1.048161   141A      1.055326
     142A      1.081430   143A      1.121044   144A      1.135303
     145A      1.138032   146A      1.141607   147A      1.151876
     148A      1.161722   149A      1.164674   150A      1.165813
     151A      1.209463   152A      1.218399   153A      1.230896
     154A      1.241969   155A      1.247522   156A      1.256780
     157A      1.260357   158A      1.264462   159A      1.279918
     160A      1.282984   161A      1.303115   162A      1.304723
     163A      1.314901   164A      1.317469   165A      1.322074
     166A      1.338408   167A      1.342035   168A      1.361909
     169A      1.381436   170A      1.398620   171A      1.423541
     172A      1.479813   173A      1.500839   174A      1.515935
     175A      1.528179   176A      1.534187   177A      1.564387
     178A      1.569641   179A      1.601405   180A      1.626566
     181A      1.646013   182A      1.676064   183A      1.693313
     184A      1.702070   185A      1.705127   186A      1.735069
     187A      1.736138   188A      1.748777   189A      1.757882
     190A      1.769202   191A      1.781373   192A      1.791413
     193A      1.809911   194A      1.814000   195A      1.818303
     196A      1.859992   197A      1.871370   198A      1.882052
     199A      1.885686   200A      1.898534   201A      1.905923
     202A      1.912038   203A      1.915860   204A      1.919933
     205A      1.924676   206A      1.931809   207A      1.934445
     208A      1.941715   209A      1.949343   210A      1.955434
     211A      1.959801   212A      1.970518   213A      1.975186
     214A      1.987742   215A      1.990499   216A      2.007198
     217A      2.037380   218A      2.051220   219A      2.058420
     220A      2.060733   221A      2.069025   222A      2.074233
     223A      2.074492   224A      2.079083   225A      2.116918
     226A      2.127393   227A      2.148417   228A      2.158413
     229A      2.161011   230A      2.164385   231A      2.171452
     232A      2.182359   233A      2.186712   234A      2.215253
     235A      2.227493   236A      2.255998   237A      2.263954
     238A      2.284015   239A      2.285771   240A      2.295668
     241A      2.303516   242A      2.315852   243A      2.329503
     244A      2.331043   245A      2.340062   246A      2.375067
     247A      2.410977   248A      2.443806   249A      2.467096
     250A      2.468546   251A      2.478165   252A      2.488397
     253A      2.503830   254A      2.542791   255A      2.544068
     256A      2.564173   257A      2.614892   258A      2.628781
     259A      2.634335   260A      2.738859   261A      2.752599
     262A      2.757077   263A      2.763922   264A      2.773615
     265A      2.782186   266A      2.787003   267A      2.817638
     268A      2.823501   269A      2.844248   270A      2.856254
     271A      2.872703   272A      2.901398   273A      2.965726
     274A      2.982858   275A      3.002105   276A      3.014477
     277A      3.040507   278A      3.096059   279A      3.128161
     280A      3.156542   281A      3.198052   282A      3.261613
     283A      3.281588   284A      3.299872   285A      3.343377
     286A      3.584762   287A      3.681694   288A      3.950621
     289A      3.962244   290A      4.174480

    Final Occupation by Irrep:
              A
    DOCC [    54 ]

  @RHF Final Energy:  -614.38392043894419

   => Energetics <=

    Nuclear Repulsion Energy =            879.9924210222998227
    One-Electron Energy =               -2579.6866775646349197
    Two-Electron Energy =                1085.3103361033909096
    Total Energy =                       -614.3839204389441875

Computation Completed

Properties will be evaluated at   0.000000,   0.000000,   0.000000 [a0]

Properties computed using the SCF density matrix

  Nuclear Dipole Moment: [e a0]
     X:     0.0685      Y:     1.4899      Z:    -3.0389

  Electronic Dipole Moment: [e a0]
     X:     0.4569      Y:    -1.6045      Z:     3.2741

  Dipole Moment: [e a0]
     X:     0.5254      Y:    -0.1146      Z:     0.2352     Total:     0.5870

  Dipole Moment: [D]
     X:     1.3355      Y:    -0.2914      Z:     0.5977     Total:     1.4919

*** tstop() called on ds3 at Tue Apr 28 08:53:19 2020
Module time:
	user time   =     355.95 seconds =       5.93 minutes
	system time =     135.77 seconds =       2.26 minutes
	total time  =       1283 seconds =      21.38 minutes
Total time:
	user time   =     355.95 seconds =       5.93 minutes
	system time =     135.77 seconds =       2.26 minutes
	total time  =       1283 seconds =      21.38 minutes
                                     G D M A

                                 by Anthony Stone

                           version 2.2.06, 22 June 2011

               Distributed Multipoles from Gaussian wavefunctions

Starting at 8:53:19 on 28 Apr 2020

Using SCF density matrix from file ./SSI/SSI-040PHE-052TYR-1-dimer.test.14645.fchk

                         Distributed Multipole Analysis

Standard DMA

Positions and radii in angstrom
Multipole moments in atomic units, ea_0^k for rank k

C          x = -3.476130  y =  1.602826  z =  1.295269 angstrom
           Maximum rank =  0   Radius =  0.650 angstrom
                   Q00  =  -0.201930

C          x = -2.153130  y = -0.525174  z =  0.970269 angstrom
           Maximum rank =  0   Radius =  0.650 angstrom
                   Q00  =  -0.094892

C          x = -3.138130  y =  0.354826  z =  0.515269 angstrom
           Maximum rank =  0   Radius =  0.650 angstrom
                   Q00  =  -0.103702

C          x = -1.863130  y = -1.693174  z =  0.257269 angstrom
           Maximum rank =  0   Radius =  0.650 angstrom
                   Q00  =  -0.059146

C          x = -2.572130  y = -1.992174  z = -0.908731 angstrom
           Maximum rank =  0   Radius =  0.650 angstrom
                   Q00  =  -0.083144

C          x = -3.844130  y =  0.043826  z = -0.649731 angstrom
           Maximum rank =  0   Radius =  0.650 angstrom
                   Q00  =   0.005658

C          x = -3.561130  y = -1.121174  z = -1.361731 angstrom
           Maximum rank =  0   Radius =  0.650 angstrom
                   Q00  =  -0.079470

H          x = -1.609130  y = -0.307174  z =  1.877269 angstrom
           Maximum rank =  0   Radius =  0.325 angstrom
                   Q00  =   0.067230

H          x = -1.096130  y = -2.368174  z =  0.609269 angstrom
           Maximum rank =  0   Radius =  0.325 angstrom
                   Q00  =   0.066703

H          x = -3.440130  y =  1.362826  z =  2.359269 angstrom
           Maximum rank =  0   Radius =  0.325 angstrom
                   Q00  =   0.098495

H          x = -4.502130  y =  1.897826  z =  1.067269 angstrom
           Maximum rank =  0   Radius =  0.325 angstrom
                   Q00  =   0.094144

H          x = -2.354130  y = -2.899174  z = -1.456731 angstrom
           Maximum rank =  0   Radius =  0.325 angstrom
                   Q00  =   0.060318

H          x = -4.619130  y =  0.707826  z = -1.005731 angstrom
           Maximum rank =  0   Radius =  0.325 angstrom
                   Q00  =   0.056373

H          x = -4.120130  y = -1.365174  z = -2.251731 angstrom
           Maximum rank =  0   Radius =  0.325 angstrom
                   Q00  =   0.062972

H          x = -2.802239  y =  2.450766  z =  1.103243 angstrom
           Maximum rank =  0   Radius =  0.325 angstrom
                   Q00  =   0.107376

C          x =  4.164870  y =  0.162826  z = -2.464731 angstrom
           Maximum rank =  0   Radius =  0.650 angstrom
                   Q00  =  -0.203127

C          x =  1.143870  y =  0.495826  z = -0.168731 angstrom
           Maximum rank =  0   Radius =  0.650 angstrom
                   Q00  =  -0.114862

C          x =  1.732870  y =  0.471826  z =  1.091269 angstrom
           Maximum rank =  0   Radius =  0.650 angstrom
                   Q00  =   0.308303

C          x =  1.939870  y =  0.413826  z = -1.307731 angstrom
           Maximum rank =  0   Radius =  0.650 angstrom
                   Q00  =   0.052221

C          x =  3.328870  y =  0.295826  z = -1.209731 angstrom
           Maximum rank =  0   Radius =  0.650 angstrom
                   Q00  =  -0.133862

C          x =  3.118870  y =  0.357826  z =  1.213269 angstrom
           Maximum rank =  0   Radius =  0.650 angstrom
                   Q00  =  -0.171054

C          x =  3.910870  y =  0.256826  z =  0.066269 angstrom
           Maximum rank =  0   Radius =  0.650 angstrom
                   Q00  =  -0.065337

O          x =  0.946870  y =  0.556826  z =  2.202269 angstrom
           Maximum rank =  0   Radius =  0.650 angstrom
                   Q00  =  -0.668467

H          x =  0.071870  y =  0.580826  z = -0.258731 angstrom
           Maximum rank =  0   Radius =  0.325 angstrom
                   Q00  =   0.098813

H          x =  1.466870  y =  0.418826  z = -2.279731 angstrom
           Maximum rank =  0   Radius =  0.325 angstrom
                   Q00  =   0.063456

H          x =  3.576870  y =  0.330826  z =  2.188269 angstrom
           Maximum rank =  0   Radius =  0.325 angstrom
                   Q00  =   0.070590

H          x =  1.455870  y =  0.312826  z =  2.991269 angstrom
           Maximum rank =  0   Radius =  0.325 angstrom
                   Q00  =   0.404935

H          x =  3.594870  y =  0.543826  z = -3.312731 angstrom
           Maximum rank =  0   Radius =  0.325 angstrom
                   Q00  =   0.096962

H          x =  4.331870  y = -0.899174  z = -2.632731 angstrom
           Maximum rank =  0   Radius =  0.325 angstrom
                   Q00  =   0.098775

H          x =  4.976870  y =  0.140826  z =  0.185269 angstrom
           Maximum rank =  0   Radius =  0.325 angstrom
                   Q00  =   0.066770

H          x =  5.136299  y =  0.678086  z = -2.435905 angstrom
           Maximum rank =  0   Radius =  0.325 angstrom
                   Q00  =   0.098900

Total multipoles referred to origin at
           x =   0.000000,  y =    0.000000,  z =    0.000000 angstrom
                   Q00  =  -0.000000

Finished at 8:53:19 on 28 Apr 2020

  DMA results are available in the Python driver through the
	  variable('DMA DISTRIBUTED MULTIPOLES')
  and
	  variable('DMA TOTAL MULTIPOLES')
  commands.

    Psi4 stopped on: Tuesday, 28 April 2020 08:53AM
    Psi4 wall time for execution: 0:21:23.10

*** Psi4 exiting successfully. Buy a developer a beer!
