                               Psi4 1.3.2 release

  ==> Input File <==

--------------------------------------------------------------------------
import numpy as np
set {scf_type pk
basis cc-pvdz
d_convergence 10
gdma_switch   0
gdma_limit    0
gdma_origin   [ 0.0,  0.0,  0.0 ]
}
molecule test {
    units Angstrom
    0 1
    --
    0 1
    C               -1.475157713886235    -2.620338366673970     4.708084806121900
    C               -0.536157713886235    -0.744338366673970     1.566084806121901
    C                0.756842286113765    -0.328338366673970     1.840084806121901
    C               -1.237157713886235    -1.489338366673970     2.507084806121901
    C               -0.667157713886235    -1.817338366673970     3.729084806121901
    C                1.340842286113765    -0.648338366673970     3.044084806121901
    C                0.637842286113765    -1.397338366673970     3.990084806121901
    H               -0.990157713886235    -0.529338366673970     0.614084806121901
    H                1.303842286113765     0.256661633326030     1.114084806121901
    H               -2.241157713886235    -1.818338366673970     2.279084806121901
    H                2.346842286113765    -0.313338366673970     3.257084806121901
    H               -1.860157713886235    -3.495338366673970     4.196084806121901
    H               -2.329157713886235    -2.003338366673970     4.991084806121901
    H                1.106842286113765    -1.572338366673970     4.929084806121899
    H               -0.962187713886235    -2.930422366673970     5.630424806121900
    C                1.226842286113765     1.362661633326030    -5.288915193878100
    C               -0.592157713886235     1.283661633326030    -1.413915193878099
    C               -0.933157713886235     0.327661633326030    -2.358915193878099
    C                0.337842286113765     2.258661633326030    -1.724915193878099
    C               -0.344157713886235     0.354661633326030    -3.611915193878100
    C                0.927842286113765     2.284661633326030    -2.978915193878099
    C                0.597842286113765     1.325661633326030    -3.925915193878099
    H               -1.071157713886235     1.298661633326030    -0.446915193878099
    H               -1.663157713886235    -0.433338366673970    -2.118915193878099
    H                0.603842286113765     3.000661633326030    -0.985915193878099
    H               -0.612157713886235    -0.398338366673970    -4.339915193878101
    H                1.660842286113765     3.037661633326030    -3.208915193878099
    H                1.311842286113765     0.345661633326030    -5.676915193878100
    H                2.241842286113765     1.753661633326030    -5.199915193878099
    H                0.667692286113765     1.988191633326030    -6.000295193878100

}
e, wfn = energy('scf', return_wfn=True)
gdma(wfn)
dmavals = variable('DMA DISTRIBUTED MULTIPOLES')
charges = np.array(dmavals)
print(charges)
np.save('SSI-007PHE-111PHE-1-dimer.npy', np.array(charges))--------------------------------------------------------------------------

*** tstart() called on ds3
*** at Tue Apr 28 11:53:32 2020

   => Loading Basis Set <=

    Name: CC-PVDZ
    Role: ORBITAL
    Keyword: BASIS
    atoms 1-7, 16-22  entry C          line   138 file /theoryfs2/ds/metcalf/miniconda2/envs/tf2gpu/share/psi4/basis/cc-pvdz.gbs
    atoms 8-15, 23-30 entry H          line    22 file /theoryfs2/ds/metcalf/miniconda2/envs/tf2gpu/share/psi4/basis/cc-pvdz.gbs

         ---------------------------------------------------------
                                   SCF
               by Justin Turney, Rob Parrish, Andy Simmonett
                          and Daniel G. A. Smith
                              RHF Reference
                        1 Threads,    500 MiB Core
         ---------------------------------------------------------

  ==> Geometry <==

    Molecular point group: c1
    Full point group: C1

    Geometry (in Angstrom), charge = 0, multiplicity = 1:

       Center              X                  Y                   Z               Mass
    ------------   -----------------  -----------------  -----------------  -----------------
         C           -1.475157713886    -2.620338366674     4.708084806122    12.000000000000
         C           -0.536157713886    -0.744338366674     1.566084806122    12.000000000000
         C            0.756842286114    -0.328338366674     1.840084806122    12.000000000000
         C           -1.237157713886    -1.489338366674     2.507084806122    12.000000000000
         C           -0.667157713886    -1.817338366674     3.729084806122    12.000000000000
         C            1.340842286114    -0.648338366674     3.044084806122    12.000000000000
         C            0.637842286114    -1.397338366674     3.990084806122    12.000000000000
         H           -0.990157713886    -0.529338366674     0.614084806122     1.007825032230
         H            1.303842286114     0.256661633326     1.114084806122     1.007825032230
         H           -2.241157713886    -1.818338366674     2.279084806122     1.007825032230
         H            2.346842286114    -0.313338366674     3.257084806122     1.007825032230
         H           -1.860157713886    -3.495338366674     4.196084806122     1.007825032230
         H           -2.329157713886    -2.003338366674     4.991084806122     1.007825032230
         H            1.106842286114    -1.572338366674     4.929084806122     1.007825032230
         H           -0.962187713886    -2.930422366674     5.630424806122     1.007825032230
         C            1.226842286114     1.362661633326    -5.288915193878    12.000000000000
         C           -0.592157713886     1.283661633326    -1.413915193878    12.000000000000
         C           -0.933157713886     0.327661633326    -2.358915193878    12.000000000000
         C            0.337842286114     2.258661633326    -1.724915193878    12.000000000000
         C           -0.344157713886     0.354661633326    -3.611915193878    12.000000000000
         C            0.927842286114     2.284661633326    -2.978915193878    12.000000000000
         C            0.597842286114     1.325661633326    -3.925915193878    12.000000000000
         H           -1.071157713886     1.298661633326    -0.446915193878     1.007825032230
         H           -1.663157713886    -0.433338366674    -2.118915193878     1.007825032230
         H            0.603842286114     3.000661633326    -0.985915193878     1.007825032230
         H           -0.612157713886    -0.398338366674    -4.339915193878     1.007825032230
         H            1.660842286114     3.037661633326    -3.208915193878     1.007825032230
         H            1.311842286114     0.345661633326    -5.676915193878     1.007825032230
         H            2.241842286114     1.753661633326    -5.199915193878     1.007825032230
         H            0.667692286114     1.988191633326    -6.000295193878     1.007825032230

  Running in c1 symmetry.

  Rotational constants: A =      0.06614  B =      0.00685  C =      0.00653 [cm^-1]
  Rotational constants: A =   1982.95414  B =    205.40685  C =    195.77873 [MHz]
  Nuclear repulsion =  745.602177669448224

  Charge       = 0
  Multiplicity = 1
  Electrons    = 100
  Nalpha       = 50
  Nbeta        = 50

  ==> Algorithm <==

  SCF Algorithm Type is PK.
  DIIS enabled.
  MOM disabled.
  Fractional occupation disabled.
  Guess Type is SAD.
  Energy threshold   = 1.00e-06
  Density threshold  = 1.00e-10
  Integral threshold = 0.00e+00

  ==> Primary Basis <==

  Basis Set: CC-PVDZ
    Blend: CC-PVDZ
    Number of shells: 132
    Number of basis function: 276
    Number of Cartesian functions: 290
    Spherical Harmonics?: true
    Max angular momentum: 2

  ==> Pre-Iterations <==

   -------------------------------------------------------
    Irrep   Nso     Nmo     Nalpha   Nbeta   Ndocc  Nsocc
   -------------------------------------------------------
     A        276     276       0       0       0       0
   -------------------------------------------------------
    Total     276     276      50      50      50       0
   -------------------------------------------------------

  ==> Integral Setup <==

  Using integral reordering PK algorithm.
  Sizing the integral batches needed.
  Building batch lookup table.
   Calculation information:
      Number of atoms:                  30
      Number of AO shells:             132
      Number of primitives:            388
      Number of atomic orbitals:       290
      Number of basis functions:       276

      Integral cutoff                 1.00e-12
      Number of threads:                 1

	Batch   1 pq = [       0,    9405] index = [             0,44231715] size =     44231715
	Batch   2 pq = [    9405,   13301] index = [      44231715,88464951] size =     44233236
	Batch   3 pq = [   13301,   16290] index = [      88464951,132690195] size =     44225244
	Batch   4 pq = [   16290,   18810] index = [     132690195,176917455] size =     44227260
	Batch   5 pq = [   18810,   21030] index = [     176917455,221140965] size =     44223510
	Batch   6 pq = [   21030,   23037] index = [     221140965,265363203] size =     44222238
	Batch   7 pq = [   23037,   24883] index = [     265363203,309594286] size =     44231083
	Batch   8 pq = [   24883,   26601] index = [     309594286,353819901] size =     44225615
	Batch   9 pq = [   26601,   28214] index = [     353819901,398029005] size =     44209104
	Batch  10 pq = [   28214,   29740] index = [     398029005,442248670] size =     44219665
	Batch  11 pq = [   29740,   31191] index = [     442248670,486454836] size =     44206166
	Batch  12 pq = [   31191,   32578] index = [     486454836,530679331] size =     44224495
	Batch  13 pq = [   32578,   33908] index = [     530679331,574893186] size =     44213855
	Batch  14 pq = [   33908,   35188] index = [     574893186,619115266] size =     44222080
	Batch  15 pq = [   35188,   36423] index = [     619115266,663335676] size =     44220410
	Batch  16 pq = [   36423,   37617] index = [     663335676,707538153] size =     44202477
	Batch  17 pq = [   37617,   38226] index = [     707538153,730632651] size =     23094498
  Task number: 67
  Buffer size: 11059200
  Buffer per thread: 2
  We computed 29575607 shell quartets total.
  Whereas there are 38531031 unique shell quartets.

  ==> DiskJK: Disk-Based J/K Matrices <==

    J tasked:                  Yes
    K tasked:                  Yes
    wK tasked:                  No
    Memory [MiB]:              375
    Schwarz Cutoff:          1E-12

    OpenMP threads:              1

  Minimum eigenvalue in the overlap matrix is 2.8992109858E-04.
  Using Symmetric Orthogonalization.

  SCF Guess: Superposition of Atomic Densities via on-the-fly atomic UHF.

  ==> Iterations <==

                        Total Energy        Delta E     RMS |[F,P]|

   @RHF iter SAD:  -538.54610805001630   -5.38546e+02   0.00000e+00
   @RHF iter   1:  -539.22115550673016   -6.75047e-01   2.32650e-03 DIIS
   @RHF iter   2:  -539.47636934336799   -2.55214e-01   9.52568e-04 DIIS
   @RHF iter   3:  -539.51410973811608   -3.77404e-02   2.17355e-04 DIIS
   @RHF iter   4:  -539.51729000853243   -3.18027e-03   5.07915e-05 DIIS
   @RHF iter   5:  -539.51741687337483   -1.26865e-04   1.58636e-05 DIIS
   @RHF iter   6:  -539.51742865272081   -1.17793e-05   4.57324e-06 DIIS
   @RHF iter   7:  -539.51742986593365   -1.21321e-06   1.15391e-06 DIIS
   @RHF iter   8:  -539.51742997782026   -1.11887e-07   3.50360e-07 DIIS
   @RHF iter   9:  -539.51742999966018   -2.18399e-08   1.63473e-07 DIIS
   @RHF iter  10:  -539.51743000449721   -4.83703e-09   8.01070e-08 DIIS
   @RHF iter  11:  -539.51743000612180   -1.62458e-09   2.82459e-08 DIIS
   @RHF iter  12:  -539.51743000630029   -1.78488e-10   1.27501e-08 DIIS
   @RHF iter  13:  -539.51743000631359   -1.33014e-11   3.64398e-09 DIIS
   @RHF iter  14:  -539.51743000631564   -2.04636e-12   1.06844e-09 DIIS
   @RHF iter  15:  -539.51743000631723   -1.59162e-12   5.00793e-10 DIIS
   @RHF iter  16:  -539.51743000632018   -2.95586e-12   2.22281e-10 DIIS
   @RHF iter  17:  -539.51743000631927    9.09495e-13   1.17246e-10 DIIS
   @RHF iter  18:  -539.51743000631552    3.75167e-12   4.28216e-11 DIIS
  Energy and wave function converged.

  ==> Post-Iterations <==

    Orbital Energies [Eh]
    ---------------------

    Doubly Occupied:

       1A    -11.239514     2A    -11.238762     3A    -11.235491
       4A    -11.234284     5A    -11.230297     6A    -11.230042
       7A    -11.229952     8A    -11.229695     9A    -11.229390
      10A    -11.229123    11A    -11.227745    12A    -11.226401
      13A    -11.226151    14A    -11.224016    15A     -1.157925
      16A     -1.152469    17A     -1.047635    18A     -1.044751
      19A     -1.015426    20A     -1.009298    21A     -0.932968
      22A     -0.930999    23A     -0.827667    24A     -0.823687
      25A     -0.797691    26A     -0.793733    27A     -0.697315
      28A     -0.687765    29A     -0.635041    30A     -0.631079
      31A     -0.629576    32A     -0.627792    33A     -0.585353
      34A     -0.581615    35A     -0.578639    36A     -0.576029
      37A     -0.564966    38A     -0.560016    39A     -0.535717
      40A     -0.534774    41A     -0.491140    42A     -0.487229
      43A     -0.485691    44A     -0.484530    45A     -0.479744
      46A     -0.477656    47A     -0.335068    48A     -0.329167
      49A     -0.323978    50A     -0.319862

    Virtual:

      51A      0.133259    52A      0.138371    53A      0.139982
      54A      0.147202    55A      0.178661    56A      0.190616
      57A      0.200129    58A      0.207555    59A      0.215363
      60A      0.230906    61A      0.242447    62A      0.250537
      63A      0.260702    64A      0.267109    65A      0.270844
      66A      0.274663    67A      0.283410    68A      0.286381
      69A      0.294019    70A      0.340705    71A      0.364752
      72A      0.373290    73A      0.379437    74A      0.380163
      75A      0.441980    76A      0.462021    77A      0.468601
      78A      0.472929    79A      0.477849    80A      0.483403
      81A      0.500559    82A      0.505816    83A      0.559901
      84A      0.575815    85A      0.596472    86A      0.602038
      87A      0.621707    88A      0.637191    89A      0.675498
      90A      0.681288    91A      0.696203    92A      0.698168
      93A      0.702257    94A      0.708365    95A      0.713799
      96A      0.721491    97A      0.736363    98A      0.736964
      99A      0.740986   100A      0.742997   101A      0.743368
     102A      0.747419   103A      0.751394   104A      0.756362
     105A      0.763750   106A      0.774507   107A      0.775796
     108A      0.790816   109A      0.804042   110A      0.824436
     111A      0.827991   112A      0.841357   113A      0.852660
     114A      0.863401   115A      0.867834   116A      0.876949
     117A      0.880750   118A      0.887260   119A      0.890825
     120A      0.895424   121A      0.898606   122A      0.900823
     123A      0.908489   124A      0.928691   125A      0.929903
     126A      0.933493   127A      0.939014   128A      0.943360
     129A      0.957576   130A      0.970661   131A      0.995156
     132A      1.005011   133A      1.010709   134A      1.037821
     135A      1.050468   136A      1.065599   137A      1.128526
     138A      1.129880   139A      1.139207   140A      1.149789
     141A      1.156393   142A      1.160345   143A      1.169443
     144A      1.179589   145A      1.203182   146A      1.213953
     147A      1.239401   148A      1.248188   149A      1.248946
     150A      1.252053   151A      1.255441   152A      1.258177
     153A      1.264399   154A      1.288011   155A      1.296597
     156A      1.310097   157A      1.314742   158A      1.317850
     159A      1.321665   160A      1.331414   161A      1.342647
     162A      1.347679   163A      1.413256   164A      1.430361
     165A      1.507834   166A      1.519341   167A      1.527098
     168A      1.543805   169A      1.564708   170A      1.575691
     171A      1.610643   172A      1.615441   173A      1.669584
     174A      1.674123   175A      1.685663   176A      1.704281
     177A      1.736166   178A      1.741044   179A      1.745823
     180A      1.758135   181A      1.762719   182A      1.768135
     183A      1.791707   184A      1.800657   185A      1.812998
     186A      1.816781   187A      1.849684   188A      1.871328
     189A      1.886486   190A      1.888456   191A      1.897514
     192A      1.901159   193A      1.913018   194A      1.916469
     195A      1.918614   196A      1.919758   197A      1.923811
     198A      1.934725   199A      1.947131   200A      1.951757
     201A      1.959027   202A      1.963694   203A      1.974620
     204A      1.983701   205A      1.989965   206A      1.997970
     207A      1.999239   208A      2.015367   209A      2.034944
     210A      2.046093   211A      2.061842   212A      2.071318
     213A      2.077771   214A      2.091441   215A      2.113212
     216A      2.117015   217A      2.139257   218A      2.152743
     219A      2.162661   220A      2.164004   221A      2.174615
     222A      2.179804   223A      2.181861   224A      2.196288
     225A      2.215367   226A      2.223295   227A      2.252952
     228A      2.264650   229A      2.275157   230A      2.282079
     231A      2.285824   232A      2.292976   233A      2.304793
     234A      2.308380   235A      2.321164   236A      2.341461
     237A      2.364095   238A      2.396177   239A      2.455303
     240A      2.474722   241A      2.480886   242A      2.486893
     243A      2.496907   244A      2.515790   245A      2.544383
     246A      2.546195   247A      2.626693   248A      2.651737
     249A      2.724692   250A      2.745461   251A      2.762369
     252A      2.764986   253A      2.767518   254A      2.781978
     255A      2.799662   256A      2.803609   257A      2.814011
     258A      2.843980   259A      2.847815   260A      2.850472
     261A      2.877167   262A      2.883895   263A      2.996764
     264A      2.997569   265A      3.015671   266A      3.022196
     267A      3.030709   268A      3.067079   269A      3.164099
     270A      3.184939   271A      3.217775   272A      3.223659
     273A      3.312625   274A      3.325971   275A      3.988462
     276A      3.994625

    Final Occupation by Irrep:
              A
    DOCC [    50 ]

  @RHF Final Energy:  -539.51743000631552

   => Energetics <=

    Nuclear Repulsion Energy =            745.6021776694482242
    One-Electron Energy =               -2207.4295079157000146
    Two-Electron Energy =                 922.3099002399361552
    Total Energy =                       -539.5174300063155215

Computation Completed

Properties will be evaluated at   0.000000,   0.000000,   0.000000 [a0]

Properties computed using the SCF density matrix

  Nuclear Dipole Moment: [e a0]
     X:    -0.4553      Y:    -1.6996      Z:    -0.9062

  Electronic Dipole Moment: [e a0]
     X:     0.4399      Y:     1.6802      Z:     0.8118

  Dipole Moment: [e a0]
     X:    -0.0154      Y:    -0.0194      Z:    -0.0945     Total:     0.0977

  Dipole Moment: [D]
     X:    -0.0392      Y:    -0.0494      Z:    -0.2401     Total:     0.2482

*** tstop() called on ds3 at Tue Apr 28 12:00:10 2020
Module time:
	user time   =     263.64 seconds =       4.39 minutes
	system time =     121.62 seconds =       2.03 minutes
	total time  =        398 seconds =       6.63 minutes
Total time:
	user time   =     263.64 seconds =       4.39 minutes
	system time =     121.62 seconds =       2.03 minutes
	total time  =        398 seconds =       6.63 minutes
                                     G D M A

                                 by Anthony Stone

                           version 2.2.06, 22 June 2011

               Distributed Multipoles from Gaussian wavefunctions

Starting at 12:0:10 on 28 Apr 2020

Using SCF density matrix from file ./SSI/SSI-007PHE-111PHE-1-dimer.test.18555.fchk

                         Distributed Multipole Analysis

Standard DMA

Positions and radii in angstrom
Multipole moments in atomic units, ea_0^k for rank k

C          x = -1.475158  y = -2.620338  z =  4.708085 angstrom
           Maximum rank =  0   Radius =  0.650 angstrom
                   Q00  =  -0.208729

C          x = -0.536158  y = -0.744338  z =  1.566085 angstrom
           Maximum rank =  0   Radius =  0.650 angstrom
                   Q00  =  -0.064144

C          x =  0.756842  y = -0.328338  z =  1.840085 angstrom
           Maximum rank =  0   Radius =  0.650 angstrom
                   Q00  =  -0.083486

C          x = -1.237158  y = -1.489338  z =  2.507085 angstrom
           Maximum rank =  0   Radius =  0.650 angstrom
                   Q00  =   0.008438

C          x = -0.667158  y = -1.817338  z =  3.729085 angstrom
           Maximum rank =  0   Radius =  0.650 angstrom
                   Q00  =  -0.092783

C          x =  1.340842  y = -0.648338  z =  3.044085 angstrom
           Maximum rank =  0   Radius =  0.650 angstrom
                   Q00  =  -0.061087

C          x =  0.637842  y = -1.397338  z =  3.990085 angstrom
           Maximum rank =  0   Radius =  0.650 angstrom
                   Q00  =  -0.088125

H          x = -0.990158  y = -0.529338  z =  0.614085 angstrom
           Maximum rank =  0   Radius =  0.325 angstrom
                   Q00  =   0.058370

H          x =  1.303842  y =  0.256662  z =  1.114085 angstrom
           Maximum rank =  0   Radius =  0.325 angstrom
                   Q00  =   0.060832

H          x = -2.241158  y = -1.818338  z =  2.279085 angstrom
           Maximum rank =  0   Radius =  0.325 angstrom
                   Q00  =   0.049276

H          x =  2.346842  y = -0.313338  z =  3.257085 angstrom
           Maximum rank =  0   Radius =  0.325 angstrom
                   Q00  =   0.061684

H          x = -1.860158  y = -3.495338  z =  4.196085 angstrom
           Maximum rank =  0   Radius =  0.325 angstrom
                   Q00  =   0.101365

H          x = -2.329158  y = -2.003338  z =  4.991085 angstrom
           Maximum rank =  0   Radius =  0.325 angstrom
                   Q00  =   0.099001

H          x =  1.106842  y = -1.572338  z =  4.929085 angstrom
           Maximum rank =  0   Radius =  0.325 angstrom
                   Q00  =   0.056372

H          x = -0.962188  y = -2.930422  z =  5.630425 angstrom
           Maximum rank =  0   Radius =  0.325 angstrom
                   Q00  =   0.101682

C          x =  1.226842  y =  1.362662  z = -5.288915 angstrom
           Maximum rank =  0   Radius =  0.650 angstrom
                   Q00  =  -0.199050

C          x = -0.592158  y =  1.283662  z = -1.413915 angstrom
           Maximum rank =  0   Radius =  0.650 angstrom
                   Q00  =  -0.095304

C          x = -0.933158  y =  0.327662  z = -2.358915 angstrom
           Maximum rank =  0   Radius =  0.650 angstrom
                   Q00  =  -0.081210

C          x =  0.337842  y =  2.258662  z = -1.724915 angstrom
           Maximum rank =  0   Radius =  0.650 angstrom
                   Q00  =  -0.049322

C          x = -0.344158  y =  0.354662  z = -3.611915 angstrom
           Maximum rank =  0   Radius =  0.650 angstrom
                   Q00  =   0.014545

C          x =  0.927842  y =  2.284662  z = -2.978915 angstrom
           Maximum rank =  0   Radius =  0.650 angstrom
                   Q00  =  -0.086318

C          x =  0.597842  y =  1.325662  z = -3.925915 angstrom
           Maximum rank =  0   Radius =  0.650 angstrom
                   Q00  =  -0.102480

H          x = -1.071158  y =  1.298662  z = -0.446915 angstrom
           Maximum rank =  0   Radius =  0.325 angstrom
                   Q00  =   0.060740

H          x = -1.663158  y = -0.433338  z = -2.118915 angstrom
           Maximum rank =  0   Radius =  0.325 angstrom
                   Q00  =   0.063018

H          x =  0.603842  y =  3.000662  z = -0.985915 angstrom
           Maximum rank =  0   Radius =  0.325 angstrom
                   Q00  =   0.064617

H          x = -0.612158  y = -0.398338  z = -4.339915 angstrom
           Maximum rank =  0   Radius =  0.325 angstrom
                   Q00  =   0.056268

H          x =  1.660842  y =  3.037662  z = -3.208915 angstrom
           Maximum rank =  0   Radius =  0.325 angstrom
                   Q00  =   0.055393

H          x =  1.311842  y =  0.345662  z = -5.676915 angstrom
           Maximum rank =  0   Radius =  0.325 angstrom
                   Q00  =   0.097955

H          x =  2.241842  y =  1.753662  z = -5.199915 angstrom
           Maximum rank =  0   Radius =  0.325 angstrom
                   Q00  =   0.096680

H          x =  0.667692  y =  1.988192  z = -6.000295 angstrom
           Maximum rank =  0   Radius =  0.325 angstrom
                   Q00  =   0.105806

Total multipoles referred to origin at
           x =   0.000000,  y =    0.000000,  z =    0.000000 angstrom
                   Q00  =  -0.000000

Finished at 12:0:10 on 28 Apr 2020

  DMA results are available in the Python driver through the
	  variable('DMA DISTRIBUTED MULTIPOLES')
  and
	  variable('DMA TOTAL MULTIPOLES')
  commands.

    Psi4 stopped on: Tuesday, 28 April 2020 12:00PM
    Psi4 wall time for execution: 0:06:38.18

*** Psi4 exiting successfully. Buy a developer a beer!
