                               Psi4 1.3.2 release

  ==> Input File <==

--------------------------------------------------------------------------
import numpy as np
set {scf_type pk
basis cc-pvdz
d_convergence 10
gdma_switch   0
gdma_limit    0
gdma_origin   [ 0.0,  0.0,  0.0 ]
}
molecule test {
    units Angstrom
    -1 1
    --
    -1 1
    C               -2.164028711836614    -1.957001044043235     2.697238535838482
    C                0.351971288163386    -0.002001044043235     0.666238535838482
    C                0.084971288163386    -0.977001044043235     1.657238535838482
    C               -1.350028711836613    -0.988001044043235     1.866238535838483
    C               -1.857028711836613    -0.026001044043235     1.063238535838483
    C                1.629971288163387     0.263998955956765     0.205238535838482
    C                2.681971288163386    -0.499001044043235     0.704238535838482
    C                2.471971288163386    -1.487001044043236     1.683238535838482
    C                1.169971288163387    -1.753001044043235     2.140238535838482
    N               -0.836028711836614     0.586998955956765     0.361238535838482
    H                1.801971288163386     1.034998955956765    -0.526761464161518
    H                3.686971288163386    -0.313001044043235     0.348238535838482
    H               -1.005028711836613     1.199998955956765    -0.443761464161518
    H                3.308971288163386    -2.065001044043235     2.055238535838482
    H               -2.913028711836614     0.189998955956765     0.941238535838482
    H                0.995971288163386    -2.541001044043235     2.860238535838482
    H               -1.933028711836613    -2.962001044043235     2.340238535838482
    H               -3.223028711836613    -1.774001044043235     2.510238535838482
    H               -1.971388711836613    -1.916601044043235     3.779488535838482
    C               -0.306028711836614     0.850998955956765    -4.165761464161518
    C               -0.404028711836614     1.554998955956765    -2.824761464161518
    O               -1.484028711836613     1.530998955956765    -2.198761464161518
    O                0.612971288163386     2.170998955956765    -2.411761464161518
    H               -0.297028711836614    -0.223001044043235    -4.010761464161518
    H                0.634971288163386     1.107998955956765    -4.656761464161518
    H               -1.146948711836614     1.112758955956765    -4.824801464161518

}
e, wfn = energy('scf', return_wfn=True)
gdma(wfn)
dmavals = variable('DMA DISTRIBUTED MULTIPOLES')
charges = np.array(dmavals)
print(charges)
np.save('SSI-099TRP-272GLU-1-dimer.npy', np.array(charges))--------------------------------------------------------------------------

*** tstart() called on ds3
*** at Mon Apr 27 11:26:14 2020

   => Loading Basis Set <=

    Name: CC-PVDZ
    Role: ORBITAL
    Keyword: BASIS
    atoms 1-9, 20-21   entry C          line   138 file /theoryfs2/ds/metcalf/miniconda2/envs/tf2gpu/share/psi4/basis/cc-pvdz.gbs
    atoms 10           entry N          line   168 file /theoryfs2/ds/metcalf/miniconda2/envs/tf2gpu/share/psi4/basis/cc-pvdz.gbs
    atoms 11-19, 24-26 entry H          line    22 file /theoryfs2/ds/metcalf/miniconda2/envs/tf2gpu/share/psi4/basis/cc-pvdz.gbs
    atoms 22-23        entry O          line   198 file /theoryfs2/ds/metcalf/miniconda2/envs/tf2gpu/share/psi4/basis/cc-pvdz.gbs

         ---------------------------------------------------------
                                   SCF
               by Justin Turney, Rob Parrish, Andy Simmonett
                          and Daniel G. A. Smith
                              RHF Reference
                        1 Threads,    500 MiB Core
         ---------------------------------------------------------

  ==> Geometry <==

    Molecular point group: c1
    Full point group: C1

    Geometry (in Angstrom), charge = -1, multiplicity = 1:

       Center              X                  Y                   Z               Mass
    ------------   -----------------  -----------------  -----------------  -----------------
         C           -2.164028711837    -1.957001044043     2.697238535838    12.000000000000
         C            0.351971288163    -0.002001044043     0.666238535838    12.000000000000
         C            0.084971288163    -0.977001044043     1.657238535838    12.000000000000
         C           -1.350028711837    -0.988001044043     1.866238535838    12.000000000000
         C           -1.857028711837    -0.026001044043     1.063238535838    12.000000000000
         C            1.629971288163     0.263998955957     0.205238535838    12.000000000000
         C            2.681971288163    -0.499001044043     0.704238535838    12.000000000000
         C            2.471971288163    -1.487001044043     1.683238535838    12.000000000000
         C            1.169971288163    -1.753001044043     2.140238535838    12.000000000000
         N           -0.836028711837     0.586998955957     0.361238535838    14.003074004430
         H            1.801971288163     1.034998955957    -0.526761464162     1.007825032230
         H            3.686971288163    -0.313001044043     0.348238535838     1.007825032230
         H           -1.005028711837     1.199998955957    -0.443761464162     1.007825032230
         H            3.308971288163    -2.065001044043     2.055238535838     1.007825032230
         H           -2.913028711837     0.189998955957     0.941238535838     1.007825032230
         H            0.995971288163    -2.541001044043     2.860238535838     1.007825032230
         H           -1.933028711837    -2.962001044043     2.340238535838     1.007825032230
         H           -3.223028711837    -1.774001044043     2.510238535838     1.007825032230
         H           -1.971388711837    -1.916601044043     3.779488535838     1.007825032230
         C           -0.306028711837     0.850998955957    -4.165761464162    12.000000000000
         C           -0.404028711837     1.554998955957    -2.824761464162    12.000000000000
         O           -1.484028711837     1.530998955957    -2.198761464162    15.994914619570
         O            0.612971288163     2.170998955957    -2.411761464162    15.994914619570
         H           -0.297028711837    -0.223001044043    -4.010761464162     1.007825032230
         H            0.634971288163     1.107998955957    -4.656761464162     1.007825032230
         H           -1.146948711837     1.112758955957    -4.824801464162     1.007825032230

  Running in c1 symmetry.

  Rotational constants: A =      0.03368  B =      0.01428  C =      0.01082 [cm^-1]
  Rotational constants: A =   1009.76696  B =    428.20909  C =    324.32535 [MHz]
  Nuclear repulsion =  827.819434868524354

  Charge       = -1
  Multiplicity = 1
  Electrons    = 102
  Nalpha       = 51
  Nbeta        = 51

  ==> Algorithm <==

  SCF Algorithm Type is PK.
  DIIS enabled.
  MOM disabled.
  Fractional occupation disabled.
  Guess Type is SAD.
  Energy threshold   = 1.00e-06
  Density threshold  = 1.00e-10
  Integral threshold = 0.00e+00

  ==> Primary Basis <==

  Basis Set: CC-PVDZ
    Blend: CC-PVDZ
    Number of shells: 120
    Number of basis function: 256
    Number of Cartesian functions: 270
    Spherical Harmonics?: true
    Max angular momentum: 2

  ==> Pre-Iterations <==

   -------------------------------------------------------
    Irrep   Nso     Nmo     Nalpha   Nbeta   Ndocc  Nsocc
   -------------------------------------------------------
     A        256     256       0       0       0       0
   -------------------------------------------------------
    Total     256     256      51      51      51       0
   -------------------------------------------------------

  ==> Integral Setup <==

  Using integral reordering PK algorithm.
  Sizing the integral batches needed.
  Building batch lookup table.
   Calculation information:
      Number of atoms:                  26
      Number of AO shells:             120
      Number of primitives:            368
      Number of atomic orbitals:       270
      Number of basis functions:       256

      Integral cutoff                 1.00e-12
      Number of threads:                 1

	Batch   1 pq = [       0,    9405] index = [             0,44231715] size =     44231715
	Batch   2 pq = [    9405,   13301] index = [      44231715,88464951] size =     44233236
	Batch   3 pq = [   13301,   16290] index = [      88464951,132690195] size =     44225244
	Batch   4 pq = [   16290,   18810] index = [     132690195,176917455] size =     44227260
	Batch   5 pq = [   18810,   21030] index = [     176917455,221140965] size =     44223510
	Batch   6 pq = [   21030,   23037] index = [     221140965,265363203] size =     44222238
	Batch   7 pq = [   23037,   24883] index = [     265363203,309594286] size =     44231083
	Batch   8 pq = [   24883,   26601] index = [     309594286,353819901] size =     44225615
	Batch   9 pq = [   26601,   28214] index = [     353819901,398029005] size =     44209104
	Batch  10 pq = [   28214,   29740] index = [     398029005,442248670] size =     44219665
	Batch  11 pq = [   29740,   31191] index = [     442248670,486454836] size =     44206166
	Batch  12 pq = [   31191,   32578] index = [     486454836,530679331] size =     44224495
	Batch  13 pq = [   32578,   32896] index = [     530679331,541089856] size =     10410525
  Task number: 49
  Buffer size: 11059200
  Buffer per thread: 2
  We computed 24579683 shell quartets total.
  Whereas there are 26357430 unique shell quartets.

  ==> DiskJK: Disk-Based J/K Matrices <==

    J tasked:                  Yes
    K tasked:                  Yes
    wK tasked:                  No
    Memory [MiB]:              375
    Schwarz Cutoff:          1E-12

    OpenMP threads:              1

  Minimum eigenvalue in the overlap matrix is 2.5543639905E-04.
  Using Symmetric Orthogonalization.

  SCF Guess: Superposition of Atomic Densities via on-the-fly atomic UHF.

  ==> Iterations <==

                        Total Energy        Delta E     RMS |[F,P]|

   @RHF iter SAD:  -626.51234834569118   -6.26512e+02   0.00000e+00
   @RHF iter   1:  -627.45427364936859   -9.41925e-01   3.12693e-03 DIIS
   @RHF iter   2:  -627.73861391272737   -2.84340e-01   1.63462e-03 DIIS
   @RHF iter   3:  -627.80679513523319   -6.81812e-02   3.08643e-04 DIIS
   @RHF iter   4:  -627.81084872639997   -4.05359e-03   1.13194e-04 DIIS
   @RHF iter   5:  -627.81137284592603   -5.24120e-04   2.04050e-05 DIIS
   @RHF iter   6:  -627.81139592391662   -2.30780e-05   1.01817e-05 DIIS
   @RHF iter   7:  -627.81140086333869   -4.93942e-06   2.73539e-06 DIIS
   @RHF iter   8:  -627.81140171353627   -8.50198e-07   1.00580e-06 DIIS
   @RHF iter   9:  -627.81140183898970   -1.25453e-07   3.89895e-07 DIIS
   @RHF iter  10:  -627.81140185367417   -1.46845e-08   1.23210e-07 DIIS
   @RHF iter  11:  -627.81140185564368   -1.96951e-09   5.06016e-08 DIIS
   @RHF iter  12:  -627.81140185601237   -3.68686e-10   2.95377e-08 DIIS
   @RHF iter  13:  -627.81140185615641   -1.44041e-10   1.39843e-08 DIIS
   @RHF iter  14:  -627.81140185618676   -3.03544e-11   4.93241e-09 DIIS
   @RHF iter  15:  -627.81140185619779   -1.10276e-11   1.41693e-09 DIIS
   @RHF iter  16:  -627.81140185619893   -1.13687e-12   5.91062e-10 DIIS
   @RHF iter  17:  -627.81140185619518    3.75167e-12   2.79981e-10 DIIS
   @RHF iter  18:  -627.81140185619779   -2.61480e-12   1.01367e-10 DIIS
   @RHF iter  19:  -627.81140185619563    2.16005e-12   4.70918e-11 DIIS
  Energy and wave function converged.

  ==> Post-Iterations <==

    Orbital Energies [Eh]
    ---------------------

    Doubly Occupied:

       1A    -20.302360     2A    -20.294809     3A    -15.447431
       4A    -11.151678     5A    -11.141023     6A    -11.132957
       7A    -11.131666     8A    -11.121549     9A    -11.113139
      10A    -11.111527    11A    -11.104045    12A    -11.099760
      13A    -11.099459    14A    -11.071977    15A     -1.188660
      16A     -1.156850    17A     -1.073495    18A     -1.002708
      19A     -0.950685    20A     -0.875901    21A     -0.867335
      22A     -0.821831    23A     -0.814761    24A     -0.716178
      25A     -0.678141    26A     -0.628913    27A     -0.586478
      28A     -0.541230    29A     -0.533237    30A     -0.524485
      31A     -0.479439    32A     -0.476630    33A     -0.465793
      34A     -0.452507    35A     -0.440794    36A     -0.439818
      37A     -0.432217    38A     -0.431412    39A     -0.418378
      40A     -0.415185    41A     -0.381923    42A     -0.371271
      43A     -0.353188    44A     -0.338076    45A     -0.333302
      46A     -0.250018    47A     -0.221474    48A     -0.209391
      49A     -0.201483    50A     -0.171725    51A     -0.154923

    Virtual:

      52A      0.244320    53A      0.280338    54A      0.285318
      55A      0.306272    56A      0.321879    57A      0.336628
      58A      0.343789    59A      0.346580    60A      0.367152
      61A      0.371356    62A      0.375269    63A      0.382315
      64A      0.401712    65A      0.434515    66A      0.455442
      67A      0.472580    68A      0.480890    69A      0.499199
      70A      0.536727    71A      0.541918    72A      0.553018
      73A      0.565717    74A      0.589067    75A      0.602667
      76A      0.627423    77A      0.637293    78A      0.701326
      79A      0.708327    80A      0.719358    81A      0.731305
      82A      0.739180    83A      0.754653    84A      0.786860
      85A      0.803839    86A      0.808714    87A      0.821483
      88A      0.830527    89A      0.840390    90A      0.847039
      91A      0.851007    92A      0.854546    93A      0.860256
      94A      0.863358    95A      0.877420    96A      0.887053
      97A      0.895272    98A      0.915171    99A      0.918743
     100A      0.935044   101A      0.947963   102A      0.964508
     103A      0.971371   104A      0.979532   105A      0.987613
     106A      1.002116   107A      1.002428   108A      1.005492
     109A      1.012558   110A      1.018507   111A      1.033538
     112A      1.042214   113A      1.052808   114A      1.066905
     115A      1.072815   116A      1.086681   117A      1.104513
     118A      1.106913   119A      1.125079   120A      1.163060
     121A      1.168690   122A      1.191278   123A      1.212608
     124A      1.220276   125A      1.233012   126A      1.246388
     127A      1.258460   128A      1.274931   129A      1.294220
     130A      1.307244   131A      1.317533   132A      1.340015
     133A      1.347246   134A      1.358865   135A      1.363374
     136A      1.370625   137A      1.392771   138A      1.408207
     139A      1.431421   140A      1.433916   141A      1.447345
     142A      1.459611   143A      1.482495   144A      1.495041
     145A      1.522569   146A      1.539384   147A      1.542060
     148A      1.571415   149A      1.582068   150A      1.623736
     151A      1.639567   152A      1.667583   153A      1.691983
     154A      1.699622   155A      1.708957   156A      1.721628
     157A      1.733837   158A      1.757648   159A      1.772891
     160A      1.778013   161A      1.789823   162A      1.818752
     163A      1.820720   164A      1.829068   165A      1.870001
     166A      1.885122   167A      1.895351   168A      1.922447
     169A      1.923871   170A      1.942187   171A      1.954221
     172A      2.000969   173A      2.007490   174A      2.015517
     175A      2.024389   176A      2.035992   177A      2.041108
     178A      2.045824   179A      2.057082   180A      2.069071
     181A      2.074841   182A      2.075934   183A      2.085858
     184A      2.091238   185A      2.118745   186A      2.126471
     187A      2.145386   188A      2.171589   189A      2.186544
     190A      2.193794   191A      2.204746   192A      2.208070
     193A      2.217973   194A      2.242642   195A      2.249982
     196A      2.250580   197A      2.258554   198A      2.277621
     199A      2.288405   200A      2.296868   201A      2.315446
     202A      2.338459   203A      2.347257   204A      2.391716
     205A      2.406347   206A      2.415491   207A      2.430339
     208A      2.443094   209A      2.468340   210A      2.484341
     211A      2.500140   212A      2.523377   213A      2.550489
     214A      2.569573   215A      2.593964   216A      2.632034
     217A      2.650412   218A      2.694579   219A      2.713974
     220A      2.734746   221A      2.744406   222A      2.755657
     223A      2.781563   224A      2.810919   225A      2.846080
     226A      2.868896   227A      2.880332   228A      2.897432
     229A      2.912331   230A      2.923518   231A      2.942162
     232A      2.963257   233A      2.976620   234A      2.980393
     235A      3.008191   236A      3.031097   237A      3.108708
     238A      3.135319   239A      3.164349   240A      3.186846
     241A      3.230284   242A      3.239195   243A      3.255316
     244A      3.314983   245A      3.323618   246A      3.334929
     247A      3.409135   248A      3.515879   249A      3.603213
     250A      3.754656   251A      3.791775   252A      3.889566
     253A      4.035911   254A      4.044967   255A      4.053358
     256A      4.169390

    Final Occupation by Irrep:
              A
    DOCC [    51 ]

  @RHF Final Energy:  -627.81140185619563

   => Energetics <=

    Nuclear Repulsion Energy =            827.8194348685243540
    One-Electron Energy =               -2513.8152417445762694
    Two-Electron Energy =                1058.1844050198565128
    Total Energy =                       -627.8114018561955163

Computation Completed

Properties will be evaluated at   0.000000,   0.000000,   0.000000 [a0]

Properties computed using the SCF density matrix

  Nuclear Dipole Moment: [e a0]
     X:    -1.9335      Y:    -6.6857      Z:     0.3256

  Electronic Dipole Moment: [e a0]
     X:     1.8983      Y:     4.4095      Z:     1.8761

  Dipole Moment: [e a0]
     X:    -0.0352      Y:    -2.2762      Z:     2.2017     Total:     3.1670

  Dipole Moment: [D]
     X:    -0.0895      Y:    -5.7856      Z:     5.5961     Total:     8.0497

*** tstop() called on ds3 at Mon Apr 27 11:46:35 2020
Module time:
	user time   =     223.49 seconds =       3.72 minutes
	system time =      84.07 seconds =       1.40 minutes
	total time  =       1221 seconds =      20.35 minutes
Total time:
	user time   =     223.49 seconds =       3.72 minutes
	system time =      84.07 seconds =       1.40 minutes
	total time  =       1221 seconds =      20.35 minutes
                                     G D M A

                                 by Anthony Stone

                           version 2.2.06, 22 June 2011

               Distributed Multipoles from Gaussian wavefunctions

Starting at 11:46:35 on 27 Apr 2020

Using SCF density matrix from file ./SSI/SSI-099TRP-272GLU-1-dimer.test.2963.fchk

                         Distributed Multipole Analysis

Standard DMA

Positions and radii in angstrom
Multipole moments in atomic units, ea_0^k for rank k

C          x = -2.164029  y = -1.957001  z =  2.697239 angstrom
           Maximum rank =  0   Radius =  0.650 angstrom
                   Q00  =  -0.195340

C          x =  0.351971  y = -0.002001  z =  0.666239 angstrom
           Maximum rank =  0   Radius =  0.650 angstrom
                   Q00  =   0.325628

C          x =  0.084971  y = -0.977001  z =  1.657239 angstrom
           Maximum rank =  0   Radius =  0.650 angstrom
                   Q00  =  -0.089397

C          x = -1.350029  y = -0.988001  z =  1.866239 angstrom
           Maximum rank =  0   Radius =  0.650 angstrom
                   Q00  =  -0.175942

C          x = -1.857029  y = -0.026001  z =  1.063239 angstrom
           Maximum rank =  0   Radius =  0.650 angstrom
                   Q00  =   0.145356

C          x =  1.629971  y =  0.263999  z =  0.205239 angstrom
           Maximum rank =  0   Radius =  0.650 angstrom
                   Q00  =  -0.098083

C          x =  2.681971  y = -0.499001  z =  0.704239 angstrom
           Maximum rank =  0   Radius =  0.650 angstrom
                   Q00  =  -0.057626

C          x =  2.471971  y = -1.487001  z =  1.683239 angstrom
           Maximum rank =  0   Radius =  0.650 angstrom
                   Q00  =  -0.109408

C          x =  1.169971  y = -1.753001  z =  2.140239 angstrom
           Maximum rank =  0   Radius =  0.650 angstrom
                   Q00  =  -0.107030

N          x = -0.836029  y =  0.586999  z =  0.361239 angstrom
           Maximum rank =  0   Radius =  0.650 angstrom
                   Q00  =  -0.524390

H          x =  1.801971  y =  1.034999  z = -0.526761 angstrom
           Maximum rank =  0   Radius =  0.325 angstrom
                   Q00  =   0.111024

H          x =  3.686971  y = -0.313001  z =  0.348239 angstrom
           Maximum rank =  0   Radius =  0.325 angstrom
                   Q00  =   0.039210

H          x = -1.005029  y =  1.199999  z = -0.443761 angstrom
           Maximum rank =  0   Radius =  0.325 angstrom
                   Q00  =   0.277292

H          x =  3.308971  y = -2.065001  z =  2.055239 angstrom
           Maximum rank =  0   Radius =  0.325 angstrom
                   Q00  =   0.030651

H          x = -2.913029  y =  0.189999  z =  0.941239 angstrom
           Maximum rank =  0   Radius =  0.325 angstrom
                   Q00  =   0.080420

H          x =  0.995971  y = -2.541001  z =  2.860239 angstrom
           Maximum rank =  0   Radius =  0.325 angstrom
                   Q00  =   0.040318

H          x = -1.933029  y = -2.962001  z =  2.340239 angstrom
           Maximum rank =  0   Radius =  0.325 angstrom
                   Q00  =   0.081363

H          x = -3.223029  y = -1.774001  z =  2.510239 angstrom
           Maximum rank =  0   Radius =  0.325 angstrom
                   Q00  =   0.089897

H          x = -1.971389  y = -1.916601  z =  3.779489 angstrom
           Maximum rank =  0   Radius =  0.325 angstrom
                   Q00  =   0.073543

C          x = -0.306029  y =  0.850999  z = -4.165761 angstrom
           Maximum rank =  0   Radius =  0.650 angstrom
                   Q00  =  -0.272837

C          x = -0.404029  y =  1.554999  z = -2.824761 angstrom
           Maximum rank =  0   Radius =  0.650 angstrom
                   Q00  =   0.928761

O          x = -1.484029  y =  1.530999  z = -2.198761 angstrom
           Maximum rank =  0   Radius =  0.650 angstrom
                   Q00  =  -0.895383

O          x =  0.612971  y =  2.170999  z = -2.411761 angstrom
           Maximum rank =  0   Radius =  0.650 angstrom
                   Q00  =  -0.917151

H          x = -0.297029  y = -0.223001  z = -4.010761 angstrom
           Maximum rank =  0   Radius =  0.325 angstrom
                   Q00  =   0.085186

H          x =  0.634971  y =  1.107999  z = -4.656761 angstrom
           Maximum rank =  0   Radius =  0.325 angstrom
                   Q00  =   0.063387

H          x = -1.146949  y =  1.112759  z = -4.824801 angstrom
           Maximum rank =  0   Radius =  0.325 angstrom
                   Q00  =   0.070552

Total multipoles referred to origin at
           x =   0.000000,  y =    0.000000,  z =    0.000000 angstrom
                   Q00  =  -1.000000

Finished at 11:46:35 on 27 Apr 2020

  DMA results are available in the Python driver through the
	  variable('DMA DISTRIBUTED MULTIPOLES')
  and
	  variable('DMA TOTAL MULTIPOLES')
  commands.

    Psi4 stopped on: Monday, 27 April 2020 11:46AM
    Psi4 wall time for execution: 0:20:21.27

*** Psi4 exiting successfully. Buy a developer a beer!
