                               Psi4 1.3.2 release

  ==> Input File <==

--------------------------------------------------------------------------
import numpy as np
set {scf_type pk
basis cc-pvdz
d_convergence 10
gdma_switch   0
gdma_limit    0
gdma_origin   [ 0.0,  0.0,  0.0 ]
}
molecule test {
    units Angstrom
    0 1
    --
    0 1
    C                0.421581815251468     0.048649285229837     0.236769938536322
    C                2.102581815251467     0.851649285229837     2.323769938536322
    S                0.364581815251468     0.480649285229837     1.979769938536322
    H               -0.575418184748532    -0.238350714770163    -0.099230061463678
    H                1.108581815251467    -0.780350714770163     0.073769938536322
    H                0.764581815251468     0.904649285229837    -0.342230061463678
    H                2.148581815251468     1.439649285229837     3.241769938536322
    H                2.496581815251468     1.459649285229837     1.508769938536322
    H                2.723881815251468    -0.046746714770163     2.453659938536322
    C               -1.121418184748532    -1.343350714770163    -3.021230061463678
    C               -2.252418184748532    -0.576350714770163    -3.694230061463678
    H               -1.455418184748533    -1.776350714770163    -2.080230061463678
    H               -0.272418184748532    -0.684350714770163    -2.835230061463678
    H               -0.808418184748532    -2.161350714770163    -3.669230061463678
    H               -3.078418184748532    -1.265350714770163    -3.875230061463678
    H               -2.597501184748532     0.240082285229837    -3.042805061463678
    H               -1.903641184748532    -0.201360714770163    -4.667748061463678

}
e, wfn = energy('scf', return_wfn=True)
gdma(wfn)
dmavals = variable('DMA DISTRIBUTED MULTIPOLES')
charges = np.array(dmavals)
print(charges)
np.save('SSI-022MET-041VAL-1-dimer.npy', np.array(charges))--------------------------------------------------------------------------

*** tstart() called on ds3
*** at Tue Apr 28 03:50:56 2020

   => Loading Basis Set <=

    Name: CC-PVDZ
    Role: ORBITAL
    Keyword: BASIS
    atoms 1-2, 10-11 entry C          line   138 file /theoryfs2/ds/metcalf/miniconda2/envs/tf2gpu/share/psi4/basis/cc-pvdz.gbs
    atoms 3          entry S          line   598 file /theoryfs2/ds/metcalf/miniconda2/envs/tf2gpu/share/psi4/basis/cc-pvdz.gbs
    atoms 4-9, 12-17 entry H          line    22 file /theoryfs2/ds/metcalf/miniconda2/envs/tf2gpu/share/psi4/basis/cc-pvdz.gbs

         ---------------------------------------------------------
                                   SCF
               by Justin Turney, Rob Parrish, Andy Simmonett
                          and Daniel G. A. Smith
                              RHF Reference
                        1 Threads,    500 MiB Core
         ---------------------------------------------------------

  ==> Geometry <==

    Molecular point group: c1
    Full point group: C1

    Geometry (in Angstrom), charge = 0, multiplicity = 1:

       Center              X                  Y                   Z               Mass
    ------------   -----------------  -----------------  -----------------  -----------------
         C            0.421581815251     0.048649285230     0.236769938536    12.000000000000
         C            2.102581815251     0.851649285230     2.323769938536    12.000000000000
         S            0.364581815251     0.480649285230     1.979769938536    31.972071174400
         H           -0.575418184749    -0.238350714770    -0.099230061464     1.007825032230
         H            1.108581815251    -0.780350714770     0.073769938536     1.007825032230
         H            0.764581815251     0.904649285230    -0.342230061464     1.007825032230
         H            2.148581815251     1.439649285230     3.241769938536     1.007825032230
         H            2.496581815251     1.459649285230     1.508769938536     1.007825032230
         H            2.723881815251    -0.046746714770     2.453659938536     1.007825032230
         C           -1.121418184749    -1.343350714770    -3.021230061464    12.000000000000
         C           -2.252418184749    -0.576350714770    -3.694230061464    12.000000000000
         H           -1.455418184749    -1.776350714770    -2.080230061464     1.007825032230
         H           -0.272418184749    -0.684350714770    -2.835230061464     1.007825032230
         H           -0.808418184749    -2.161350714770    -3.669230061464     1.007825032230
         H           -3.078418184749    -1.265350714770    -3.875230061464     1.007825032230
         H           -2.597501184749     0.240082285230    -3.042805061464     1.007825032230
         H           -1.903641184749    -0.201360714770    -4.667748061464     1.007825032230

  Running in c1 symmetry.

  Rotational constants: A =      0.35602  B =      0.02223  C =      0.02166 [cm^-1]
  Rotational constants: A =  10673.12727  B =    666.46432  C =    649.21976 [MHz]
  Nuclear repulsion =  211.352150227564948

  Charge       = 0
  Multiplicity = 1
  Electrons    = 52
  Nalpha       = 26
  Nbeta        = 26

  ==> Algorithm <==

  SCF Algorithm Type is PK.
  DIIS enabled.
  MOM disabled.
  Fractional occupation disabled.
  Guess Type is SAD.
  Energy threshold   = 1.00e-06
  Density threshold  = 1.00e-10
  Integral threshold = 0.00e+00

  ==> Primary Basis <==

  Basis Set: CC-PVDZ
    Blend: CC-PVDZ
    Number of shells: 68
    Number of basis function: 134
    Number of Cartesian functions: 139
    Spherical Harmonics?: true
    Max angular momentum: 2

  ==> Pre-Iterations <==

   -------------------------------------------------------
    Irrep   Nso     Nmo     Nalpha   Nbeta   Ndocc  Nsocc
   -------------------------------------------------------
     A        134     134       0       0       0       0
   -------------------------------------------------------
    Total     134     134      26      26      26       0
   -------------------------------------------------------

  ==> Integral Setup <==

  Using integral reordering PK algorithm.
  Sizing the integral batches needed.
  Building batch lookup table.
   Calculation information:
      Number of atoms:                  17
      Number of AO shells:              68
      Number of primitives:            198
      Number of atomic orbitals:       139
      Number of basis functions:       134

      Integral cutoff                 1.00e-12
      Number of threads:                 1

	Batch   1 pq = [       0,    9045] index = [             0,40910535] size =     40910535
  Task number: 4
  Buffer size: 11059200
  Buffer per thread: 2
  We computed 1898583 shell quartets total.
  Whereas there are 2753031 unique shell quartets.

  ==> DiskJK: Disk-Based J/K Matrices <==

    J tasked:                  Yes
    K tasked:                  Yes
    wK tasked:                  No
    Memory [MiB]:              375
    Schwarz Cutoff:          1E-12

    OpenMP threads:              1

  Minimum eigenvalue in the overlap matrix is 7.6939881998E-03.
  Using Symmetric Orthogonalization.

  SCF Guess: Superposition of Atomic Densities via on-the-fly atomic UHF.

  ==> Iterations <==

                        Total Energy        Delta E     RMS |[F,P]|

   @RHF iter SAD:  -554.88201958558341   -5.54882e+02   0.00000e+00
   @RHF iter   1:  -555.84700383984182   -9.64984e-01   3.37628e-03 DIIS
   @RHF iter   2:  -555.97034632886505   -1.23342e-01   1.34099e-03 DIIS
   @RHF iter   3:  -555.98840829797462   -1.80620e-02   3.13714e-04 DIIS
   @RHF iter   4:  -555.99026587065907   -1.85757e-03   4.68854e-05 DIIS
   @RHF iter   5:  -555.99030320440602   -3.73337e-05   1.01364e-05 DIIS
   @RHF iter   6:  -555.99030504514383   -1.84074e-06   2.34922e-06 DIIS
   @RHF iter   7:  -555.99030513854382   -9.34000e-08   6.69870e-07 DIIS
   @RHF iter   8:  -555.99030514637047   -7.82666e-09   1.63669e-07 DIIS
   @RHF iter   9:  -555.99030514709909   -7.28619e-10   4.90054e-08 DIIS
   @RHF iter  10:  -555.99030514716310   -6.40057e-11   1.31396e-08 DIIS
   @RHF iter  11:  -555.99030514716537   -2.27374e-12   3.24462e-09 DIIS
   @RHF iter  12:  -555.99030514716515    2.27374e-13   1.17257e-09 DIIS
   @RHF iter  13:  -555.99030514716685   -1.70530e-12   3.61156e-10 DIIS
   @RHF iter  14:  -555.99030514716674    1.13687e-13   9.68618e-11 DIIS
  Energy and wave function converged.

  ==> Post-Iterations <==

    Orbital Energies [Eh]
    ---------------------

    Doubly Occupied:

       1A    -91.934469     2A    -11.257138     3A    -11.254335
       4A    -11.222089     5A    -11.219929     6A     -8.938206
       7A     -6.620302     8A     -6.618689     9A     -6.616454
      10A     -1.060164    11A     -1.023424    12A     -0.951683
      13A     -0.839097    14A     -0.804488    15A     -0.606316
      16A     -0.602191    17A     -0.600728    18A     -0.596705
      19A     -0.573780    20A     -0.561990    21A     -0.505070
      22A     -0.498220    23A     -0.488501    24A     -0.487892
      25A     -0.424297    26A     -0.330426

    Virtual:

      27A      0.163908    28A      0.182929    29A      0.198821
      30A      0.223915    31A      0.230695    32A      0.241657
      33A      0.243964    34A      0.251000    35A      0.265167
      36A      0.273882    37A      0.282143    38A      0.286843
      39A      0.308277    40A      0.326174    41A      0.393080
      42A      0.513431    43A      0.562312    44A      0.570500
      45A      0.595836    46A      0.605147    47A      0.611456
      48A      0.629387    49A      0.634046    50A      0.676944
      51A      0.697038    52A      0.725854    53A      0.737421
      54A      0.785946    55A      0.805105    56A      0.830118
      57A      0.839930    58A      0.848777    59A      0.872529
      60A      0.877264    61A      0.880877    62A      0.888819
      63A      0.891103    64A      0.892007    65A      0.903116
      66A      0.905177    67A      0.912854    68A      0.919421
      69A      0.935480    70A      0.955183    71A      0.975081
      72A      0.985009    73A      1.123190    74A      1.132511
      75A      1.174506    76A      1.232498    77A      1.271918
      78A      1.297726    79A      1.309028    80A      1.352580
      81A      1.386198    82A      1.454853    83A      1.476105
      84A      1.479698    85A      1.494495    86A      1.564404
      87A      1.668931    88A      1.672575    89A      1.674221
      90A      1.692162    91A      1.851436    92A      1.858047
      93A      1.872316    94A      1.884612    95A      1.893150
      96A      1.903859    97A      1.915671    98A      1.921168
      99A      1.943841   100A      1.950126   101A      1.956117
     102A      1.959178   103A      1.965075   104A      1.976855
     105A      1.992549   106A      2.017077   107A      2.056978
     108A      2.080588   109A      2.102991   110A      2.109344
     111A      2.222953   112A      2.237945   113A      2.288708
     114A      2.312927   115A      2.399458   116A      2.425927
     117A      2.435036   118A      2.449772   119A      2.460591
     120A      2.470371   121A      2.562056   122A      2.568474
     123A      2.728323   124A      2.752393   125A      2.757275
     126A      2.763563   127A      2.785915   128A      2.791955
     129A      2.797603   130A      2.836313   131A      2.845440
     132A      2.849890   133A      2.947303   134A      2.963592

    Final Occupation by Irrep:
              A
    DOCC [    26 ]

  @RHF Final Energy:  -555.99030514716674

   => Energetics <=

    Nuclear Repulsion Energy =            211.3521502275649482
    One-Electron Energy =               -1181.4117462707704362
    Two-Electron Energy =                 414.0692908960386944
    Total Energy =                       -555.9903051471667368

Computation Completed

Properties will be evaluated at   0.000000,   0.000000,   0.000000 [a0]

Properties computed using the SCF density matrix

  Nuclear Dipole Moment: [e a0]
     X:    -1.3488      Y:    -2.9030      Z:   -12.4479

  Electronic Dipole Moment: [e a0]
     X:     1.8569      Y:     2.8756      Z:    12.0065

  Dipole Moment: [e a0]
     X:     0.5081      Y:    -0.0274      Z:    -0.4414     Total:     0.6736

  Dipole Moment: [D]
     X:     1.2914      Y:    -0.0697      Z:    -1.1220     Total:     1.7122

*** tstop() called on ds3 at Tue Apr 28 03:51:15 2020
Module time:
	user time   =      13.55 seconds =       0.23 minutes
	system time =       4.91 seconds =       0.08 minutes
	total time  =         19 seconds =       0.32 minutes
Total time:
	user time   =      13.55 seconds =       0.23 minutes
	system time =       4.91 seconds =       0.08 minutes
	total time  =         19 seconds =       0.32 minutes
                                     G D M A

                                 by Anthony Stone

                           version 2.2.06, 22 June 2011

               Distributed Multipoles from Gaussian wavefunctions

Starting at 3:51:15 on 28 Apr 2020

Using SCF density matrix from file ./SSI/SSI-022MET-041VAL-1-dimer.test.25864.fchk

                         Distributed Multipole Analysis

Standard DMA

Positions and radii in angstrom
Multipole moments in atomic units, ea_0^k for rank k

C          x =  0.421582  y =  0.048649  z =  0.236770 angstrom
           Maximum rank =  0   Radius =  0.650 angstrom
                   Q00  =  -0.354419

C          x =  2.102582  y =  0.851649  z =  2.323770 angstrom
           Maximum rank =  0   Radius =  0.650 angstrom
                   Q00  =  -0.360219

S          x =  0.364582  y =  0.480649  z =  1.979770 angstrom
           Maximum rank =  0   Radius =  0.650 angstrom
                   Q00  =   0.119931

H          x = -0.575418  y = -0.238351  z = -0.099230 angstrom
           Maximum rank =  0   Radius =  0.325 angstrom
                   Q00  =   0.124194

H          x =  1.108582  y = -0.780351  z =  0.073770 angstrom
           Maximum rank =  0   Radius =  0.325 angstrom
                   Q00  =   0.086766

H          x =  0.764582  y =  0.904649  z = -0.342230 angstrom
           Maximum rank =  0   Radius =  0.325 angstrom
                   Q00  =   0.083663

H          x =  2.148582  y =  1.439649  z =  3.241770 angstrom
           Maximum rank =  0   Radius =  0.325 angstrom
                   Q00  =   0.119832

H          x =  2.496582  y =  1.459649  z =  1.508770 angstrom
           Maximum rank =  0   Radius =  0.325 angstrom
                   Q00  =   0.088714

H          x =  2.723882  y = -0.046747  z =  2.453660 angstrom
           Maximum rank =  0   Radius =  0.325 angstrom
                   Q00  =   0.091932

C          x = -1.121418  y = -1.343351  z = -3.021230 angstrom
           Maximum rank =  0   Radius =  0.650 angstrom
                   Q00  =  -0.233965

C          x = -2.252418  y = -0.576351  z = -3.694230 angstrom
           Maximum rank =  0   Radius =  0.650 angstrom
                   Q00  =  -0.237714

H          x = -1.455418  y = -1.776351  z = -2.080230 angstrom
           Maximum rank =  0   Radius =  0.325 angstrom
                   Q00  =   0.077655

H          x = -0.272418  y = -0.684351  z = -2.835230 angstrom
           Maximum rank =  0   Radius =  0.325 angstrom
                   Q00  =   0.076969

H          x = -0.808418  y = -2.161351  z = -3.669230 angstrom
           Maximum rank =  0   Radius =  0.325 angstrom
                   Q00  =   0.079380

H          x = -3.078418  y = -1.265351  z = -3.875230 angstrom
           Maximum rank =  0   Radius =  0.325 angstrom
                   Q00  =   0.079001

H          x = -2.597501  y =  0.240082  z = -3.042805 angstrom
           Maximum rank =  0   Radius =  0.325 angstrom
                   Q00  =   0.079352

H          x = -1.903641  y = -0.201361  z = -4.667748 angstrom
           Maximum rank =  0   Radius =  0.325 angstrom
                   Q00  =   0.078929

Total multipoles referred to origin at
           x =   0.000000,  y =    0.000000,  z =    0.000000 angstrom
                   Q00  =   0.000000

Finished at 3:51:15 on 28 Apr 2020

  DMA results are available in the Python driver through the
	  variable('DMA DISTRIBUTED MULTIPOLES')
  and
	  variable('DMA TOTAL MULTIPOLES')
  commands.

    Psi4 stopped on: Tuesday, 28 April 2020 03:51AM
    Psi4 wall time for execution: 0:00:18.48

*** Psi4 exiting successfully. Buy a developer a beer!
