                               Psi4 1.3.2 release

  ==> Input File <==

--------------------------------------------------------------------------
import numpy as np
set {scf_type pk
basis cc-pvdz
d_convergence 10
gdma_switch   0
gdma_limit    0
gdma_origin   [ 0.0,  0.0,  0.0 ]
}
molecule test {
    units Angstrom
    0 1
    --
    0 1
    C                3.218973803686057    -2.520694767597011     0.044642907655805
    C                1.245973803686057    -1.172694767597011     0.674642907655804
    N                0.401973803686057    -0.759694767597011     1.598642907655805
    N                2.197973803686057    -2.039694767597010     0.981642907656805
    N                1.139973803686057    -0.693694767597011    -0.549357092343196
    H                0.416973803686057    -1.131694767597010     2.534642907655805
    H               -0.344026196313943    -0.136694767597011     1.305642907655805
    H                2.254973803686057    -2.373694767597011     1.936642907655805
    H                1.663973803686057    -1.110694767597010    -1.315357092343195
    H                0.324973803686057    -0.113694767597011    -0.734357092344195
    H                2.783973803686057    -2.714694767597011    -0.933357092344196
    H                3.614973803686057    -3.469694767597010     0.406642907655805
    H                4.033633803686057    -1.787214767597011    -0.046597092343195
    C               -1.490026196313943     2.857305232402990    -1.484357092344195
    C               -2.074026196313942     1.739305232402990    -0.631357092343195
    O               -1.390026196313943     0.710305232402989    -0.427357092344195
    O               -3.231026196313942     1.886305232402990    -0.178357092343195
    H               -1.681026196313943     3.821305232402989    -1.015357092344195
    H               -2.007026196313943     2.847305232402989    -2.445357092344196
    H               -0.412526196313943     2.739015232402989    -1.671467092343195

}
e, wfn = energy('scf', return_wfn=True)
gdma(wfn)
dmavals = variable('DMA DISTRIBUTED MULTIPOLES')
charges = np.array(dmavals)
print(charges)
np.save('SSI-010ARG-039ASP-1-dimer.npy', np.array(charges))--------------------------------------------------------------------------

*** tstart() called on ds3
*** at Tue Apr 28 17:06:21 2020

   => Loading Basis Set <=

    Name: CC-PVDZ
    Role: ORBITAL
    Keyword: BASIS
    atoms 1-2, 14-15  entry C          line   138 file /theoryfs2/ds/metcalf/miniconda2/envs/tf2gpu/share/psi4/basis/cc-pvdz.gbs
    atoms 3-5         entry N          line   168 file /theoryfs2/ds/metcalf/miniconda2/envs/tf2gpu/share/psi4/basis/cc-pvdz.gbs
    atoms 6-13, 18-20 entry H          line    22 file /theoryfs2/ds/metcalf/miniconda2/envs/tf2gpu/share/psi4/basis/cc-pvdz.gbs
    atoms 16-17       entry O          line   198 file /theoryfs2/ds/metcalf/miniconda2/envs/tf2gpu/share/psi4/basis/cc-pvdz.gbs

         ---------------------------------------------------------
                                   SCF
               by Justin Turney, Rob Parrish, Andy Simmonett
                          and Daniel G. A. Smith
                              RHF Reference
                        1 Threads,    500 MiB Core
         ---------------------------------------------------------

  ==> Geometry <==

    Molecular point group: c1
    Full point group: C1

    Geometry (in Angstrom), charge = 0, multiplicity = 1:

       Center              X                  Y                   Z               Mass
    ------------   -----------------  -----------------  -----------------  -----------------
         C            3.218973803686    -2.520694767597     0.044642907656    12.000000000000
         C            1.245973803686    -1.172694767597     0.674642907656    12.000000000000
         N            0.401973803686    -0.759694767597     1.598642907656    14.003074004430
         N            2.197973803686    -2.039694767597     0.981642907657    14.003074004430
         N            1.139973803686    -0.693694767597    -0.549357092343    14.003074004430
         H            0.416973803686    -1.131694767597     2.534642907656     1.007825032230
         H           -0.344026196314    -0.136694767597     1.305642907656     1.007825032230
         H            2.254973803686    -2.373694767597     1.936642907656     1.007825032230
         H            1.663973803686    -1.110694767597    -1.315357092343     1.007825032230
         H            0.324973803686    -0.113694767597    -0.734357092344     1.007825032230
         H            2.783973803686    -2.714694767597    -0.933357092344     1.007825032230
         H            3.614973803686    -3.469694767597     0.406642907656     1.007825032230
         H            4.033633803686    -1.787214767597    -0.046597092343     1.007825032230
         C           -1.490026196314     2.857305232403    -1.484357092344    12.000000000000
         C           -2.074026196314     1.739305232403    -0.631357092343    12.000000000000
         O           -1.390026196314     0.710305232403    -0.427357092344    15.994914619570
         O           -3.231026196314     1.886305232403    -0.178357092343    15.994914619570
         H           -1.681026196314     3.821305232403    -1.015357092344     1.007825032230
         H           -2.007026196314     2.847305232403    -2.445357092344     1.007825032230
         H           -0.412526196314     2.739015232403    -1.671467092343     1.007825032230

  Running in c1 symmetry.

  Rotational constants: A =      0.13982  B =      0.01681  C =      0.01551 [cm^-1]
  Rotational constants: A =   4191.62351  B =    503.83543  C =    464.86836 [MHz]
  Nuclear repulsion =  445.405453676219224

  Charge       = 0
  Multiplicity = 1
  Electrons    = 72
  Nalpha       = 36
  Nbeta        = 36

  ==> Algorithm <==

  SCF Algorithm Type is PK.
  DIIS enabled.
  MOM disabled.
  Fractional occupation disabled.
  Guess Type is SAD.
  Energy threshold   = 1.00e-06
  Density threshold  = 1.00e-10
  Integral threshold = 0.00e+00

  ==> Primary Basis <==

  Basis Set: CC-PVDZ
    Blend: CC-PVDZ
    Number of shells: 87
    Number of basis function: 181
    Number of Cartesian functions: 190
    Spherical Harmonics?: true
    Max angular momentum: 2

  ==> Pre-Iterations <==

   -------------------------------------------------------
    Irrep   Nso     Nmo     Nalpha   Nbeta   Ndocc  Nsocc
   -------------------------------------------------------
     A        181     181       0       0       0       0
   -------------------------------------------------------
    Total     181     181      36      36      36       0
   -------------------------------------------------------

  ==> Integral Setup <==

  Using integral reordering PK algorithm.
  Sizing the integral batches needed.
  Building batch lookup table.
   Calculation information:
      Number of atoms:                  20
      Number of AO shells:              87
      Number of primitives:            253
      Number of atomic orbitals:       190
      Number of basis functions:       181

      Integral cutoff                 1.00e-12
      Number of threads:                 1

	Batch   1 pq = [       0,    9405] index = [             0,44231715] size =     44231715
	Batch   2 pq = [    9405,   13301] index = [      44231715,88464951] size =     44233236
	Batch   3 pq = [   13301,   16471] index = [      88464951,135655156] size =     47190205
  Task number: 13
  Buffer size: 11059200
  Buffer per thread: 2
  We computed 5464122 shell quartets total.
  Whereas there are 7328706 unique shell quartets.

  ==> DiskJK: Disk-Based J/K Matrices <==

    J tasked:                  Yes
    K tasked:                  Yes
    wK tasked:                  No
    Memory [MiB]:              375
    Schwarz Cutoff:          1E-12

    OpenMP threads:              1

  Minimum eigenvalue in the overlap matrix is 3.9556709778E-03.
  Using Symmetric Orthogonalization.

  SCF Guess: Superposition of Atomic Densities via on-the-fly atomic UHF.

  ==> Iterations <==

                        Total Energy        Delta E     RMS |[F,P]|

   @RHF iter SAD:  -469.67949240902681   -4.69679e+02   0.00000e+00
   @RHF iter   1:  -470.69256960915493   -1.01308e+00   4.25145e-03 DIIS
   @RHF iter   2:  -470.91887702021774   -2.26307e-01   2.25907e-03 DIIS
   @RHF iter   3:  -470.97929497212925   -6.04180e-02   4.03047e-04 DIIS
   @RHF iter   4:  -470.98266554003970   -3.37057e-03   1.50152e-04 DIIS
   @RHF iter   5:  -470.98310743530220   -4.41895e-04   3.03489e-05 DIIS
   @RHF iter   6:  -470.98313284144251   -2.54061e-05   1.60002e-05 DIIS
   @RHF iter   7:  -470.98313809658589   -5.25514e-06   4.03493e-06 DIIS
   @RHF iter   8:  -470.98313889170743   -7.95122e-07   1.87214e-06 DIIS
   @RHF iter   9:  -470.98313902480089   -1.33093e-07   6.77720e-07 DIIS
   @RHF iter  10:  -470.98313904924902   -2.44481e-08   2.08366e-07 DIIS
   @RHF iter  11:  -470.98313905124382   -1.99481e-09   5.36816e-08 DIIS
   @RHF iter  12:  -470.98313905133904   -9.52127e-11   1.88949e-08 DIIS
   @RHF iter  13:  -470.98313905134523   -6.19593e-12   4.70662e-09 DIIS
   @RHF iter  14:  -470.98313905134921   -3.97904e-12   1.36796e-09 DIIS
   @RHF iter  15:  -470.98313905134694    2.27374e-12   5.00443e-10 DIIS
   @RHF iter  16:  -470.98313905134643    5.11591e-13   1.85128e-10 DIIS
   @RHF iter  17:  -470.98313905134722   -7.95808e-13   8.19792e-11 DIIS
  Energy and wave function converged.

  ==> Post-Iterations <==

    Orbital Energies [Eh]
    ---------------------

    Doubly Occupied:

       1A    -20.419615     2A    -20.388220     3A    -15.665504
       4A    -15.637474     5A    -15.631557     6A    -11.448586
       7A    -11.342097     8A    -11.253771     9A    -11.164537
      10A     -1.408155    11A     -1.292744    12A     -1.272397
      13A     -1.240473    14A     -1.176449    15A     -1.029753
      16A     -0.913951    17A     -0.899372    18A     -0.842689
      19A     -0.793471    20A     -0.718546    21A     -0.710276
      22A     -0.701956    23A     -0.674649    24A     -0.631565
      25A     -0.624661    26A     -0.621584    27A     -0.544088
      28A     -0.531349    29A     -0.529141    30A     -0.472107
      31A     -0.466600    32A     -0.463537    33A     -0.439027
      34A     -0.331087    35A     -0.304960    36A     -0.303988

    Virtual:

      37A      0.111427    38A      0.134326    39A      0.159716
      40A      0.164850    41A      0.204973    42A      0.215205
      43A      0.235554    44A      0.251303    45A      0.260978
      46A      0.285456    47A      0.300917    48A      0.315407
      49A      0.351128    50A      0.368653    51A      0.415939
      52A      0.451739    53A      0.470681    54A      0.483743
      55A      0.549950    56A      0.570301    57A      0.575015
      58A      0.622688    59A      0.628366    60A      0.655134
      61A      0.659547    62A      0.689686    63A      0.693670
      64A      0.701117    65A      0.706111    66A      0.773446
      67A      0.778130    68A      0.796233    69A      0.804737
      70A      0.813503    71A      0.838362    72A      0.851891
      73A      0.859988    74A      0.889771    75A      0.896979
      76A      0.913697    77A      0.929273    78A      0.936250
      79A      0.951157    80A      0.955955    81A      0.974663
      82A      0.999060    83A      1.032139    84A      1.037374
      85A      1.066138    86A      1.092431    87A      1.097780
      88A      1.131178    89A      1.152856    90A      1.226730
      91A      1.232248    92A      1.245927    93A      1.258717
      94A      1.272469    95A      1.305080    96A      1.319474
      97A      1.344930    98A      1.410483    99A      1.423727
     100A      1.447912   101A      1.456443   102A      1.481465
     103A      1.502382   104A      1.528578   105A      1.548924
     106A      1.563000   107A      1.589509   108A      1.610118
     109A      1.624098   110A      1.641016   111A      1.667495
     112A      1.698762   113A      1.729917   114A      1.733468
     115A      1.739356   116A      1.830994   117A      1.836061
     118A      1.848855   119A      1.875745   120A      1.887951
     121A      1.897083   122A      1.918370   123A      1.933634
     124A      1.941403   125A      1.961157   126A      1.965074
     127A      1.983939   128A      1.994349   129A      2.008469
     130A      2.048196   131A      2.088484   132A      2.112207
     133A      2.134194   134A      2.144302   135A      2.180011
     136A      2.213297   137A      2.257339   138A      2.268277
     139A      2.278161   140A      2.287668   141A      2.313585
     142A      2.355336   143A      2.404218   144A      2.433770
     145A      2.459225   146A      2.463028   147A      2.500638
     148A      2.540970   149A      2.567815   150A      2.584937
     151A      2.595294   152A      2.605548   153A      2.641236
     154A      2.683138   155A      2.699166   156A      2.711800
     157A      2.786280   158A      2.811057   159A      2.839305
     160A      2.857161   161A      2.872431   162A      2.883152
     163A      2.932568   164A      2.954658   165A      2.989824
     166A      3.016850   167A      3.094473   168A      3.131197
     169A      3.154794   170A      3.182882   171A      3.218515
     172A      3.262780   173A      3.295862   174A      3.489109
     175A      3.644932   176A      3.688695   177A      3.703219
     178A      3.795125   179A      3.936935   180A      3.978141
     181A      4.057381

    Final Occupation by Irrep:
              A
    DOCC [    36 ]

  @RHF Final Energy:  -470.98313905134722

   => Energetics <=

    Nuclear Repulsion Energy =            445.4054536762192242
    One-Electron Energy =               -1526.9973162179185238
    Two-Electron Energy =                 610.6087234903520766
    Total Energy =                       -470.9831390513472797

Computation Completed

Properties will be evaluated at   0.000000,   0.000000,   0.000000 [a0]

Properties computed using the SCF density matrix

  Nuclear Dipole Moment: [e a0]
     X:     9.9499      Y:    -3.1933      Z:    -1.8634

  Electronic Dipole Moment: [e a0]
     X:    -4.2254      Y:    -0.6221      Z:     3.0743

  Dipole Moment: [e a0]
     X:     5.7245      Y:    -3.8155      Z:     1.2109     Total:     6.9853

  Dipole Moment: [D]
     X:    14.5502      Y:    -9.6980      Z:     3.0777     Total:    17.7548

*** tstop() called on ds3 at Tue Apr 28 17:08:50 2020
Module time:
	user time   =      42.74 seconds =       0.71 minutes
	system time =      19.05 seconds =       0.32 minutes
	total time  =        149 seconds =       2.48 minutes
Total time:
	user time   =      42.74 seconds =       0.71 minutes
	system time =      19.05 seconds =       0.32 minutes
	total time  =        149 seconds =       2.48 minutes
                                     G D M A

                                 by Anthony Stone

                           version 2.2.06, 22 June 2011

               Distributed Multipoles from Gaussian wavefunctions

Starting at 17:8:50 on 28 Apr 2020

Using SCF density matrix from file ./SSI/SSI-010ARG-039ASP-1-dimer.test.26314.fchk

                         Distributed Multipole Analysis

Standard DMA

Positions and radii in angstrom
Multipole moments in atomic units, ea_0^k for rank k

C          x =  3.218974  y = -2.520695  z =  0.044643 angstrom
           Maximum rank =  0   Radius =  0.650 angstrom
                   Q00  =  -0.109865

C          x =  1.245974  y = -1.172695  z =  0.674643 angstrom
           Maximum rank =  0   Radius =  0.650 angstrom
                   Q00  =   1.072297

N          x =  0.401974  y = -0.759695  z =  1.598643 angstrom
           Maximum rank =  0   Radius =  0.650 angstrom
                   Q00  =  -0.568911

N          x =  2.197974  y = -2.039695  z =  0.981643 angstrom
           Maximum rank =  0   Radius =  0.650 angstrom
                   Q00  =  -0.507769

N          x =  1.139974  y = -0.693695  z = -0.549357 angstrom
           Maximum rank =  0   Radius =  0.650 angstrom
                   Q00  =  -0.579349

H          x =  0.416974  y = -1.131695  z =  2.534643 angstrom
           Maximum rank =  0   Radius =  0.325 angstrom
                   Q00  =   0.237418

H          x = -0.344026  y = -0.136695  z =  1.305643 angstrom
           Maximum rank =  0   Radius =  0.325 angstrom
                   Q00  =   0.291738

H          x =  2.254974  y = -2.373695  z =  1.936643 angstrom
           Maximum rank =  0   Radius =  0.325 angstrom
                   Q00  =   0.214038

H          x =  1.663974  y = -1.110695  z = -1.315357 angstrom
           Maximum rank =  0   Radius =  0.325 angstrom
                   Q00  =   0.240737

H          x =  0.324974  y = -0.113695  z = -0.734357 angstrom
           Maximum rank =  0   Radius =  0.325 angstrom
                   Q00  =   0.294355

H          x =  2.783974  y = -2.714695  z = -0.933357 angstrom
           Maximum rank =  0   Radius =  0.325 angstrom
                   Q00  =   0.106339

H          x =  3.614974  y = -3.469695  z =  0.406643 angstrom
           Maximum rank =  0   Radius =  0.325 angstrom
                   Q00  =   0.137736

H          x =  4.033634  y = -1.787215  z = -0.046597 angstrom
           Maximum rank =  0   Radius =  0.325 angstrom
                   Q00  =   0.112580

C          x = -1.490026  y =  2.857305  z = -1.484357 angstrom
           Maximum rank =  0   Radius =  0.650 angstrom
                   Q00  =  -0.286023

C          x = -2.074026  y =  1.739305  z = -0.631357 angstrom
           Maximum rank =  0   Radius =  0.650 angstrom
                   Q00  =   0.919003

O          x = -1.390026  y =  0.710305  z = -0.427357 angstrom
           Maximum rank =  0   Radius =  0.650 angstrom
                   Q00  =  -0.956221

O          x = -3.231026  y =  1.886305  z = -0.178357 angstrom
           Maximum rank =  0   Radius =  0.650 angstrom
                   Q00  =  -0.866685

H          x = -1.681026  y =  3.821305  z = -1.015357 angstrom
           Maximum rank =  0   Radius =  0.325 angstrom
                   Q00  =   0.096484

H          x = -2.007026  y =  2.847305  z = -2.445357 angstrom
           Maximum rank =  0   Radius =  0.325 angstrom
                   Q00  =   0.104844

H          x = -0.412526  y =  2.739015  z = -1.671467 angstrom
           Maximum rank =  0   Radius =  0.325 angstrom
                   Q00  =   0.047255

Total multipoles referred to origin at
           x =   0.000000,  y =    0.000000,  z =    0.000000 angstrom
                   Q00  =  -0.000000

Finished at 17:8:50 on 28 Apr 2020

  DMA results are available in the Python driver through the
	  variable('DMA DISTRIBUTED MULTIPOLES')
  and
	  variable('DMA TOTAL MULTIPOLES')
  commands.

    Psi4 stopped on: Tuesday, 28 April 2020 05:08PM
    Psi4 wall time for execution: 0:02:28.34

*** Psi4 exiting successfully. Buy a developer a beer!
