                               Psi4 1.3.2 release

  ==> Input File <==

--------------------------------------------------------------------------
import numpy as np
set {scf_type pk
basis cc-pvdz
d_convergence 10
gdma_switch   0
gdma_limit    0
gdma_origin   [ 0.0,  0.0,  0.0 ]
}
molecule test {
    units Angstrom
    1 1
    --
    1 1
    C                0.463294677463077    -1.442291670111599     0.020282033019540
    C                0.544294677463076    -1.734291670111598    -1.471717966980460
    C                1.214294677463077     0.500708329888401     1.351282033019540
    N                1.424294677463076    -0.407291670111599     0.413282033019540
    N                0.072294677463077     0.521708329888401     2.014282033019540
    N                2.138294677463076     1.402708329888401     1.612282033019540
    H               -0.562705322536923    -1.155291670111599     0.252282033019540
    H                0.696294677463077    -2.358291670111599     0.569282033019540
    H                1.585294677463077    -1.934291670111599    -1.731717966980460
    H                0.208294677463077    -0.858291670111599    -2.023717966980460
    H                2.367294677463077    -0.451291670111599     0.020282033019540
    H               -0.617705322536923    -0.190291670111599     1.853282033019540
    H               -0.086705322536923     1.212708329888402     2.731282033019540
    H                2.991294677463077     1.408708329888402     1.046282033019540
    H                2.004294677463077     2.094708329888402     2.330282033019540
    H               -0.071085322536923    -2.605184670111599    -1.741617966980460
    C               -2.532705322536923     0.056708329888401    -1.463717966980460
    C               -3.206705322536923     0.987708329888401    -2.445717966980460
    H               -2.182705322536923    -0.821291670111598    -2.001717966980460
    H               -1.690705322536924     0.567708329888401    -0.996717966980460
    H               -3.240705322536924    -0.252291670111599    -0.691717966980460
    H               -2.410705322536923     1.357708329888402    -3.075717966980460
    H               -4.003245322536923     0.445228129888401    -2.976027966980460
    H               -3.608265322536923     1.885777329888402    -1.953557966980460

}
e, wfn = energy('scf', return_wfn=True)
gdma(wfn)
dmavals = variable('DMA DISTRIBUTED MULTIPOLES')
charges = np.array(dmavals)
print(charges)
np.save('SSI-033ARG-191LEU-2-dimer.npy', np.array(charges))--------------------------------------------------------------------------

*** tstart() called on ds3
*** at Tue Apr 28 14:13:55 2020

   => Loading Basis Set <=

    Name: CC-PVDZ
    Role: ORBITAL
    Keyword: BASIS
    atoms 1-3, 17-18  entry C          line   138 file /theoryfs2/ds/metcalf/miniconda2/envs/tf2gpu/share/psi4/basis/cc-pvdz.gbs
    atoms 4-6         entry N          line   168 file /theoryfs2/ds/metcalf/miniconda2/envs/tf2gpu/share/psi4/basis/cc-pvdz.gbs
    atoms 7-16, 19-24 entry H          line    22 file /theoryfs2/ds/metcalf/miniconda2/envs/tf2gpu/share/psi4/basis/cc-pvdz.gbs

         ---------------------------------------------------------
                                   SCF
               by Justin Turney, Rob Parrish, Andy Simmonett
                          and Daniel G. A. Smith
                              RHF Reference
                        1 Threads,    500 MiB Core
         ---------------------------------------------------------

  ==> Geometry <==

    Molecular point group: c1
    Full point group: C1

    Geometry (in Angstrom), charge = 1, multiplicity = 1:

       Center              X                  Y                   Z               Mass
    ------------   -----------------  -----------------  -----------------  -----------------
         C            0.463294677463    -1.442291670112     0.020282033020    12.000000000000
         C            0.544294677463    -1.734291670112    -1.471717966980    12.000000000000
         C            1.214294677463     0.500708329888     1.351282033020    12.000000000000
         N            1.424294677463    -0.407291670112     0.413282033020    14.003074004430
         N            0.072294677463     0.521708329888     2.014282033020    14.003074004430
         N            2.138294677463     1.402708329888     1.612282033020    14.003074004430
         H           -0.562705322537    -1.155291670112     0.252282033020     1.007825032230
         H            0.696294677463    -2.358291670112     0.569282033020     1.007825032230
         H            1.585294677463    -1.934291670112    -1.731717966980     1.007825032230
         H            0.208294677463    -0.858291670112    -2.023717966980     1.007825032230
         H            2.367294677463    -0.451291670112     0.020282033020     1.007825032230
         H           -0.617705322537    -0.190291670112     1.853282033020     1.007825032230
         H           -0.086705322537     1.212708329888     2.731282033020     1.007825032230
         H            2.991294677463     1.408708329888     1.046282033020     1.007825032230
         H            2.004294677463     2.094708329888     2.330282033020     1.007825032230
         H           -0.071085322537    -2.605184670112    -1.741617966980     1.007825032230
         C           -2.532705322537     0.056708329888    -1.463717966980    12.000000000000
         C           -3.206705322537     0.987708329888    -2.445717966980    12.000000000000
         H           -2.182705322537    -0.821291670112    -2.001717966980     1.007825032230
         H           -1.690705322537     0.567708329888    -0.996717966980     1.007825032230
         H           -3.240705322537    -0.252291670112    -0.691717966980     1.007825032230
         H           -2.410705322537     1.357708329888    -3.075717966980     1.007825032230
         H           -4.003245322537     0.445228129888    -2.976027966980     1.007825032230
         H           -3.608265322537     1.885777329888    -1.953557966980     1.007825032230

  Running in c1 symmetry.

  Rotational constants: A =      0.07146  B =      0.02606  C =      0.02156 [cm^-1]
  Rotational constants: A =   2142.38954  B =    781.34794  C =    646.45345 [MHz]
  Nuclear repulsion =  396.241870164884290

  Charge       = 1
  Multiplicity = 1
  Electrons    = 66
  Nalpha       = 33
  Nbeta        = 33

  ==> Algorithm <==

  SCF Algorithm Type is PK.
  DIIS enabled.
  MOM disabled.
  Fractional occupation disabled.
  Guess Type is SAD.
  Energy threshold   = 1.00e-06
  Density threshold  = 1.00e-10
  Integral threshold = 0.00e+00

  ==> Primary Basis <==

  Basis Set: CC-PVDZ
    Blend: CC-PVDZ
    Number of shells: 96
    Number of basis function: 192
    Number of Cartesian functions: 200
    Spherical Harmonics?: true
    Max angular momentum: 2

  ==> Pre-Iterations <==

   -------------------------------------------------------
    Irrep   Nso     Nmo     Nalpha   Nbeta   Ndocc  Nsocc
   -------------------------------------------------------
     A        192     192       0       0       0       0
   -------------------------------------------------------
    Total     192     192      33      33      33       0
   -------------------------------------------------------

  ==> Integral Setup <==

  Using integral reordering PK algorithm.
  Sizing the integral batches needed.
  Building batch lookup table.
   Calculation information:
      Number of atoms:                  24
      Number of AO shells:              96
      Number of primitives:            256
      Number of atomic orbitals:       200
      Number of basis functions:       192

      Integral cutoff                 1.00e-12
      Number of threads:                 1

	Batch   1 pq = [       0,    9405] index = [             0,44231715] size =     44231715
	Batch   2 pq = [    9405,   13301] index = [      44231715,88464951] size =     44233236
	Batch   3 pq = [   13301,   16290] index = [      88464951,132690195] size =     44225244
	Batch   4 pq = [   16290,   18528] index = [     132690195,171652656] size =     38962461
  Task number: 16
  Buffer size: 11059200
  Buffer per thread: 2
  We computed 9254093 shell quartets total.
  Whereas there are 10841496 unique shell quartets.

  ==> DiskJK: Disk-Based J/K Matrices <==

    J tasked:                  Yes
    K tasked:                  Yes
    wK tasked:                  No
    Memory [MiB]:              375
    Schwarz Cutoff:          1E-12

    OpenMP threads:              1

  Minimum eigenvalue in the overlap matrix is 3.7473616052E-03.
  Using Symmetric Orthogonalization.

  SCF Guess: Superposition of Atomic Densities via on-the-fly atomic UHF.

  ==> Iterations <==

                        Total Energy        Delta E     RMS |[F,P]|

   @RHF iter SAD:  -361.21112213291104   -3.61211e+02   0.00000e+00
   @RHF iter   1:  -361.61501948601972   -4.03897e-01   3.23375e-03 DIIS
   @RHF iter   2:  -361.81882521870170   -2.03806e-01   1.28038e-03 DIIS
   @RHF iter   3:  -361.84916829873345   -3.03431e-02   3.01296e-04 DIIS
   @RHF iter   4:  -361.85202290449377   -2.85461e-03   5.20047e-05 DIIS
   @RHF iter   5:  -361.85210284618381   -7.99417e-05   1.96259e-05 DIIS
   @RHF iter   6:  -361.85211389798673   -1.10518e-05   3.78966e-06 DIIS
   @RHF iter   7:  -361.85211453639954   -6.38413e-07   1.28695e-06 DIIS
   @RHF iter   8:  -361.85211458738172   -5.09822e-08   3.83321e-07 DIIS
   @RHF iter   9:  -361.85211459185439   -4.47267e-09   1.03006e-07 DIIS
   @RHF iter  10:  -361.85211459221489   -3.60501e-10   2.69508e-08 DIIS
   @RHF iter  11:  -361.85211459224342   -2.85354e-11   8.76370e-09 DIIS
   @RHF iter  12:  -361.85211459224644   -3.01270e-12   2.79520e-09 DIIS
   @RHF iter  13:  -361.85211459224922   -2.78533e-12   1.02181e-09 DIIS
   @RHF iter  14:  -361.85211459225008   -8.52651e-13   3.41736e-10 DIIS
   @RHF iter  15:  -361.85211459224809    1.98952e-12   6.99663e-11 DIIS
  Energy and wave function converged.

  ==> Post-Iterations <==

    Orbital Energies [Eh]
    ---------------------

    Doubly Occupied:

       1A    -15.787413     2A    -15.784480     3A    -15.782051
       4A    -11.586373     5A    -11.433696     6A    -11.365392
       7A    -11.322149     8A    -11.308573     9A     -1.543810
      10A     -1.400446    11A     -1.389389    12A     -1.186452
      13A     -1.124418    14A     -1.051969    15A     -1.011962
      16A     -0.972250    17A     -0.934987    18A     -0.933022
      19A     -0.855712    20A     -0.853598    21A     -0.826494
      22A     -0.790979    23A     -0.763052    24A     -0.708412
      25A     -0.700065    26A     -0.690658    27A     -0.665939
      28A     -0.652416    29A     -0.615806    30A     -0.599760
      31A     -0.590864    32A     -0.577114    33A     -0.573467

    Virtual:

      34A     -0.007128    35A      0.025346    36A      0.029334
      37A      0.039742    38A      0.058812    39A      0.076173
      40A      0.087190    41A      0.110581    42A      0.123533
      43A      0.130115    44A      0.144435    45A      0.154836
      46A      0.163419    47A      0.176438    48A      0.183814
      49A      0.202663    50A      0.211788    51A      0.216928
      52A      0.247074    53A      0.280940    54A      0.319081
      55A      0.338162    56A      0.354122    57A      0.443500
      58A      0.454218    59A      0.478106    60A      0.499368
      61A      0.508042    62A      0.518674    63A      0.530426
      64A      0.532106    65A      0.546026    66A      0.551782
      67A      0.556397    68A      0.579056    69A      0.587797
      70A      0.627677    71A      0.667132    72A      0.683720
      73A      0.718095    74A      0.732376    75A      0.742028
      76A      0.746458    77A      0.760550    78A      0.771431
      79A      0.775865    80A      0.789511    81A      0.792236
      82A      0.800361    83A      0.806439    84A      0.814563
      85A      0.822323    86A      0.836963    87A      0.847088
      88A      0.854418    89A      0.871651    90A      0.879427
      91A      0.892653    92A      0.917532    93A      0.941346
      94A      0.955075    95A      0.999689    96A      1.030509
      97A      1.049125    98A      1.068951    99A      1.119597
     100A      1.126108   101A      1.150438   102A      1.166240
     103A      1.188012   104A      1.214266   105A      1.221389
     106A      1.265807   107A      1.321467   108A      1.340145
     109A      1.376167   110A      1.393806   111A      1.427247
     112A      1.459920   113A      1.488833   114A      1.492682
     115A      1.531121   116A      1.553526   117A      1.559880
     118A      1.575284   119A      1.592844   120A      1.621955
     121A      1.628567   122A      1.655821   123A      1.698742
     124A      1.711691   125A      1.723936   126A      1.731342
     127A      1.748672   128A      1.773211   129A      1.777366
     130A      1.783926   131A      1.793984   132A      1.810345
     133A      1.814854   134A      1.825026   135A      1.833566
     136A      1.840244   137A      1.869966   138A      1.875699
     139A      1.882073   140A      1.892264   141A      1.909333
     142A      1.926510   143A      1.941087   144A      1.979775
     145A      1.997953   146A      2.004100   147A      2.009337
     148A      2.042560   149A      2.059933   150A      2.088118
     151A      2.142280   152A      2.155179   153A      2.193477
     154A      2.204661   155A      2.240126   156A      2.258157
     157A      2.267650   158A      2.292952   159A      2.322567
     160A      2.336116   161A      2.355420   162A      2.367882
     163A      2.377803   164A      2.391540   165A      2.420067
     166A      2.466393   167A      2.478004   168A      2.483844
     169A      2.495628   170A      2.550689   171A      2.618896
     172A      2.646982   173A      2.661925   174A      2.666393
     175A      2.690099   176A      2.694103   177A      2.704592
     178A      2.738492   179A      2.764465   180A      2.772438
     181A      2.792543   182A      2.815967   183A      2.830207
     184A      2.855887   185A      2.873348   186A      2.882096
     187A      2.958197   188A      3.071292   189A      3.090927
     190A      3.135983   191A      3.573510   192A      3.655432

    Final Occupation by Irrep:
              A
    DOCC [    33 ]

  @RHF Final Energy:  -361.85211459224809

   => Energetics <=

    Nuclear Repulsion Energy =            396.2418701648842898
    One-Electron Energy =               -1263.4216311637105719
    Two-Electron Energy =                 505.3276464065781965
    Total Energy =                       -361.8521145922480855

Computation Completed

Properties will be evaluated at   0.000000,   0.000000,   0.000000 [a0]

Properties computed using the SCF density matrix

  Nuclear Dipole Moment: [e a0]
     X:    -8.0932      Y:    -1.5550      Z:    -7.8767

  Electronic Dipole Moment: [e a0]
     X:    10.0833      Y:     2.1503      Z:     9.9433

  Dipole Moment: [e a0]
     X:     1.9901      Y:     0.5953      Z:     2.0666     Total:     2.9302

  Dipole Moment: [D]
     X:     5.0584      Y:     1.5132      Z:     5.2529     Total:     7.4478

*** tstop() called on ds3 at Tue Apr 28 14:15:44 2020
Module time:
	user time   =      55.66 seconds =       0.93 minutes
	system time =      22.46 seconds =       0.37 minutes
	total time  =        109 seconds =       1.82 minutes
Total time:
	user time   =      55.66 seconds =       0.93 minutes
	system time =      22.46 seconds =       0.37 minutes
	total time  =        109 seconds =       1.82 minutes
                                     G D M A

                                 by Anthony Stone

                           version 2.2.06, 22 June 2011

               Distributed Multipoles from Gaussian wavefunctions

Starting at 14:15:44 on 28 Apr 2020

Using SCF density matrix from file ./SSI/SSI-033ARG-191LEU-2-dimer.test.9419.fchk

                         Distributed Multipole Analysis

Standard DMA

Positions and radii in angstrom
Multipole moments in atomic units, ea_0^k for rank k

C          x =  0.463295  y = -1.442292  z =  0.020282 angstrom
           Maximum rank =  0   Radius =  0.650 angstrom
                   Q00  =  -0.008781

C          x =  0.544295  y = -1.734292  z = -1.471718 angstrom
           Maximum rank =  0   Radius =  0.650 angstrom
                   Q00  =  -0.209911

C          x =  1.214295  y =  0.500708  z =  1.351282 angstrom
           Maximum rank =  0   Radius =  0.650 angstrom
                   Q00  =   1.088361

N          x =  1.424295  y = -0.407292  z =  0.413282 angstrom
           Maximum rank =  0   Radius =  0.650 angstrom
                   Q00  =  -0.505252

N          x =  0.072295  y =  0.521708  z =  2.014282 angstrom
           Maximum rank =  0   Radius =  0.650 angstrom
                   Q00  =  -0.586626

N          x =  2.138295  y =  1.402708  z =  1.612282 angstrom
           Maximum rank =  0   Radius =  0.650 angstrom
                   Q00  =  -0.603342

H          x = -0.562705  y = -1.155292  z =  0.252282 angstrom
           Maximum rank =  0   Radius =  0.325 angstrom
                   Q00  =   0.084565

H          x =  0.696295  y = -2.358292  z =  0.569282 angstrom
           Maximum rank =  0   Radius =  0.325 angstrom
                   Q00  =   0.105454

H          x =  1.585295  y = -1.934292  z = -1.731718 angstrom
           Maximum rank =  0   Radius =  0.325 angstrom
                   Q00  =   0.094086

H          x =  0.208295  y = -0.858292  z = -2.023718 angstrom
           Maximum rank =  0   Radius =  0.325 angstrom
                   Q00  =   0.103135

H          x =  2.367295  y = -0.451292  z =  0.020282 angstrom
           Maximum rank =  0   Radius =  0.325 angstrom
                   Q00  =   0.232767

H          x = -0.617705  y = -0.190292  z =  1.853282 angstrom
           Maximum rank =  0   Radius =  0.325 angstrom
                   Q00  =   0.272285

H          x = -0.086705  y =  1.212708  z =  2.731282 angstrom
           Maximum rank =  0   Radius =  0.325 angstrom
                   Q00  =   0.264688

H          x =  2.991295  y =  1.408708  z =  1.046282 angstrom
           Maximum rank =  0   Radius =  0.325 angstrom
                   Q00  =   0.268408

H          x =  2.004295  y =  2.094708  z =  2.330282 angstrom
           Maximum rank =  0   Radius =  0.325 angstrom
                   Q00  =   0.269105

H          x = -0.071085  y = -2.605185  z = -1.741618 angstrom
           Maximum rank =  0   Radius =  0.325 angstrom
                   Q00  =   0.133101

C          x = -2.532705  y =  0.056708  z = -1.463718 angstrom
           Maximum rank =  0   Radius =  0.650 angstrom
                   Q00  =  -0.262857

C          x = -3.206705  y =  0.987708  z = -2.445718 angstrom
           Maximum rank =  0   Radius =  0.650 angstrom
                   Q00  =  -0.196716

H          x = -2.182705  y = -0.821292  z = -2.001718 angstrom
           Maximum rank =  0   Radius =  0.325 angstrom
                   Q00  =   0.082039

H          x = -1.690705  y =  0.567708  z = -0.996718 angstrom
           Maximum rank =  0   Radius =  0.325 angstrom
                   Q00  =   0.039588

H          x = -3.240705  y = -0.252292  z = -0.691718 angstrom
           Maximum rank =  0   Radius =  0.325 angstrom
                   Q00  =   0.083568

H          x = -2.410705  y =  1.357708  z = -3.075718 angstrom
           Maximum rank =  0   Radius =  0.325 angstrom
                   Q00  =   0.066443

H          x = -4.003245  y =  0.445228  z = -2.976028 angstrom
           Maximum rank =  0   Radius =  0.325 angstrom
                   Q00  =   0.100239

H          x = -3.608265  y =  1.885777  z = -1.953558 angstrom
           Maximum rank =  0   Radius =  0.325 angstrom
                   Q00  =   0.085650

Total multipoles referred to origin at
           x =   0.000000,  y =    0.000000,  z =    0.000000 angstrom
                   Q00  =   1.000000

Finished at 14:15:44 on 28 Apr 2020

  DMA results are available in the Python driver through the
	  variable('DMA DISTRIBUTED MULTIPOLES')
  and
	  variable('DMA TOTAL MULTIPOLES')
  commands.

    Psi4 stopped on: Tuesday, 28 April 2020 02:15PM
    Psi4 wall time for execution: 0:01:49.46

*** Psi4 exiting successfully. Buy a developer a beer!
