                               Psi4 1.3.2 release

  ==> Input File <==

--------------------------------------------------------------------------
import numpy as np
set {scf_type pk
basis cc-pvdz
d_convergence 10
gdma_switch   0
gdma_limit    0
gdma_origin   [ 0.0,  0.0,  0.0 ]
}
molecule test {
    units Angstrom
    0 1
    --
    0 1
    C                0.571780671553150    -0.730729544446833     0.556756992172471
    C                1.017780671553150    -2.123729544446832     0.899756992172471
    C               -1.304219328446850    -2.247729544446833     0.456756992172471
    C               -1.283219328446850     1.558270455553167     0.551756992172471
    C               -1.780219328446850     0.128270455553167     0.449756992172471
    O               -2.988219328446850    -0.108729544446833     0.365756992172471
    N               -0.881219328446850    -0.856729544446833     0.479756992172471
    H                0.888780671553150    -0.030729544446833     1.326756992172471
    H                0.967780671553150    -0.441729544446833    -0.418243007827529
    H                0.988780671553150    -2.258729544446833     1.981756992172471
    H                2.022780671553150    -2.321729544446833     0.528756992172471
    H               -1.971219328446850    -2.430729544446833    -0.388243007827529
    H               -0.316219328446850     1.626270455553167     0.052756992172471
    H                0.269600671553150    -2.779939544446833     0.431137992172471
    H               -0.368039328446850    -2.807129544446833     0.313116992172471
    H               -1.802969328446850    -2.546249544446833     1.390638992172471
    H               -2.003139328446850     2.222990455553167     0.051894992172471
    H               -1.163319328446850     1.844030455553167     1.607201992172471
    C                2.912780671553150     1.525270455553168    -1.488243007827529
    C                3.474780671553151     2.782270455553167    -2.142243007827528
    H                3.713780671553150     0.813270455553167    -1.307243007827529
    H                2.464780671553150     1.779270455553167    -0.527243007827529
    H                2.155780671553150     1.070270455553167    -2.129243007827529
    H                4.289780671553150     3.151270455553167    -1.519243007827529
    H                3.856040671553150     2.558970455553167    -3.149604607827528
    H                2.698920671553150     3.560320455553167    -2.193967007827529

}
e, wfn = energy('scf', return_wfn=True)
gdma(wfn)
dmavals = variable('DMA DISTRIBUTED MULTIPOLES')
charges = np.array(dmavals)
print(charges)
np.save('SSI-063PRO-094VAL-1-dimer.npy', np.array(charges))--------------------------------------------------------------------------

*** tstart() called on ds3
*** at Tue Apr 28 03:56:16 2020

   => Loading Basis Set <=

    Name: CC-PVDZ
    Role: ORBITAL
    Keyword: BASIS
    atoms 1-5, 19-20  entry C          line   138 file /theoryfs2/ds/metcalf/miniconda2/envs/tf2gpu/share/psi4/basis/cc-pvdz.gbs
    atoms 6           entry O          line   198 file /theoryfs2/ds/metcalf/miniconda2/envs/tf2gpu/share/psi4/basis/cc-pvdz.gbs
    atoms 7           entry N          line   168 file /theoryfs2/ds/metcalf/miniconda2/envs/tf2gpu/share/psi4/basis/cc-pvdz.gbs
    atoms 8-18, 21-26 entry H          line    22 file /theoryfs2/ds/metcalf/miniconda2/envs/tf2gpu/share/psi4/basis/cc-pvdz.gbs

         ---------------------------------------------------------
                                   SCF
               by Justin Turney, Rob Parrish, Andy Simmonett
                          and Daniel G. A. Smith
                              RHF Reference
                        1 Threads,    500 MiB Core
         ---------------------------------------------------------

  ==> Geometry <==

    Molecular point group: c1
    Full point group: C1

    Geometry (in Angstrom), charge = 0, multiplicity = 1:

       Center              X                  Y                   Z               Mass
    ------------   -----------------  -----------------  -----------------  -----------------
         C            0.571780671553    -0.730729544447     0.556756992172    12.000000000000
         C            1.017780671553    -2.123729544447     0.899756992172    12.000000000000
         C           -1.304219328447    -2.247729544447     0.456756992172    12.000000000000
         C           -1.283219328447     1.558270455553     0.551756992172    12.000000000000
         C           -1.780219328447     0.128270455553     0.449756992172    12.000000000000
         O           -2.988219328447    -0.108729544447     0.365756992172    15.994914619570
         N           -0.881219328447    -0.856729544447     0.479756992172    14.003074004430
         H            0.888780671553    -0.030729544447     1.326756992172     1.007825032230
         H            0.967780671553    -0.441729544447    -0.418243007828     1.007825032230
         H            0.988780671553    -2.258729544447     1.981756992172     1.007825032230
         H            2.022780671553    -2.321729544447     0.528756992172     1.007825032230
         H           -1.971219328447    -2.430729544447    -0.388243007828     1.007825032230
         H           -0.316219328447     1.626270455553     0.052756992172     1.007825032230
         H            0.269600671553    -2.779939544447     0.431137992172     1.007825032230
         H           -0.368039328447    -2.807129544447     0.313116992172     1.007825032230
         H           -1.802969328447    -2.546249544447     1.390638992172     1.007825032230
         H           -2.003139328447     2.222990455553     0.051894992172     1.007825032230
         H           -1.163319328447     1.844030455553     1.607201992172     1.007825032230
         C            2.912780671553     1.525270455553    -1.488243007828    12.000000000000
         C            3.474780671553     2.782270455553    -2.142243007828    12.000000000000
         H            3.713780671553     0.813270455553    -1.307243007828     1.007825032230
         H            2.464780671553     1.779270455553    -0.527243007828     1.007825032230
         H            2.155780671553     1.070270455553    -2.129243007828     1.007825032230
         H            4.289780671553     3.151270455553    -1.519243007828     1.007825032230
         H            3.856040671553     2.558970455553    -3.149604607828     1.007825032230
         H            2.698920671553     3.560320455553    -2.193967007828     1.007825032230

  Running in c1 symmetry.

  Rotational constants: A =      0.05967  B =      0.02006  C =      0.01593 [cm^-1]
  Rotational constants: A =   1788.85974  B =    601.45797  C =    477.58235 [MHz]
  Nuclear repulsion =  467.777570907235713

  Charge       = 0
  Multiplicity = 1
  Electrons    = 74
  Nalpha       = 37
  Nbeta        = 37

  ==> Algorithm <==

  SCF Algorithm Type is PK.
  DIIS enabled.
  MOM disabled.
  Fractional occupation disabled.
  Guess Type is SAD.
  Energy threshold   = 1.00e-06
  Density threshold  = 1.00e-10
  Integral threshold = 0.00e+00

  ==> Primary Basis <==

  Basis Set: CC-PVDZ
    Blend: CC-PVDZ
    Number of shells: 105
    Number of basis function: 211
    Number of Cartesian functions: 220
    Spherical Harmonics?: true
    Max angular momentum: 2

  ==> Pre-Iterations <==

   -------------------------------------------------------
    Irrep   Nso     Nmo     Nalpha   Nbeta   Ndocc  Nsocc
   -------------------------------------------------------
     A        211     211       0       0       0       0
   -------------------------------------------------------
    Total     211     211      37      37      37       0
   -------------------------------------------------------

  ==> Integral Setup <==

  Using integral reordering PK algorithm.
  Sizing the integral batches needed.
  Building batch lookup table.
   Calculation information:
      Number of atoms:                  26
      Number of AO shells:             105
      Number of primitives:            283
      Number of atomic orbitals:       220
      Number of basis functions:       211

      Integral cutoff                 1.00e-12
      Number of threads:                 1

	Batch   1 pq = [       0,    9405] index = [             0,44231715] size =     44231715
	Batch   2 pq = [    9405,   13301] index = [      44231715,88464951] size =     44233236
	Batch   3 pq = [   13301,   16290] index = [      88464951,132690195] size =     44225244
	Batch   4 pq = [   16290,   18810] index = [     132690195,176917455] size =     44227260
	Batch   5 pq = [   18810,   21030] index = [     176917455,221140965] size =     44223510
	Batch   6 pq = [   21030,   22366] index = [     221140965,250130161] size =     28989196
  Task number: 23
  Buffer size: 11059200
  Buffer per thread: 2
  We computed 12736058 shell quartets total.
  Whereas there are 15487395 unique shell quartets.

  ==> DiskJK: Disk-Based J/K Matrices <==

    J tasked:                  Yes
    K tasked:                  Yes
    wK tasked:                  No
    Memory [MiB]:              375
    Schwarz Cutoff:          1E-12

    OpenMP threads:              1

  Minimum eigenvalue in the overlap matrix is 1.4562829761E-03.
  Using Symmetric Orthogonalization.

  SCF Guess: Superposition of Atomic Densities via on-the-fly atomic UHF.

  ==> Iterations <==

                        Total Energy        Delta E     RMS |[F,P]|

   @RHF iter SAD:  -403.47383881767263   -4.03474e+02   0.00000e+00
   @RHF iter   1:  -403.81254593388371   -3.38707e-01   3.34339e-03 DIIS
   @RHF iter   2:  -404.04188077396566   -2.29335e-01   1.85166e-03 DIIS
   @RHF iter   3:  -404.10218727895830   -6.03065e-02   4.39873e-04 DIIS
   @RHF iter   4:  -404.10741154167596   -5.22426e-03   1.73678e-04 DIIS
   @RHF iter   5:  -404.10825789848161   -8.46357e-04   3.03187e-05 DIIS
   @RHF iter   6:  -404.10831017972390   -5.22812e-05   1.53955e-05 DIIS
   @RHF iter   7:  -404.10832059881494   -1.04191e-05   5.65127e-06 DIIS
   @RHF iter   8:  -404.10832277648666   -2.17767e-06   2.20921e-06 DIIS
   @RHF iter   9:  -404.10832310118536   -3.24699e-07   5.86108e-07 DIIS
   @RHF iter  10:  -404.10832311968619   -1.85008e-08   1.69687e-07 DIIS
   @RHF iter  11:  -404.10832312125422   -1.56803e-09   5.10333e-08 DIIS
   @RHF iter  12:  -404.10832312137427   -1.20053e-10   1.62315e-08 DIIS
   @RHF iter  13:  -404.10832312139252   -1.82467e-11   4.80655e-09 DIIS
   @RHF iter  14:  -404.10832312139365   -1.13687e-12   1.20974e-09 DIIS
   @RHF iter  15:  -404.10832312139746   -3.80851e-12   3.04326e-10 DIIS
   @RHF iter  16:  -404.10832312139274    4.71800e-12   1.24517e-10 DIIS
   @RHF iter  17:  -404.10832312139308   -3.41061e-13   3.31528e-11 DIIS
  Energy and wave function converged.

  ==> Post-Iterations <==

    Orbital Energies [Eh]
    ---------------------

    Doubly Occupied:

       1A    -20.493681     2A    -15.579976     3A    -11.336573
       4A    -11.275801     5A    -11.242347     6A    -11.236882
       7A    -11.227375     8A    -11.226665     9A    -11.219700
      10A     -1.360060    11A     -1.256057    12A     -1.073535
      13A     -1.029038    14A     -1.007349    15A     -0.972536
      16A     -0.854539    17A     -0.845357    18A     -0.756974
      19A     -0.730021    20A     -0.674670    21A     -0.651804
      22A     -0.614919    23A     -0.609122    24A     -0.607446
      25A     -0.597010    26A     -0.573142    27A     -0.549985
      28A     -0.538738    29A     -0.533960    30A     -0.521886
      31A     -0.508326    32A     -0.495535    33A     -0.494126
      34A     -0.482388    35A     -0.400048    36A     -0.388937
      37A     -0.358211

    Virtual:

      38A      0.157030    39A      0.178811    40A      0.186956
      41A      0.196178    42A      0.213244    43A      0.223967
      44A      0.233792    45A      0.243751    46A      0.251362
      47A      0.253216    48A      0.266417    49A      0.272782
      50A      0.277891    51A      0.286432    52A      0.295514
      53A      0.304489    54A      0.331783    55A      0.343315
      56A      0.363169    57A      0.368005    58A      0.414340
      59A      0.416880    60A      0.452661    61A      0.501471
      62A      0.518625    63A      0.543304    64A      0.574395
      65A      0.591526    66A      0.597484    67A      0.604697
      68A      0.640434    69A      0.646666    70A      0.658749
      71A      0.672487    72A      0.677778    73A      0.701300
      74A      0.712945    75A      0.726439    76A      0.752699
      77A      0.762874    78A      0.791439    79A      0.802607
      80A      0.853146    81A      0.859071    82A      0.863919
      83A      0.866078    84A      0.880008    85A      0.881332
      86A      0.885398    87A      0.889211    88A      0.896738
      89A      0.899198    90A      0.904117    91A      0.908200
      92A      0.918544    93A      0.924477    94A      0.934604
      95A      0.943174    96A      0.973013    97A      0.993961
      98A      1.015610    99A      1.019843   100A      1.042321
     101A      1.083299   102A      1.115220   103A      1.121400
     104A      1.134919   105A      1.143521   106A      1.153950
     107A      1.213582   108A      1.235365   109A      1.248530
     110A      1.264369   111A      1.351127   112A      1.370000
     113A      1.392750   114A      1.428137   115A      1.446972
     116A      1.458777   117A      1.465986   118A      1.479533
     119A      1.499797   120A      1.559210   121A      1.565407
     122A      1.570687   123A      1.591121   124A      1.597187
     125A      1.629898   126A      1.652520   127A      1.671970
     128A      1.685001   129A      1.689287   130A      1.693680
     131A      1.746393   132A      1.765927   133A      1.816957
     134A      1.838918   135A      1.842611   136A      1.850610
     137A      1.864951   138A      1.871952   139A      1.887416
     140A      1.895574   141A      1.910785   142A      1.922574
     143A      1.933179   144A      1.936571   145A      1.942565
     146A      1.945411   147A      1.956413   148A      1.963675
     149A      1.975609   150A      1.991815   151A      2.003334
     152A      2.021656   153A      2.045827   154A      2.058647
     155A      2.067745   156A      2.092668   157A      2.108354
     158A      2.114884   159A      2.131628   160A      2.145457
     161A      2.161731   162A      2.179978   163A      2.184789
     164A      2.227187   165A      2.244327   166A      2.265404
     167A      2.274245   168A      2.293839   169A      2.330263
     170A      2.339144   171A      2.361266   172A      2.426530
     173A      2.444251   174A      2.448502   175A      2.459351
     176A      2.495305   177A      2.525350   178A      2.546989
     179A      2.551470   180A      2.561474   181A      2.566896
     182A      2.597376   183A      2.642204   184A      2.712297
     185A      2.744767   186A      2.749854   187A      2.758342
     188A      2.779174   189A      2.786826   190A      2.797670
     191A      2.813776   192A      2.831309   193A      2.835058
     194A      2.841563   195A      2.844726   196A      2.869337
     197A      2.937887   198A      2.950038   199A      2.954072
     200A      2.988234   201A      3.037430   202A      3.104302
     203A      3.132039   204A      3.179357   205A      3.235558
     206A      3.340966   207A      3.370488   208A      3.523267
     209A      3.839041   210A      3.906653   211A      5.162238

    Final Occupation by Irrep:
              A
    DOCC [    37 ]

  @RHF Final Energy:  -404.10832312139308

   => Energetics <=

    Nuclear Repulsion Energy =            467.7775709072357131
    One-Electron Energy =               -1475.1223484812189781
    Two-Electron Energy =                 603.2364544525902375
    Total Energy =                       -404.1083231213930276

Computation Completed

Properties will be evaluated at   0.000000,   0.000000,   0.000000 [a0]

Properties computed using the SCF density matrix

  Nuclear Dipole Moment: [e a0]
     X:    15.6363      Y:     2.8235      Z:    -3.7017

  Electronic Dipole Moment: [e a0]
     X:   -13.8526      Y:    -2.9951      Z:     3.8074

  Dipole Moment: [e a0]
     X:     1.7838      Y:    -0.1716      Z:     0.1057     Total:     1.7951

  Dipole Moment: [D]
     X:     4.5340      Y:    -0.4362      Z:     0.2687     Total:     4.5628

*** tstop() called on ds3 at Tue Apr 28 03:59:06 2020
Module time:
	user time   =      82.75 seconds =       1.38 minutes
	system time =      35.71 seconds =       0.60 minutes
	total time  =        170 seconds =       2.83 minutes
Total time:
	user time   =      82.75 seconds =       1.38 minutes
	system time =      35.71 seconds =       0.60 minutes
	total time  =        170 seconds =       2.83 minutes
                                     G D M A

                                 by Anthony Stone

                           version 2.2.06, 22 June 2011

               Distributed Multipoles from Gaussian wavefunctions

Starting at 3:59:6 on 28 Apr 2020

Using SCF density matrix from file ./SSI/SSI-063PRO-094VAL-1-dimer.test.27035.fchk

                         Distributed Multipole Analysis

Standard DMA

Positions and radii in angstrom
Multipole moments in atomic units, ea_0^k for rank k

C          x =  0.571781  y = -0.730730  z =  0.556757 angstrom
           Maximum rank =  0   Radius =  0.650 angstrom
                   Q00  =   0.003658

C          x =  1.017781  y = -2.123730  z =  0.899757 angstrom
           Maximum rank =  0   Radius =  0.650 angstrom
                   Q00  =  -0.245679

C          x = -1.304219  y = -2.247730  z =  0.456757 angstrom
           Maximum rank =  0   Radius =  0.650 angstrom
                   Q00  =  -0.100041

C          x = -1.283219  y =  1.558270  z =  0.551757 angstrom
           Maximum rank =  0   Radius =  0.650 angstrom
                   Q00  =  -0.264391

C          x = -1.780219  y =  0.128270  z =  0.449757 angstrom
           Maximum rank =  0   Radius =  0.650 angstrom
                   Q00  =   0.756685

O          x = -2.988219  y = -0.108730  z =  0.365757 angstrom
           Maximum rank =  0   Radius =  0.650 angstrom
                   Q00  =  -0.794329

N          x = -0.881219  y = -0.856730  z =  0.479757 angstrom
           Maximum rank =  0   Radius =  0.650 angstrom
                   Q00  =  -0.452556

H          x =  0.888781  y = -0.030730  z =  1.326757 angstrom
           Maximum rank =  0   Radius =  0.325 angstrom
                   Q00  =   0.080852

H          x =  0.967781  y = -0.441730  z = -0.418243 angstrom
           Maximum rank =  0   Radius =  0.325 angstrom
                   Q00  =   0.061699

H          x =  0.988781  y = -2.258730  z =  1.981757 angstrom
           Maximum rank =  0   Radius =  0.325 angstrom
                   Q00  =   0.098281

H          x =  2.022781  y = -2.321730  z =  0.528757 angstrom
           Maximum rank =  0   Radius =  0.325 angstrom
                   Q00  =   0.088678

H          x = -1.971219  y = -2.430730  z = -0.388243 angstrom
           Maximum rank =  0   Radius =  0.325 angstrom
                   Q00  =   0.104553

H          x = -0.316219  y =  1.626270  z =  0.052757 angstrom
           Maximum rank =  0   Radius =  0.325 angstrom
                   Q00  =   0.093180

H          x =  0.269601  y = -2.779940  z =  0.431138 angstrom
           Maximum rank =  0   Radius =  0.325 angstrom
                   Q00  =   0.113309

H          x = -0.368039  y = -2.807130  z =  0.313117 angstrom
           Maximum rank =  0   Radius =  0.325 angstrom
                   Q00  =   0.101002

H          x = -1.802969  y = -2.546250  z =  1.390639 angstrom
           Maximum rank =  0   Radius =  0.325 angstrom
                   Q00  =   0.099964

H          x = -2.003139  y =  2.222990  z =  0.051895 angstrom
           Maximum rank =  0   Radius =  0.325 angstrom
                   Q00  =   0.130370

H          x = -1.163319  y =  1.844030  z =  1.607202 angstrom
           Maximum rank =  0   Radius =  0.325 angstrom
                   Q00  =   0.124304

C          x =  2.912781  y =  1.525270  z = -1.488243 angstrom
           Maximum rank =  0   Radius =  0.650 angstrom
                   Q00  =  -0.244734

C          x =  3.474781  y =  2.782270  z = -2.142243 angstrom
           Maximum rank =  0   Radius =  0.650 angstrom
                   Q00  =  -0.232227

H          x =  3.713781  y =  0.813270  z = -1.307243 angstrom
           Maximum rank =  0   Radius =  0.325 angstrom
                   Q00  =   0.081098

H          x =  2.464781  y =  1.779270  z = -0.527243 angstrom
           Maximum rank =  0   Radius =  0.325 angstrom
                   Q00  =   0.075663

H          x =  2.155781  y =  1.070270  z = -2.129243 angstrom
           Maximum rank =  0   Radius =  0.325 angstrom
                   Q00  =   0.076840

H          x =  4.289781  y =  3.151270  z = -1.519243 angstrom
           Maximum rank =  0   Radius =  0.325 angstrom
                   Q00  =   0.080170

H          x =  3.856041  y =  2.558970  z = -3.149605 angstrom
           Maximum rank =  0   Radius =  0.325 angstrom
                   Q00  =   0.083069

H          x =  2.698921  y =  3.560320  z = -2.193967 angstrom
           Maximum rank =  0   Radius =  0.325 angstrom
                   Q00  =   0.080581

Total multipoles referred to origin at
           x =   0.000000,  y =    0.000000,  z =    0.000000 angstrom
                   Q00  =  -0.000000

Finished at 3:59:6 on 28 Apr 2020

  DMA results are available in the Python driver through the
	  variable('DMA DISTRIBUTED MULTIPOLES')
  and
	  variable('DMA TOTAL MULTIPOLES')
  commands.

    Psi4 stopped on: Tuesday, 28 April 2020 03:59AM
    Psi4 wall time for execution: 0:02:50.97

*** Psi4 exiting successfully. Buy a developer a beer!
