                               Psi4 1.3.2 release

  ==> Input File <==

--------------------------------------------------------------------------
import numpy as np
set {scf_type pk
basis cc-pvdz
d_convergence 10
gdma_switch   0
gdma_limit    0
gdma_origin   [ 0.0,  0.0,  0.0 ]
}
molecule test {
    units Angstrom
    0 1
    --
    0 1
    C                1.807305481029092     0.707957371042892    -2.550725478606671
    C                1.162305481029092     0.689957371042892    -3.964725478606671
    C                2.988305481029093    -0.238042628957108    -2.703725478606671
    H                1.086305481029093     0.314957371042892    -1.832725478606671
    H                2.123305481029092     1.712957371042892    -2.269725478606671
    H                0.127305481029093     1.028957371042892    -3.940725478606671
    H                1.754305481029093     1.299957371042892    -4.649725478606671
    H                3.848305481029092     0.314957371042892    -3.088725478606671
    H                1.234355481029092    -0.369974628957108    -4.249949478606671
    H                2.635825481029093    -0.942996628957108    -3.471055478606671
    H                3.268315481029092    -0.742068628957108    -1.766945478606671
    C                0.472305481029093     0.492957371042892     0.981274521393329
    C                1.278305481029093     0.837957371042892     2.222274521393329
    C               -0.645694518970907    -0.390042628957108     2.951274521393329
    C               -2.957694518970907    -1.185042628957108     1.381274521393329
    C               -1.766694518970907    -0.481042628957108     0.741274521393329
    O               -1.757694518970907    -0.254042628957108    -0.465725478606671
    N               -0.728694518970907    -0.166042628957108     1.513274521393329
    H                0.226305481029093     1.392957371042892     0.416274521393329
    H                1.030305481029093    -0.214042628957108     0.368274521393329
    H                1.005305481029092     1.830957371042892     2.575274521393329
    H                2.343305481029093     0.800957371042892     2.008274521393329
    H               -0.926694518970907    -1.405042628957108     3.202274521393329
    H               -2.958694518970907    -1.014042628957108     2.452274521393329
    H                0.971035481029093     0.088216371042892     2.966234521393329
    H                0.424595481029093    -0.253668628957108     3.165474521393329
    H               -1.245624518970907     0.348163371042892     3.503664521393329
    H               -3.876054518970907    -0.754254628957108     0.955784521393329
    H               -2.894634518970908    -2.273462228957108     1.235104521393329

}
e, wfn = energy('scf', return_wfn=True)
gdma(wfn)
dmavals = variable('DMA DISTRIBUTED MULTIPOLES')
charges = np.array(dmavals)
print(charges)
np.save('SSI-139PRO-180PRO-1-dimer.npy', np.array(charges))--------------------------------------------------------------------------

*** tstart() called on ds3
*** at Mon Apr 27 13:15:24 2020

   => Loading Basis Set <=

    Name: CC-PVDZ
    Role: ORBITAL
    Keyword: BASIS
    atoms 1-3, 12-16  entry C          line   138 file /theoryfs2/ds/metcalf/miniconda2/envs/tf2gpu/share/psi4/basis/cc-pvdz.gbs
    atoms 4-11, 19-29 entry H          line    22 file /theoryfs2/ds/metcalf/miniconda2/envs/tf2gpu/share/psi4/basis/cc-pvdz.gbs
    atoms 17          entry O          line   198 file /theoryfs2/ds/metcalf/miniconda2/envs/tf2gpu/share/psi4/basis/cc-pvdz.gbs
    atoms 18          entry N          line   168 file /theoryfs2/ds/metcalf/miniconda2/envs/tf2gpu/share/psi4/basis/cc-pvdz.gbs

         ---------------------------------------------------------
                                   SCF
               by Justin Turney, Rob Parrish, Andy Simmonett
                          and Daniel G. A. Smith
                              RHF Reference
                        1 Threads,    500 MiB Core
         ---------------------------------------------------------

  ==> Geometry <==

    Molecular point group: c1
    Full point group: C1

    Geometry (in Angstrom), charge = 0, multiplicity = 1:

       Center              X                  Y                   Z               Mass
    ------------   -----------------  -----------------  -----------------  -----------------
         C            1.807305481029     0.707957371043    -2.550725478607    12.000000000000
         C            1.162305481029     0.689957371043    -3.964725478607    12.000000000000
         C            2.988305481029    -0.238042628957    -2.703725478607    12.000000000000
         H            1.086305481029     0.314957371043    -1.832725478607     1.007825032230
         H            2.123305481029     1.712957371043    -2.269725478607     1.007825032230
         H            0.127305481029     1.028957371043    -3.940725478607     1.007825032230
         H            1.754305481029     1.299957371043    -4.649725478607     1.007825032230
         H            3.848305481029     0.314957371043    -3.088725478607     1.007825032230
         H            1.234355481029    -0.369974628957    -4.249949478607     1.007825032230
         H            2.635825481029    -0.942996628957    -3.471055478607     1.007825032230
         H            3.268315481029    -0.742068628957    -1.766945478607     1.007825032230
         C            0.472305481029     0.492957371043     0.981274521393    12.000000000000
         C            1.278305481029     0.837957371043     2.222274521393    12.000000000000
         C           -0.645694518971    -0.390042628957     2.951274521393    12.000000000000
         C           -2.957694518971    -1.185042628957     1.381274521393    12.000000000000
         C           -1.766694518971    -0.481042628957     0.741274521393    12.000000000000
         O           -1.757694518971    -0.254042628957    -0.465725478607    15.994914619570
         N           -0.728694518971    -0.166042628957     1.513274521393    14.003074004430
         H            0.226305481029     1.392957371043     0.416274521393     1.007825032230
         H            1.030305481029    -0.214042628957     0.368274521393     1.007825032230
         H            1.005305481029     1.830957371043     2.575274521393     1.007825032230
         H            2.343305481029     0.800957371043     2.008274521393     1.007825032230
         H           -0.926694518971    -1.405042628957     3.202274521393     1.007825032230
         H           -2.958694518971    -1.014042628957     2.452274521393     1.007825032230
         H            0.971035481029     0.088216371043     2.966234521393     1.007825032230
         H            0.424595481029    -0.253668628957     3.165474521393     1.007825032230
         H           -1.245624518971     0.348163371043     3.503664521393     1.007825032230
         H           -3.876054518971    -0.754254628957     0.955784521393     1.007825032230
         H           -2.894634518971    -2.273462228957     1.235104521393     1.007825032230

  Running in c1 symmetry.

  Rotational constants: A =      0.05273  B =      0.01671  C =      0.01346 [cm^-1]
  Rotational constants: A =   1580.92112  B =    501.01253  C =    403.65941 [MHz]
  Nuclear repulsion =  552.114769402237926

  Charge       = 0
  Multiplicity = 1
  Electrons    = 82
  Nalpha       = 41
  Nbeta        = 41

  ==> Algorithm <==

  SCF Algorithm Type is PK.
  DIIS enabled.
  MOM disabled.
  Fractional occupation disabled.
  Guess Type is SAD.
  Energy threshold   = 1.00e-06
  Density threshold  = 1.00e-10
  Integral threshold = 0.00e+00

  ==> Primary Basis <==

  Basis Set: CC-PVDZ
    Blend: CC-PVDZ
    Number of shells: 117
    Number of basis function: 235
    Number of Cartesian functions: 245
    Spherical Harmonics?: true
    Max angular momentum: 2

  ==> Pre-Iterations <==

   -------------------------------------------------------
    Irrep   Nso     Nmo     Nalpha   Nbeta   Ndocc  Nsocc
   -------------------------------------------------------
     A        235     235       0       0       0       0
   -------------------------------------------------------
    Total     235     235      41      41      41       0
   -------------------------------------------------------

  ==> Integral Setup <==

  Using integral reordering PK algorithm.
  Sizing the integral batches needed.
  Building batch lookup table.
   Calculation information:
      Number of atoms:                  29
      Number of AO shells:             117
      Number of primitives:            315
      Number of atomic orbitals:       245
      Number of basis functions:       235

      Integral cutoff                 1.00e-12
      Number of threads:                 1

	Batch   1 pq = [       0,    9405] index = [             0,44231715] size =     44231715
	Batch   2 pq = [    9405,   13301] index = [      44231715,88464951] size =     44233236
	Batch   3 pq = [   13301,   16290] index = [      88464951,132690195] size =     44225244
	Batch   4 pq = [   16290,   18810] index = [     132690195,176917455] size =     44227260
	Batch   5 pq = [   18810,   21030] index = [     176917455,221140965] size =     44223510
	Batch   6 pq = [   21030,   23037] index = [     221140965,265363203] size =     44222238
	Batch   7 pq = [   23037,   24883] index = [     265363203,309594286] size =     44231083
	Batch   8 pq = [   24883,   26601] index = [     309594286,353819901] size =     44225615
	Batch   9 pq = [   26601,   27730] index = [     353819901,384490315] size =     30670414
  Task number: 35
  Buffer size: 11059200
  Buffer per thread: 2
  We computed 19640611 shell quartets total.
  Whereas there are 23829156 unique shell quartets.

  ==> DiskJK: Disk-Based J/K Matrices <==

    J tasked:                  Yes
    K tasked:                  Yes
    wK tasked:                  No
    Memory [MiB]:              375
    Schwarz Cutoff:          1E-12

    OpenMP threads:              1

  Minimum eigenvalue in the overlap matrix is 1.5505479150E-03.
  Using Symmetric Orthogonalization.

  SCF Guess: Superposition of Atomic Densities via on-the-fly atomic UHF.

  ==> Iterations <==

                        Total Energy        Delta E     RMS |[F,P]|

   @RHF iter SAD:  -442.50968958433822   -4.42510e+02   0.00000e+00
   @RHF iter   1:  -442.82395405923660   -3.14264e-01   3.11645e-03 DIIS
   @RHF iter   2:  -443.07733871827463   -2.53385e-01   1.69319e-03 DIIS
   @RHF iter   3:  -443.14138359489687   -6.40449e-02   4.10300e-04 DIIS
   @RHF iter   4:  -443.14693067898742   -5.54708e-03   1.63676e-04 DIIS
   @RHF iter   5:  -443.14782397880964   -8.93300e-04   2.74633e-05 DIIS
   @RHF iter   6:  -443.14787703050524   -5.30517e-05   1.33478e-05 DIIS
   @RHF iter   7:  -443.14788724249536   -1.02120e-05   5.00921e-06 DIIS
   @RHF iter   8:  -443.14788935847230   -2.11598e-06   2.04076e-06 DIIS
   @RHF iter   9:  -443.14788970061704   -3.42145e-07   5.61603e-07 DIIS
   @RHF iter  10:  -443.14788972151854   -2.09015e-08   1.55704e-07 DIIS
   @RHF iter  11:  -443.14788972322492   -1.70638e-09   4.32244e-08 DIIS
   @RHF iter  12:  -443.14788972334520   -1.20281e-10   1.22429e-08 DIIS
   @RHF iter  13:  -443.14788972335413   -8.92442e-12   3.97535e-09 DIIS
   @RHF iter  14:  -443.14788972335731   -3.18323e-12   1.08052e-09 DIIS
   @RHF iter  15:  -443.14788972335106    6.25278e-12   3.33703e-10 DIIS
   @RHF iter  16:  -443.14788972335595   -4.88853e-12   1.45529e-10 DIIS
   @RHF iter  17:  -443.14788972335435    1.59162e-12   5.93813e-11 DIIS
  Energy and wave function converged.

  ==> Post-Iterations <==

    Orbital Energies [Eh]
    ---------------------

    Doubly Occupied:

       1A    -20.497502     2A    -15.582363     3A    -11.338526
       4A    -11.265916     5A    -11.258561     6A    -11.235801
       7A    -11.220856     8A    -11.207439     9A    -11.206748
      10A    -11.204238    11A     -1.365562    12A     -1.255611
      13A     -1.070314    14A     -1.049970    15A     -1.000386
      16A     -0.978579    17A     -0.901397    18A     -0.852771
      19A     -0.789914    20A     -0.759791    21A     -0.726484
      22A     -0.671330    23A     -0.662868    24A     -0.624791
      25A     -0.611424    26A     -0.601067    27A     -0.599122
      28A     -0.580734    29A     -0.556020    30A     -0.540402
      31A     -0.529434    32A     -0.523655    33A     -0.513879
      34A     -0.499951    35A     -0.484811    36A     -0.472120
      37A     -0.460240    38A     -0.447240    39A     -0.411205
      40A     -0.397588    41A     -0.361125

    Virtual:

      42A      0.164619    43A      0.179564    44A      0.195033
      45A      0.202070    46A      0.217040    47A      0.224001
      48A      0.238408    49A      0.240750    50A      0.246187
      51A      0.250419    52A      0.259267    53A      0.264267
      54A      0.277661    55A      0.286274    56A      0.297637
      57A      0.307356    58A      0.315896    59A      0.318596
      60A      0.336506    61A      0.345472    62A      0.359939
      63A      0.386340    64A      0.392973    65A      0.408815
      66A      0.439376    67A      0.464777    68A      0.487161
      69A      0.513368    70A      0.554136    71A      0.572787
      72A      0.588282    73A      0.604942    74A      0.616997
      75A      0.641961    76A      0.645318    77A      0.663249
      78A      0.665572    79A      0.678524    80A      0.688916
      81A      0.702477    82A      0.715705    83A      0.756306
      84A      0.777254    85A      0.793375    86A      0.806227
      87A      0.823357    88A      0.836245    89A      0.843266
      90A      0.854377    91A      0.858040    92A      0.858444
      93A      0.870556    94A      0.871887    95A      0.881512
      96A      0.886373    97A      0.892776    98A      0.904100
      99A      0.906033   100A      0.912332   101A      0.917062
     102A      0.921940   103A      0.927200   104A      0.931542
     105A      0.943167   106A      0.947338   107A      0.970415
     108A      0.974460   109A      0.996682   110A      1.012701
     111A      1.020996   112A      1.033644   113A      1.060243
     114A      1.107492   115A      1.113327   116A      1.135416
     117A      1.150507   118A      1.161421   119A      1.206410
     120A      1.219785   121A      1.246414   122A      1.266463
     123A      1.347671   124A      1.397229   125A      1.400439
     126A      1.404533   127A      1.421956   128A      1.432894
     129A      1.465178   130A      1.483614   131A      1.488656
     132A      1.511314   133A      1.545870   134A      1.558325
     135A      1.573847   136A      1.594460   137A      1.600741
     138A      1.621523   139A      1.625230   140A      1.630469
     141A      1.651924   142A      1.679792   143A      1.696451
     144A      1.748579   145A      1.755220   146A      1.756567
     147A      1.778813   148A      1.819368   149A      1.825351
     150A      1.842686   151A      1.846378   152A      1.868448
     153A      1.876330   154A      1.877182   155A      1.886805
     156A      1.899328   157A      1.914071   158A      1.922445
     159A      1.927193   160A      1.934434   161A      1.942593
     162A      1.955394   163A      1.967839   164A      1.984607
     165A      1.987978   166A      1.998939   167A      2.008586
     168A      2.013307   169A      2.017038   170A      2.024486
     171A      2.049486   172A      2.059188   173A      2.073276
     174A      2.091907   175A      2.101954   176A      2.108350
     177A      2.135714   178A      2.141821   179A      2.165745
     180A      2.168681   181A      2.183861   182A      2.199920
     183A      2.226117   184A      2.243970   185A      2.254319
     186A      2.286164   187A      2.316315   188A      2.319995
     189A      2.327180   190A      2.351787   191A      2.361207
     192A      2.407036   193A      2.426035   194A      2.452644
     195A      2.476882   196A      2.494678   197A      2.506487
     198A      2.519246   199A      2.524505   200A      2.553984
     201A      2.574250   202A      2.626398   203A      2.640445
     204A      2.651091   205A      2.693109   206A      2.704290
     207A      2.749497   208A      2.759173   209A      2.766342
     210A      2.776306   211A      2.781062   212A      2.789774
     213A      2.801490   214A      2.813177   215A      2.835528
     216A      2.842262   217A      2.848394   218A      2.854836
     219A      2.873216   220A      2.928223   221A      2.937989
     222A      2.968035   223A      2.969974   224A      3.036140
     225A      3.077074   226A      3.094015   227A      3.117296
     228A      3.182214   229A      3.211667   230A      3.274060
     231A      3.387682   232A      3.527805   233A      3.839487
     234A      3.921170   235A      4.953522

    Final Occupation by Irrep:
              A
    DOCC [    41 ]

  @RHF Final Energy:  -443.14788972335435

   => Energetics <=

    Nuclear Repulsion Energy =            552.1147694022379255
    One-Electron Energy =               -1695.8898431474228801
    Two-Electron Energy =                 700.6271840218305442
    Total Energy =                       -443.1478897233544103

Computation Completed

Properties will be evaluated at   0.000000,   0.000000,   0.000000 [a0]

Properties computed using the SCF density matrix

  Nuclear Dipole Moment: [e a0]
     X:     9.5345      Y:     1.0900      Z:    -2.2759

  Electronic Dipole Moment: [e a0]
     X:    -9.1540      Y:    -1.2024      Z:     4.0540

  Dipole Moment: [e a0]
     X:     0.3805      Y:    -0.1124      Z:     1.7780     Total:     1.8218

  Dipole Moment: [D]
     X:     0.9670      Y:    -0.2856      Z:     4.5193     Total:     4.6305

*** tstop() called on ds3 at Mon Apr 27 13:18:55 2020
Module time:
	user time   =     146.73 seconds =       2.45 minutes
	system time =      73.60 seconds =       1.23 minutes
	total time  =        211 seconds =       3.52 minutes
Total time:
	user time   =     146.73 seconds =       2.45 minutes
	system time =      73.60 seconds =       1.23 minutes
	total time  =        211 seconds =       3.52 minutes
                                     G D M A

                                 by Anthony Stone

                           version 2.2.06, 22 June 2011

               Distributed Multipoles from Gaussian wavefunctions

Starting at 13:18:55 on 27 Apr 2020

Using SCF density matrix from file ./SSI/SSI-139PRO-180PRO-1-dimer.test.5904.fchk

                         Distributed Multipole Analysis

Standard DMA

Positions and radii in angstrom
Multipole moments in atomic units, ea_0^k for rank k

C          x =  1.807305  y =  0.707957  z = -2.550725 angstrom
           Maximum rank =  0   Radius =  0.650 angstrom
                   Q00  =  -0.102609

C          x =  1.162305  y =  0.689957  z = -3.964725 angstrom
           Maximum rank =  0   Radius =  0.650 angstrom
                   Q00  =  -0.225995

C          x =  2.988305  y = -0.238043  z = -2.703725 angstrom
           Maximum rank =  0   Radius =  0.650 angstrom
                   Q00  =  -0.230165

H          x =  1.086305  y =  0.314957  z = -1.832725 angstrom
           Maximum rank =  0   Radius =  0.325 angstrom
                   Q00  =   0.065187

H          x =  2.123305  y =  1.712957  z = -2.269725 angstrom
           Maximum rank =  0   Radius =  0.325 angstrom
                   Q00  =   0.048991

H          x =  0.127305  y =  1.028957  z = -3.940725 angstrom
           Maximum rank =  0   Radius =  0.325 angstrom
                   Q00  =   0.095251

H          x =  1.754305  y =  1.299957  z = -4.649725 angstrom
           Maximum rank =  0   Radius =  0.325 angstrom
                   Q00  =   0.072281

H          x =  3.848305  y =  0.314957  z = -3.088725 angstrom
           Maximum rank =  0   Radius =  0.325 angstrom
                   Q00  =   0.074781

H          x =  1.234355  y = -0.369975  z = -4.249949 angstrom
           Maximum rank =  0   Radius =  0.325 angstrom
                   Q00  =   0.054654

H          x =  2.635825  y = -0.942997  z = -3.471055 angstrom
           Maximum rank =  0   Radius =  0.325 angstrom
                   Q00  =   0.068653

H          x =  3.268315  y = -0.742069  z = -1.766945 angstrom
           Maximum rank =  0   Radius =  0.325 angstrom
                   Q00  =   0.073375

C          x =  0.472305  y =  0.492957  z =  0.981275 angstrom
           Maximum rank =  0   Radius =  0.650 angstrom
                   Q00  =   0.041897

C          x =  1.278305  y =  0.837957  z =  2.222275 angstrom
           Maximum rank =  0   Radius =  0.650 angstrom
                   Q00  =  -0.265447

C          x = -0.645695  y = -0.390043  z =  2.951275 angstrom
           Maximum rank =  0   Radius =  0.650 angstrom
                   Q00  =  -0.086705

C          x = -2.957695  y = -1.185043  z =  1.381275 angstrom
           Maximum rank =  0   Radius =  0.650 angstrom
                   Q00  =  -0.263124

C          x = -1.766695  y = -0.481043  z =  0.741275 angstrom
           Maximum rank =  0   Radius =  0.650 angstrom
                   Q00  =   0.755947

O          x = -1.757695  y = -0.254043  z = -0.465725 angstrom
           Maximum rank =  0   Radius =  0.650 angstrom
                   Q00  =  -0.799949

N          x = -0.728695  y = -0.166043  z =  1.513275 angstrom
           Maximum rank =  0   Radius =  0.650 angstrom
                   Q00  =  -0.471115

H          x =  0.226305  y =  1.392957  z =  0.416275 angstrom
           Maximum rank =  0   Radius =  0.325 angstrom
                   Q00  =   0.091857

H          x =  1.030305  y = -0.214043  z =  0.368275 angstrom
           Maximum rank =  0   Radius =  0.325 angstrom
                   Q00  =   0.069952

H          x =  1.005305  y =  1.830957  z =  2.575275 angstrom
           Maximum rank =  0   Radius =  0.325 angstrom
                   Q00  =   0.100220

H          x =  2.343305  y =  0.800957  z =  2.008275 angstrom
           Maximum rank =  0   Radius =  0.325 angstrom
                   Q00  =   0.094660

H          x = -0.926695  y = -1.405043  z =  3.202275 angstrom
           Maximum rank =  0   Radius =  0.325 angstrom
                   Q00  =   0.089311

H          x = -2.958695  y = -1.014043  z =  2.452275 angstrom
           Maximum rank =  0   Radius =  0.325 angstrom
                   Q00  =   0.089179

H          x =  0.971035  y =  0.088216  z =  2.966235 angstrom
           Maximum rank =  0   Radius =  0.325 angstrom
                   Q00  =   0.076154

H          x =  0.424595  y = -0.253669  z =  3.165475 angstrom
           Maximum rank =  0   Radius =  0.325 angstrom
                   Q00  =   0.142081

H          x = -1.245625  y =  0.348163  z =  3.503665 angstrom
           Maximum rank =  0   Radius =  0.325 angstrom
                   Q00  =   0.083560

H          x = -3.876055  y = -0.754255  z =  0.955785 angstrom
           Maximum rank =  0   Radius =  0.325 angstrom
                   Q00  =   0.128167

H          x = -2.894635  y = -2.273462  z =  1.235105 angstrom
           Maximum rank =  0   Radius =  0.325 angstrom
                   Q00  =   0.128954

Total multipoles referred to origin at
           x =   0.000000,  y =    0.000000,  z =    0.000000 angstrom
                   Q00  =  -0.000000

Finished at 13:18:55 on 27 Apr 2020

  DMA results are available in the Python driver through the
	  variable('DMA DISTRIBUTED MULTIPOLES')
  and
	  variable('DMA TOTAL MULTIPOLES')
  commands.

    Psi4 stopped on: Monday, 27 April 2020 01:18PM
    Psi4 wall time for execution: 0:03:30.38

*** Psi4 exiting successfully. Buy a developer a beer!
