                               Psi4 1.3.2 release

  ==> Input File <==

--------------------------------------------------------------------------
import numpy as np
set {scf_type pk
basis cc-pvdz
d_convergence 10
gdma_switch   0
gdma_limit    0
gdma_origin   [ 0.0,  0.0,  0.0 ]
}
molecule test {
    units Angstrom
    0 1
    --
    0 1
    C               -2.874896432410271    -0.610155408566644     1.283705022249863
    C               -2.321896432410271    -0.720155408566644     2.685705022249863
    H               -2.598896432410271    -1.484155408566644     0.694705022249863
    H               -3.961896432410271    -0.546155408566644     1.328705022249863
    H               -2.490896432410271     0.288844591433356     0.802705022249863
    H               -2.765896432410272    -1.586155408566644     3.175705022249863
    H               -2.638896432410271     0.172844591433356     3.225705022249862
    H               -1.224606432410271    -0.791245408566644     2.715866022249863
    C                2.643103567589729    -1.410155408566644    -0.393294977750137
    C               -0.494896432410271     0.312844591433356    -1.610294977750137
    C               -0.490896432410271     1.456844591433356    -0.857294977750137
    C                0.510103567589729    -0.634155408566644    -1.450294977750137
    C                1.518103567589729    -0.434155408566644    -0.522294977750137
    C                0.517103567589729     1.682844591433357     0.051705022249863
    C                1.511103567589729     0.742844591433356     0.214705022249863
    H               -1.281896432410271     0.144844591433356    -2.334294977750137
    H               -1.279896432410271     2.187844591433357    -0.981294977750137
    H                0.513103567589729    -1.522155408566644    -2.063294977750137
    H                0.521103567589729     2.587844591433356     0.646705022249863
    H                2.302103567589729    -2.408155408566644    -0.666294977750137
    H                2.951103567589729    -1.448155408566644     0.652705022249863
    H                2.294103567589728     0.924844591433356     0.930705022249863
    H                3.506341567589728    -1.124085408566644    -1.012152977750137

}
e, wfn = energy('scf', return_wfn=True)
gdma(wfn)
dmavals = variable('DMA DISTRIBUTED MULTIPOLES')
charges = np.array(dmavals)
print(charges)
np.save('SSI-126ILE-139PHE-1-dimer.npy', np.array(charges))--------------------------------------------------------------------------

*** tstart() called on ds3
*** at Tue Apr 28 13:22:28 2020

   => Loading Basis Set <=

    Name: CC-PVDZ
    Role: ORBITAL
    Keyword: BASIS
    atoms 1-2, 9-15  entry C          line   138 file /theoryfs2/ds/metcalf/miniconda2/envs/tf2gpu/share/psi4/basis/cc-pvdz.gbs
    atoms 3-8, 16-23 entry H          line    22 file /theoryfs2/ds/metcalf/miniconda2/envs/tf2gpu/share/psi4/basis/cc-pvdz.gbs

         ---------------------------------------------------------
                                   SCF
               by Justin Turney, Rob Parrish, Andy Simmonett
                          and Daniel G. A. Smith
                              RHF Reference
                        1 Threads,    500 MiB Core
         ---------------------------------------------------------

  ==> Geometry <==

    Molecular point group: c1
    Full point group: C1

    Geometry (in Angstrom), charge = 0, multiplicity = 1:

       Center              X                  Y                   Z               Mass
    ------------   -----------------  -----------------  -----------------  -----------------
         C           -2.874896432410    -0.610155408567     1.283705022250    12.000000000000
         C           -2.321896432410    -0.720155408567     2.685705022250    12.000000000000
         H           -2.598896432410    -1.484155408567     0.694705022250     1.007825032230
         H           -3.961896432410    -0.546155408567     1.328705022250     1.007825032230
         H           -2.490896432410     0.288844591433     0.802705022250     1.007825032230
         H           -2.765896432410    -1.586155408567     3.175705022250     1.007825032230
         H           -2.638896432410     0.172844591433     3.225705022250     1.007825032230
         H           -1.224606432410    -0.791245408567     2.715866022250     1.007825032230
         C            2.643103567590    -1.410155408567    -0.393294977750    12.000000000000
         C           -0.494896432410     0.312844591433    -1.610294977750    12.000000000000
         C           -0.490896432410     1.456844591433    -0.857294977750    12.000000000000
         C            0.510103567590    -0.634155408567    -1.450294977750    12.000000000000
         C            1.518103567590    -0.434155408567    -0.522294977750    12.000000000000
         C            0.517103567590     1.682844591433     0.051705022250    12.000000000000
         C            1.511103567590     0.742844591433     0.214705022250    12.000000000000
         H           -1.281896432410     0.144844591433    -2.334294977750     1.007825032230
         H           -1.279896432410     2.187844591433    -0.981294977750     1.007825032230
         H            0.513103567590    -1.522155408567    -2.063294977750     1.007825032230
         H            0.521103567590     2.587844591433     0.646705022250     1.007825032230
         H            2.302103567590    -2.408155408567    -0.666294977750     1.007825032230
         H            2.951103567590    -1.448155408567     0.652705022250     1.007825032230
         H            2.294103567590     0.924844591433     0.930705022250     1.007825032230
         H            3.506341567590    -1.124085408567    -1.012152977750     1.007825032230

  Running in c1 symmetry.

  Rotational constants: A =      0.06326  B =      0.02851  C =      0.02572 [cm^-1]
  Rotational constants: A =   1896.38250  B =    854.80977  C =    771.00806 [MHz]
  Nuclear repulsion =  414.455724286220402

  Charge       = 0
  Multiplicity = 1
  Electrons    = 68
  Nalpha       = 34
  Nbeta        = 34

  ==> Algorithm <==

  SCF Algorithm Type is PK.
  DIIS enabled.
  MOM disabled.
  Fractional occupation disabled.
  Guess Type is SAD.
  Energy threshold   = 1.00e-06
  Density threshold  = 1.00e-10
  Integral threshold = 0.00e+00

  ==> Primary Basis <==

  Basis Set: CC-PVDZ
    Blend: CC-PVDZ
    Number of shells: 96
    Number of basis function: 196
    Number of Cartesian functions: 205
    Spherical Harmonics?: true
    Max angular momentum: 2

  ==> Pre-Iterations <==

   -------------------------------------------------------
    Irrep   Nso     Nmo     Nalpha   Nbeta   Ndocc  Nsocc
   -------------------------------------------------------
     A        196     196       0       0       0       0
   -------------------------------------------------------
    Total     196     196      34      34      34       0
   -------------------------------------------------------

  ==> Integral Setup <==

  Using integral reordering PK algorithm.
  Sizing the integral batches needed.
  Building batch lookup table.
   Calculation information:
      Number of atoms:                  23
      Number of AO shells:              96
      Number of primitives:            268
      Number of atomic orbitals:       205
      Number of basis functions:       196

      Integral cutoff                 1.00e-12
      Number of threads:                 1

	Batch   1 pq = [       0,    9405] index = [             0,44231715] size =     44231715
	Batch   2 pq = [    9405,   13301] index = [      44231715,88464951] size =     44233236
	Batch   3 pq = [   13301,   16290] index = [      88464951,132690195] size =     44225244
	Batch   4 pq = [   16290,   18810] index = [     132690195,176917455] size =     44227260
	Batch   5 pq = [   18810,   19306] index = [     176917455,186370471] size =      9453016
  Task number: 17
  Buffer size: 11059200
  Buffer per thread: 2
  We computed 9957863 shell quartets total.
  Whereas there are 10841496 unique shell quartets.

  ==> DiskJK: Disk-Based J/K Matrices <==

    J tasked:                  Yes
    K tasked:                  Yes
    wK tasked:                  No
    Memory [MiB]:              375
    Schwarz Cutoff:          1E-12

    OpenMP threads:              1

  Minimum eigenvalue in the overlap matrix is 2.8876916287E-04.
  Using Symmetric Orthogonalization.

  SCF Guess: Superposition of Atomic Densities via on-the-fly atomic UHF.

  ==> Iterations <==

                        Total Energy        Delta E     RMS |[F,P]|

   @RHF iter SAD:  -348.03942272966356   -3.48039e+02   0.00000e+00
   @RHF iter   1:  -348.75940451463919   -7.19982e-01   2.96021e-03 DIIS
   @RHF iter   2:  -348.95704325390426   -1.97639e-01   1.25546e-03 DIIS
   @RHF iter   3:  -348.98962146135744   -3.25782e-02   2.62369e-04 DIIS
   @RHF iter   4:  -348.99215027868809   -2.52882e-03   5.34030e-05 DIIS
   @RHF iter   5:  -348.99222637200927   -7.60933e-05   1.72339e-05 DIIS
   @RHF iter   6:  -348.99223374183879   -7.36983e-06   4.85807e-06 DIIS
   @RHF iter   7:  -348.99223441577533   -6.73937e-07   1.35327e-06 DIIS
   @RHF iter   8:  -348.99223448238280   -6.66075e-08   3.83775e-07 DIIS
   @RHF iter   9:  -348.99223449525056   -1.28678e-08   1.89879e-07 DIIS
   @RHF iter  10:  -348.99223449873176   -3.48120e-09   8.43297e-08 DIIS
   @RHF iter  11:  -348.99223449969418   -9.62416e-10   2.75840e-08 DIIS
   @RHF iter  12:  -348.99223449975989   -6.57110e-11   1.18278e-08 DIIS
   @RHF iter  13:  -348.99223449976870   -8.81073e-12   4.09622e-09 DIIS
   @RHF iter  14:  -348.99223449976938   -6.82121e-13   1.09158e-09 DIIS
   @RHF iter  15:  -348.99223449977262   -3.24007e-12   5.09468e-10 DIIS
   @RHF iter  16:  -348.99223449977023    2.38742e-12   2.23603e-10 DIIS
   @RHF iter  17:  -348.99223449977205   -1.81899e-12   8.12056e-11 DIIS
  Energy and wave function converged.

  ==> Post-Iterations <==

    Orbital Energies [Eh]
    ---------------------

    Doubly Occupied:

       1A    -11.237626     2A    -11.232058     3A    -11.231782
       4A    -11.228983     5A    -11.228206     6A    -11.227151
       7A    -11.226404     8A    -11.209069     9A    -11.205316
      10A     -1.160061    11A     -1.050108    12A     -1.014791
      13A     -1.014293    14A     -0.933851    15A     -0.827871
      16A     -0.826647    17A     -0.796446    18A     -0.694236
      19A     -0.635834    20A     -0.627862    21A     -0.592986
      22A     -0.591571    23A     -0.582909    24A     -0.579563
      25A     -0.564698    26A     -0.536223    27A     -0.497613
      28A     -0.491747    29A     -0.484965    30A     -0.481914
      31A     -0.474751    32A     -0.474124    33A     -0.333818
      34A     -0.324435

    Virtual:

      35A      0.137924    36A      0.142258    37A      0.176695
      38A      0.198322    39A      0.203899    40A      0.214218
      41A      0.240862    42A      0.250514    43A      0.255359
      44A      0.259396    45A      0.265946    46A      0.273998
      47A      0.284592    48A      0.289358    49A      0.293774
      50A      0.319593    51A      0.370890    52A      0.378490
      53A      0.409387    54A      0.456771    55A      0.466588
      56A      0.484617    57A      0.490875    58A      0.561306
      59A      0.583484    60A      0.595706    61A      0.606299
      62A      0.613243    63A      0.641452    64A      0.658038
      65A      0.677142    66A      0.684908    67A      0.686609
      68A      0.704269    69A      0.740177    70A      0.742338
      71A      0.745601    72A      0.756131    73A      0.765152
      74A      0.776640    75A      0.787428    76A      0.832559
      77A      0.845544    78A      0.852773    79A      0.861547
      80A      0.869709    81A      0.878035    82A      0.881144
      83A      0.897986    84A      0.900577    85A      0.903600
      86A      0.907369    87A      0.918038    88A      0.926387
      89A      0.931768    90A      0.943136    91A      0.945339
      92A      0.958226    93A      0.990055    94A      1.011346
      95A      1.029403    96A      1.061538    97A      1.128722
      98A      1.132434    99A      1.140237   100A      1.154889
     101A      1.156502   102A      1.166811   103A      1.191077
     104A      1.238281   105A      1.245572   106A      1.256939
     107A      1.260424   108A      1.287410   109A      1.300145
     110A      1.317491   111A      1.329304   112A      1.339303
     113A      1.413570   114A      1.480877   115A      1.494671
     116A      1.509784   117A      1.524524   118A      1.567061
     119A      1.576786   120A      1.605051   121A      1.662165
     122A      1.690524   123A      1.700225   124A      1.706720
     125A      1.737391   126A      1.747332   127A      1.772465
     128A      1.795462   129A      1.815849   130A      1.859204
     131A      1.870695   132A      1.878059   133A      1.899010
     134A      1.901645   135A      1.907893   136A      1.918031
     137A      1.920511   138A      1.929354   139A      1.948046
     140A      1.953478   141A      1.958117   142A      1.963669
     143A      1.969278   144A      1.981853   145A      1.986282
     146A      1.990925   147A      1.997560   148A      2.002230
     149A      2.054729   150A      2.073878   151A      2.086849
     152A      2.104433   153A      2.120388   154A      2.137223
     155A      2.148497   156A      2.163380   157A      2.179329
     158A      2.186830   159A      2.194617   160A      2.266407
     161A      2.283460   162A      2.297608   163A      2.303371
     164A      2.310269   165A      2.317234   166A      2.326372
     167A      2.339529   168A      2.463594   169A      2.470297
     170A      2.486645   171A      2.491404   172A      2.502851
     173A      2.550927   174A      2.569873   175A      2.594286
     176A      2.634735   177A      2.738838   178A      2.765228
     179A      2.770014   180A      2.780208   181A      2.790507
     182A      2.817945   183A      2.820289   184A      2.846001
     185A      2.865296   186A      2.875802   187A      2.888867
     188A      2.960541   189A      2.979681   190A      3.016254
     191A      3.034725   192A      3.046263   193A      3.170188
     194A      3.225176   195A      3.322421   196A      4.009936

    Final Occupation by Irrep:
              A
    DOCC [    34 ]

  @RHF Final Energy:  -348.99223449977205

   => Energetics <=

    Nuclear Repulsion Energy =            414.4557242862204021
    One-Electron Energy =               -1291.6560935744389553
    Two-Electron Energy =                 528.2081347884465004
    Total Energy =                       -348.9922344997720529

Computation Completed

Properties will be evaluated at   0.000000,   0.000000,   0.000000 [a0]

Properties computed using the SCF density matrix

  Nuclear Dipole Moment: [e a0]
     X:    -5.7701      Y:    -4.3154      Z:     6.6712

  Electronic Dipole Moment: [e a0]
     X:     5.9295      Y:     4.2718      Z:    -6.7277

  Dipole Moment: [e a0]
     X:     0.1593      Y:    -0.0436      Z:    -0.0565     Total:     0.1745

  Dipole Moment: [D]
     X:     0.4049      Y:    -0.1108      Z:    -0.1436     Total:     0.4437

*** tstop() called on ds3 at Tue Apr 28 13:24:34 2020
Module time:
	user time   =      72.22 seconds =       1.20 minutes
	system time =      28.68 seconds =       0.48 minutes
	total time  =        126 seconds =       2.10 minutes
Total time:
	user time   =      72.22 seconds =       1.20 minutes
	system time =      28.68 seconds =       0.48 minutes
	total time  =        126 seconds =       2.10 minutes
                                     G D M A

                                 by Anthony Stone

                           version 2.2.06, 22 June 2011

               Distributed Multipoles from Gaussian wavefunctions

Starting at 13:24:34 on 28 Apr 2020

Using SCF density matrix from file ./SSI/SSI-126ILE-139PHE-1-dimer.test.15967.fchk

                         Distributed Multipole Analysis

Standard DMA

Positions and radii in angstrom
Multipole moments in atomic units, ea_0^k for rank k

C          x = -2.874896  y = -0.610155  z =  1.283705 angstrom
           Maximum rank =  0   Radius =  0.650 angstrom
                   Q00  =  -0.225912

C          x = -2.321896  y = -0.720155  z =  2.685705 angstrom
           Maximum rank =  0   Radius =  0.650 angstrom
                   Q00  =  -0.231626

H          x = -2.598896  y = -1.484155  z =  0.694705 angstrom
           Maximum rank =  0   Radius =  0.325 angstrom
                   Q00  =   0.076313

H          x = -3.961896  y = -0.546155  z =  1.328705 angstrom
           Maximum rank =  0   Radius =  0.325 angstrom
                   Q00  =   0.068739

H          x = -2.490896  y =  0.288845  z =  0.802705 angstrom
           Maximum rank =  0   Radius =  0.325 angstrom
                   Q00  =   0.085841

H          x = -2.765896  y = -1.586155  z =  3.175705 angstrom
           Maximum rank =  0   Radius =  0.325 angstrom
                   Q00  =   0.072200

H          x = -2.638896  y =  0.172845  z =  3.225705 angstrom
           Maximum rank =  0   Radius =  0.325 angstrom
                   Q00  =   0.070006

H          x = -1.224606  y = -0.791245  z =  2.715866 angstrom
           Maximum rank =  0   Radius =  0.325 angstrom
                   Q00  =   0.082967

C          x =  2.643104  y = -1.410155  z = -0.393295 angstrom
           Maximum rank =  0   Radius =  0.650 angstrom
                   Q00  =  -0.197744

C          x = -0.494896  y =  0.312845  z = -1.610295 angstrom
           Maximum rank =  0   Radius =  0.650 angstrom
                   Q00  =  -0.043588

C          x = -0.490896  y =  1.456845  z = -0.857295 angstrom
           Maximum rank =  0   Radius =  0.650 angstrom
                   Q00  =  -0.096136

C          x =  0.510104  y = -0.634155  z = -1.450295 angstrom
           Maximum rank =  0   Radius =  0.650 angstrom
                   Q00  =  -0.090664

C          x =  1.518104  y = -0.434155  z = -0.522295 angstrom
           Maximum rank =  0   Radius =  0.650 angstrom
                   Q00  =  -0.104328

C          x =  0.517104  y =  1.682845  z =  0.051705 angstrom
           Maximum rank =  0   Radius =  0.650 angstrom
                   Q00  =  -0.066191

C          x =  1.511104  y =  0.742845  z =  0.214705 angstrom
           Maximum rank =  0   Radius =  0.650 angstrom
                   Q00  =   0.010352

H          x = -1.281896  y =  0.144845  z = -2.334295 angstrom
           Maximum rank =  0   Radius =  0.325 angstrom
                   Q00  =   0.062108

H          x = -1.279896  y =  2.187845  z = -0.981295 angstrom
           Maximum rank =  0   Radius =  0.325 angstrom
                   Q00  =   0.056890

H          x =  0.513104  y = -1.522155  z = -2.063295 angstrom
           Maximum rank =  0   Radius =  0.325 angstrom
                   Q00  =   0.055006

H          x =  0.521104  y =  2.587845  z =  0.646705 angstrom
           Maximum rank =  0   Radius =  0.325 angstrom
                   Q00  =   0.062241

H          x =  2.302104  y = -2.408155  z = -0.666295 angstrom
           Maximum rank =  0   Radius =  0.325 angstrom
                   Q00  =   0.099182

H          x =  2.951104  y = -1.448155  z =  0.652705 angstrom
           Maximum rank =  0   Radius =  0.325 angstrom
                   Q00  =   0.097229

H          x =  2.294104  y =  0.924845  z =  0.930705 angstrom
           Maximum rank =  0   Radius =  0.325 angstrom
                   Q00  =   0.051688

H          x =  3.506342  y = -1.124085  z = -1.012153 angstrom
           Maximum rank =  0   Radius =  0.325 angstrom
                   Q00  =   0.105428

Total multipoles referred to origin at
           x =   0.000000,  y =    0.000000,  z =    0.000000 angstrom
                   Q00  =  -0.000000

Finished at 13:24:34 on 28 Apr 2020

  DMA results are available in the Python driver through the
	  variable('DMA DISTRIBUTED MULTIPOLES')
  and
	  variable('DMA TOTAL MULTIPOLES')
  commands.

    Psi4 stopped on: Tuesday, 28 April 2020 01:24PM
    Psi4 wall time for execution: 0:02:06.01

*** Psi4 exiting successfully. Buy a developer a beer!
