                               Psi4 1.3.2 release

  ==> Input File <==

--------------------------------------------------------------------------
import numpy as np
set {scf_type pk
basis cc-pvdz
d_convergence 10
gdma_switch   0
gdma_limit    0
gdma_origin   [ 0.0,  0.0,  0.0 ]
}
molecule test {
    units Angstrom
    0 1
    --
    0 1
    C                3.831081911429434     0.953108620709983     2.676936997516146
    C                4.071081911429435     0.570108620709983     1.245936997516146
    O                4.299081911429434     1.405108620709983     0.372936997516146
    N                3.926081911429435    -0.715891379290017     0.973936997516146
    H                4.538081911429434     0.426108620709983     3.316936997516146
    H                2.836081911429435     0.595108620709983     2.948936997516146
    H                4.069081911429435    -1.021891379290017     0.022936997516146
    H                3.716081911429435    -1.379891379290017     1.705936997516146
    H                3.855871911429435     2.035318620709983     2.872376997516146
    C               -4.348918088570565     0.087108620709983    -2.015063002483854
    C               -1.473918088570565    -0.633891379290017     0.213936997516146
    C               -1.999918088570565    -0.073891379290017    -0.975063002483854
    C               -3.399918088570565    -0.343891379290017    -0.990063002483854
    C               -3.678918088570565    -1.038891379290017     0.130936997516146
    C                0.709081911429435     0.145108620709983    -0.330063002483854
    C               -0.122918088570565    -0.541891379290017     0.536936997516146
    C                0.221081911429435     0.703108620709983    -1.514063002483854
    C               -1.131918088570566     0.601108620709983    -1.839063002483854
    N               -2.523918088570565    -1.225891379290017     0.864936997516146
    H                1.757081911429434     0.242108620709983    -0.103063002483854
    H                0.259081911429435    -0.979891379290017     1.447936997516146
    H                0.897081911429435     1.222108620709983    -2.181063002483854
    H               -1.505918088570565     1.029108620709983    -2.757063002483854
    H               -2.480918088570565    -1.718891379290017     1.749936997516146
    H               -4.666918088570566    -1.388891379290017     0.415936997516146
    H               -5.164918088570565    -0.636891379290017    -2.063063002483854
    H               -3.844918088570565     0.084108620709983    -2.982063002483854
    H               -4.769768088570565     1.085558620709983    -1.825393002483854

}
e, wfn = energy('scf', return_wfn=True)
gdma(wfn)
dmavals = variable('DMA DISTRIBUTED MULTIPOLES')
charges = np.array(dmavals)
print(charges)
np.save('SSI-012GLN-044TRP-1-dimer.npy', np.array(charges))--------------------------------------------------------------------------

*** tstart() called on ds3
*** at Sun Apr 26 17:37:30 2020

   => Loading Basis Set <=

    Name: CC-PVDZ
    Role: ORBITAL
    Keyword: BASIS
    atoms 1-2, 10-18 entry C          line   138 file /theoryfs2/ds/metcalf/miniconda2/envs/tf2gpu/share/psi4/basis/cc-pvdz.gbs
    atoms 3          entry O          line   198 file /theoryfs2/ds/metcalf/miniconda2/envs/tf2gpu/share/psi4/basis/cc-pvdz.gbs
    atoms 4, 19      entry N          line   168 file /theoryfs2/ds/metcalf/miniconda2/envs/tf2gpu/share/psi4/basis/cc-pvdz.gbs
    atoms 5-9, 20-28 entry H          line    22 file /theoryfs2/ds/metcalf/miniconda2/envs/tf2gpu/share/psi4/basis/cc-pvdz.gbs

         ---------------------------------------------------------
                                   SCF
               by Justin Turney, Rob Parrish, Andy Simmonett
                          and Daniel G. A. Smith
                              RHF Reference
                        1 Threads,    500 MiB Core
         ---------------------------------------------------------

  ==> Geometry <==

    Molecular point group: c1
    Full point group: C1

    Geometry (in Angstrom), charge = 0, multiplicity = 1:

       Center              X                  Y                   Z               Mass
    ------------   -----------------  -----------------  -----------------  -----------------
         C            3.831081911429     0.953108620710     2.676936997516    12.000000000000
         C            4.071081911429     0.570108620710     1.245936997516    12.000000000000
         O            4.299081911429     1.405108620710     0.372936997516    15.994914619570
         N            3.926081911429    -0.715891379290     0.973936997516    14.003074004430
         H            4.538081911429     0.426108620710     3.316936997516     1.007825032230
         H            2.836081911429     0.595108620710     2.948936997516     1.007825032230
         H            4.069081911429    -1.021891379290     0.022936997516     1.007825032230
         H            3.716081911429    -1.379891379290     1.705936997516     1.007825032230
         H            3.855871911429     2.035318620710     2.872376997516     1.007825032230
         C           -4.348918088571     0.087108620710    -2.015063002484    12.000000000000
         C           -1.473918088571    -0.633891379290     0.213936997516    12.000000000000
         C           -1.999918088571    -0.073891379290    -0.975063002484    12.000000000000
         C           -3.399918088571    -0.343891379290    -0.990063002484    12.000000000000
         C           -3.678918088571    -1.038891379290     0.130936997516    12.000000000000
         C            0.709081911429     0.145108620710    -0.330063002484    12.000000000000
         C           -0.122918088571    -0.541891379290     0.536936997516    12.000000000000
         C            0.221081911429     0.703108620710    -1.514063002484    12.000000000000
         C           -1.131918088571     0.601108620710    -1.839063002484    12.000000000000
         N           -2.523918088571    -1.225891379290     0.864936997516    14.003074004430
         H            1.757081911429     0.242108620710    -0.103063002484     1.007825032230
         H            0.259081911429    -0.979891379290     1.447936997516     1.007825032230
         H            0.897081911429     1.222108620710    -2.181063002484     1.007825032230
         H           -1.505918088571     1.029108620710    -2.757063002484     1.007825032230
         H           -2.480918088571    -1.718891379290     1.749936997516     1.007825032230
         H           -4.666918088571    -1.388891379290     0.415936997516     1.007825032230
         H           -5.164918088571    -0.636891379290    -2.063063002484     1.007825032230
         H           -3.844918088571     0.084108620710    -2.982063002484     1.007825032230
         H           -4.769768088571     1.085558620710    -1.825393002484     1.007825032230

  Running in c1 symmetry.

  Rotational constants: A =      0.05754  B =      0.00844  C =      0.00769 [cm^-1]
  Rotational constants: A =   1724.96081  B =    252.98920  C =    230.60598 [MHz]
  Nuclear repulsion =  807.136359970612602

  Charge       = 0
  Multiplicity = 1
  Electrons    = 102
  Nalpha       = 51
  Nbeta        = 51

  ==> Algorithm <==

  SCF Algorithm Type is PK.
  DIIS enabled.
  MOM disabled.
  Fractional occupation disabled.
  Guess Type is SAD.
  Energy threshold   = 1.00e-06
  Density threshold  = 1.00e-10
  Integral threshold = 0.00e+00

  ==> Primary Basis <==

  Basis Set: CC-PVDZ
    Blend: CC-PVDZ
    Number of shells: 126
    Number of basis function: 266
    Number of Cartesian functions: 280
    Spherical Harmonics?: true
    Max angular momentum: 2

  ==> Pre-Iterations <==

   -------------------------------------------------------
    Irrep   Nso     Nmo     Nalpha   Nbeta   Ndocc  Nsocc
   -------------------------------------------------------
     A        266     266       0       0       0       0
   -------------------------------------------------------
    Total     266     266      51      51      51       0
   -------------------------------------------------------

  ==> Integral Setup <==

  Using integral reordering PK algorithm.
  Sizing the integral batches needed.
  Building batch lookup table.
   Calculation information:
      Number of atoms:                  28
      Number of AO shells:             126
      Number of primitives:            378
      Number of atomic orbitals:       280
      Number of basis functions:       266

      Integral cutoff                 1.00e-12
      Number of threads:                 1

	Batch   1 pq = [       0,    9405] index = [             0,44231715] size =     44231715
	Batch   2 pq = [    9405,   13301] index = [      44231715,88464951] size =     44233236
	Batch   3 pq = [   13301,   16290] index = [      88464951,132690195] size =     44225244
	Batch   4 pq = [   16290,   18810] index = [     132690195,176917455] size =     44227260
	Batch   5 pq = [   18810,   21030] index = [     176917455,221140965] size =     44223510
	Batch   6 pq = [   21030,   23037] index = [     221140965,265363203] size =     44222238
	Batch   7 pq = [   23037,   24883] index = [     265363203,309594286] size =     44231083
	Batch   8 pq = [   24883,   26601] index = [     309594286,353819901] size =     44225615
	Batch   9 pq = [   26601,   28214] index = [     353819901,398029005] size =     44209104
	Batch  10 pq = [   28214,   29740] index = [     398029005,442248670] size =     44219665
	Batch  11 pq = [   29740,   31191] index = [     442248670,486454836] size =     44206166
	Batch  12 pq = [   31191,   32578] index = [     486454836,530679331] size =     44224495
	Batch  13 pq = [   32578,   33908] index = [     530679331,574893186] size =     44213855
	Batch  14 pq = [   33908,   35188] index = [     574893186,619115266] size =     44222080
	Batch  15 pq = [   35188,   35511] index = [     619115266,630533316] size =     11418050
  Task number: 58
  Buffer size: 11059200
  Buffer per thread: 2
  We computed 26280264 shell quartets total.
  Whereas there are 32012001 unique shell quartets.

  ==> DiskJK: Disk-Based J/K Matrices <==

    J tasked:                  Yes
    K tasked:                  Yes
    wK tasked:                  No
    Memory [MiB]:              375
    Schwarz Cutoff:          1E-12

    OpenMP threads:              1

  Minimum eigenvalue in the overlap matrix is 2.2912795659E-04.
  Using Symmetric Orthogonalization.

  SCF Guess: Superposition of Atomic Densities via on-the-fly atomic UHF.

  ==> Iterations <==

                        Total Energy        Delta E     RMS |[F,P]|

   @RHF iter SAD:  -607.76937701718066   -6.07769e+02   0.00000e+00
   @RHF iter   1:  -608.16862515643027   -3.99248e-01   2.88306e-03 DIIS
   @RHF iter   2:  -608.44678167699556   -2.78157e-01   1.56760e-03 DIIS
   @RHF iter   3:  -608.51906604781277   -7.22844e-02   3.70159e-04 DIIS
   @RHF iter   4:  -608.52478279547017   -5.71675e-03   1.42948e-04 DIIS
   @RHF iter   5:  -608.52567421266326   -8.91417e-04   2.35344e-05 DIIS
   @RHF iter   6:  -608.52572778058857   -5.35679e-05   1.20017e-05 DIIS
   @RHF iter   7:  -608.52574009516036   -1.23146e-05   5.00686e-06 DIIS
   @RHF iter   8:  -608.52574313238028   -3.03722e-06   1.84625e-06 DIIS
   @RHF iter   9:  -608.52574359153425   -4.59154e-07   8.48632e-07 DIIS
   @RHF iter  10:  -608.52574369239153   -1.00857e-07   3.67260e-07 DIIS
   @RHF iter  11:  -608.52574371830360   -2.59121e-08   1.55813e-07 DIIS
   @RHF iter  12:  -608.52574372248591   -4.18231e-09   7.84660e-08 DIIS
   @RHF iter  13:  -608.52574372329809   -8.12179e-10   2.43510e-08 DIIS
   @RHF iter  14:  -608.52574372339234   -9.42464e-11   8.51589e-09 DIIS
   @RHF iter  15:  -608.52574372340200   -9.66338e-12   2.90460e-09 DIIS
   @RHF iter  16:  -608.52574372340291   -9.09495e-13   1.09858e-09 DIIS
   @RHF iter  17:  -608.52574372340507   -2.16005e-12   5.06609e-10 DIIS
   @RHF iter  18:  -608.52574372340405    1.02318e-12   2.14655e-10 DIIS
   @RHF iter  19:  -608.52574372339848    5.57066e-12   1.09527e-10 DIIS
   @RHF iter  20:  -608.52574372340428   -5.79803e-12   4.79797e-11 DIIS
  Energy and wave function converged.

  ==> Post-Iterations <==

    Orbital Energies [Eh]
    ---------------------

    Doubly Occupied:

       1A    -20.505912     2A    -15.599257     3A    -15.590392
       4A    -11.347947     5A    -11.262095     6A    -11.259954
       7A    -11.242180     8A    -11.228033     9A    -11.227622
      10A    -11.222919    11A    -11.221800    12A    -11.215972
      13A    -11.215406    14A    -11.210875    15A     -1.369702
      16A     -1.293242    17A     -1.221138    18A     -1.125706
      19A     -1.078705    20A     -1.004732    21A     -0.994516
      22A     -0.987031    23A     -0.931836    24A     -0.837580
      25A     -0.802539    26A     -0.801970    27A     -0.749922
      28A     -0.730792    29A     -0.717462    30A     -0.661890
      31A     -0.656403    32A     -0.641111    33A     -0.616901
      34A     -0.600801    35A     -0.592723    36A     -0.588185
      37A     -0.573661    38A     -0.567665    39A     -0.558850
      40A     -0.551085    41A     -0.541134    42A     -0.528872
      43A     -0.513606    44A     -0.492260    45A     -0.468358
      46A     -0.458561    47A     -0.411887    48A     -0.406320
      49A     -0.371269    50A     -0.292422    51A     -0.274042

    Virtual:

      52A      0.127548    53A      0.148334    54A      0.171062
      55A      0.182310    56A      0.192573    57A      0.194014
      58A      0.212638    59A      0.220212    60A      0.224510
      61A      0.227532    62A      0.239729    63A      0.245466
      64A      0.261077    65A      0.267269    66A      0.293727
      67A      0.303393    68A      0.305447    69A      0.327046
      70A      0.376538    71A      0.383318    72A      0.388647
      73A      0.410653    74A      0.421869    75A      0.448416
      76A      0.471497    77A      0.480322    78A      0.492295
      79A      0.510600    80A      0.512723    81A      0.568654
      82A      0.598827    83A      0.613993    84A      0.623984
      85A      0.637875    86A      0.640908    87A      0.650433
      88A      0.667618    89A      0.690133    90A      0.694646
      91A      0.704450    92A      0.721149    93A      0.725502
      94A      0.728179    95A      0.743160    96A      0.744330
      97A      0.747337    98A      0.750652    99A      0.754573
     100A      0.764174   101A      0.771739   102A      0.787471
     103A      0.797314   104A      0.798249   105A      0.837318
     106A      0.839606   107A      0.846467   108A      0.857364
     109A      0.868758   110A      0.877926   111A      0.879553
     112A      0.887813   113A      0.898665   114A      0.910393
     115A      0.915368   116A      0.923030   117A      0.935945
     118A      0.943302   119A      0.951247   120A      0.959019
     121A      0.972876   122A      0.982711   123A      0.994541
     124A      1.018041   125A      1.035349   126A      1.051117
     127A      1.056987   128A      1.071684   129A      1.076287
     130A      1.100064   131A      1.115558   132A      1.135946
     133A      1.144771   134A      1.154894   135A      1.163310
     136A      1.177444   137A      1.220147   138A      1.222432
     139A      1.229738   140A      1.239319   141A      1.251563
     142A      1.277308   143A      1.287589   144A      1.293566
     145A      1.305537   146A      1.329199   147A      1.336287
     148A      1.344305   149A      1.350179   150A      1.364916
     151A      1.365893   152A      1.387727   153A      1.395466
     154A      1.424724   155A      1.449357   156A      1.470901
     157A      1.498891   158A      1.506944   159A      1.533680
     160A      1.560460   161A      1.591416   162A      1.611774
     163A      1.631038   164A      1.641614   165A      1.656240
     166A      1.666076   167A      1.674247   168A      1.692968
     169A      1.701190   170A      1.726903   171A      1.741158
     172A      1.766404   173A      1.771371   174A      1.786357
     175A      1.789795   176A      1.817814   177A      1.824838
     178A      1.838164   179A      1.864155   180A      1.876498
     181A      1.885336   182A      1.895433   183A      1.905560
     184A      1.908288   185A      1.915292   186A      1.922940
     187A      1.929005   188A      1.935140   189A      1.939063
     190A      1.961430   191A      1.972736   192A      1.989659
     193A      2.002373   194A      2.012291   195A      2.015812
     196A      2.020328   197A      2.050258   198A      2.056461
     199A      2.079187   200A      2.082679   201A      2.092589
     202A      2.099822   203A      2.108796   204A      2.118343
     205A      2.129501   206A      2.133416   207A      2.152138
     208A      2.178388   209A      2.189310   210A      2.210587
     211A      2.236166   212A      2.248653   213A      2.275849
     214A      2.276610   215A      2.291562   216A      2.312748
     217A      2.319486   218A      2.354052   219A      2.360764
     220A      2.411258   221A      2.422623   222A      2.434597
     223A      2.446713   224A      2.463753   225A      2.494268
     226A      2.510645   227A      2.546464   228A      2.563503
     229A      2.583585   230A      2.600680   231A      2.609237
     232A      2.614592   233A      2.642930   234A      2.668641
     235A      2.691642   236A      2.697535   237A      2.716435
     238A      2.740381   239A      2.771740   240A      2.785004
     241A      2.791748   242A      2.798661   243A      2.833766
     244A      2.843419   245A      2.874165   246A      2.888141
     247A      2.888438   248A      2.921103   249A      2.980907
     250A      2.997739   251A      3.048187   252A      3.053445
     253A      3.088608   254A      3.097592   255A      3.128379
     256A      3.143954   257A      3.219879   258A      3.289595
     259A      3.322444   260A      3.393404   261A      3.507196
     262A      3.554477   263A      3.747883   264A      3.868371
     265A      3.906797   266A      3.963162

    Final Occupation by Irrep:
              A
    DOCC [    51 ]

  @RHF Final Energy:  -608.52574372340428

   => Energetics <=

    Nuclear Repulsion Energy =            807.1363599706126024
    One-Electron Energy =               -2428.5937158836577510
    Two-Electron Energy =                1012.9316121896408731
    Total Energy =                       -608.5257437234042754

Computation Completed

Properties will be evaluated at   0.000000,   0.000000,   0.000000 [a0]

Properties computed using the SCF density matrix

  Nuclear Dipole Moment: [e a0]
     X:    -0.4568      Y:    -0.3690      Z:     2.4050

  Electronic Dipole Moment: [e a0]
     X:    -0.1460      Y:    -1.3121      Z:    -0.9231

  Dipole Moment: [e a0]
     X:    -0.6028      Y:    -1.6811      Z:     1.4820     Total:     2.3207

  Dipole Moment: [D]
     X:    -1.5322      Y:    -4.2729      Z:     3.7668     Total:     5.8987

*** tstop() called on ds3 at Sun Apr 26 17:46:10 2020
Module time:
	user time   =     235.33 seconds =       3.92 minutes
	system time =     108.70 seconds =       1.81 minutes
	total time  =        520 seconds =       8.67 minutes
Total time:
	user time   =     235.33 seconds =       3.92 minutes
	system time =     108.70 seconds =       1.81 minutes
	total time  =        520 seconds =       8.67 minutes
                                     G D M A

                                 by Anthony Stone

                           version 2.2.06, 22 June 2011

               Distributed Multipoles from Gaussian wavefunctions

Starting at 17:46:10 on 26 Apr 2020

Using SCF density matrix from file ./SSI/SSI-012GLN-044TRP-1-dimer.test.24786.fchk

                         Distributed Multipole Analysis

Standard DMA

Positions and radii in angstrom
Multipole moments in atomic units, ea_0^k for rank k

C          x =  3.831082  y =  0.953109  z =  2.676937 angstrom
           Maximum rank =  0   Radius =  0.650 angstrom
                   Q00  =  -0.261991

C          x =  4.071082  y =  0.570109  z =  1.245937 angstrom
           Maximum rank =  0   Radius =  0.650 angstrom
                   Q00  =   0.823982

O          x =  4.299082  y =  1.405109  z =  0.372937 angstrom
           Maximum rank =  0   Radius =  0.650 angstrom
                   Q00  =  -0.792355

N          x =  3.926082  y = -0.715891  z =  0.973937 angstrom
           Maximum rank =  0   Radius =  0.650 angstrom
                   Q00  =  -0.532636

H          x =  4.538082  y =  0.426109  z =  3.316937 angstrom
           Maximum rank =  0   Radius =  0.325 angstrom
                   Q00  =   0.105422

H          x =  2.836082  y =  0.595109  z =  2.948937 angstrom
           Maximum rank =  0   Radius =  0.325 angstrom
                   Q00  =   0.097370

H          x =  4.069082  y = -1.021891  z =  0.022937 angstrom
           Maximum rank =  0   Radius =  0.325 angstrom
                   Q00  =   0.225883

H          x =  3.716082  y = -1.379891  z =  1.705937 angstrom
           Maximum rank =  0   Radius =  0.325 angstrom
                   Q00  =   0.206927

H          x =  3.855872  y =  2.035319  z =  2.872377 angstrom
           Maximum rank =  0   Radius =  0.325 angstrom
                   Q00  =   0.133608

C          x = -4.348918  y =  0.087109  z = -2.015063 angstrom
           Maximum rank =  0   Radius =  0.650 angstrom
                   Q00  =  -0.215047

C          x = -1.473918  y = -0.633891  z =  0.213937 angstrom
           Maximum rank =  0   Radius =  0.650 angstrom
                   Q00  =   0.247516

C          x = -1.999918  y = -0.073891  z = -0.975063 angstrom
           Maximum rank =  0   Radius =  0.650 angstrom
                   Q00  =  -0.054136

C          x = -3.399918  y = -0.343891  z = -0.990063 angstrom
           Maximum rank =  0   Radius =  0.650 angstrom
                   Q00  =  -0.101663

C          x = -3.678918  y = -1.038891  z =  0.130937 angstrom
           Maximum rank =  0   Radius =  0.650 angstrom
                   Q00  =   0.062877

C          x =  0.709082  y =  0.145109  z = -0.330063 angstrom
           Maximum rank =  0   Radius =  0.650 angstrom
                   Q00  =   0.002795

C          x = -0.122918  y = -0.541891  z =  0.536937 angstrom
           Maximum rank =  0   Radius =  0.650 angstrom
                   Q00  =  -0.124202

C          x =  0.221082  y =  0.703109  z = -1.514063 angstrom
           Maximum rank =  0   Radius =  0.650 angstrom
                   Q00  =  -0.095260

C          x = -1.131918  y =  0.601109  z = -1.839063 angstrom
           Maximum rank =  0   Radius =  0.650 angstrom
                   Q00  =  -0.106017

N          x = -2.523918  y = -1.225891  z =  0.864937 angstrom
           Maximum rank =  0   Radius =  0.650 angstrom
                   Q00  =  -0.497485

H          x =  1.757082  y =  0.242109  z = -0.103063 angstrom
           Maximum rank =  0   Radius =  0.325 angstrom
                   Q00  =   0.072928

H          x =  0.259082  y = -0.979891  z =  1.447937 angstrom
           Maximum rank =  0   Radius =  0.325 angstrom
                   Q00  =   0.055076

H          x =  0.897082  y =  1.222109  z = -2.181063 angstrom
           Maximum rank =  0   Radius =  0.325 angstrom
                   Q00  =   0.064166

H          x = -1.505918  y =  1.029109  z = -2.757063 angstrom
           Maximum rank =  0   Radius =  0.325 angstrom
                   Q00  =   0.068593

H          x = -2.480918  y = -1.718891  z =  1.749937 angstrom
           Maximum rank =  0   Radius =  0.325 angstrom
                   Q00  =   0.214027

H          x = -4.666918  y = -1.388891  z =  0.415937 angstrom
           Maximum rank =  0   Radius =  0.325 angstrom
                   Q00  =   0.098686

H          x = -5.164918  y = -0.636891  z = -2.063063 angstrom
           Maximum rank =  0   Radius =  0.325 angstrom
                   Q00  =   0.099994

H          x = -3.844918  y =  0.084109  z = -2.982063 angstrom
           Maximum rank =  0   Radius =  0.325 angstrom
                   Q00  =   0.102021

H          x = -4.769768  y =  1.085559  z = -1.825393 angstrom
           Maximum rank =  0   Radius =  0.325 angstrom
                   Q00  =   0.098923

Total multipoles referred to origin at
           x =   0.000000,  y =    0.000000,  z =    0.000000 angstrom
                   Q00  =  -0.000000

Finished at 17:46:10 on 26 Apr 2020

  DMA results are available in the Python driver through the
	  variable('DMA DISTRIBUTED MULTIPOLES')
  and
	  variable('DMA TOTAL MULTIPOLES')
  commands.

    Psi4 stopped on: Sunday, 26 April 2020 05:46PM
    Psi4 wall time for execution: 0:08:40.24

*** Psi4 exiting successfully. Buy a developer a beer!
