                               Psi4 1.3.2 release

  ==> Input File <==

--------------------------------------------------------------------------
import numpy as np
set {scf_type pk
basis cc-pvdz
d_convergence 10
gdma_switch   0
gdma_limit    0
gdma_origin   [ 0.0,  0.0,  0.0 ]
}
molecule test {
    units Angstrom
    0 1
    --
    0 1
    C                1.575369986722162     0.022340562521970    -1.048773029232902
    C                1.327369986722162    -1.205659437478030    -1.925773029232903
    H                2.442369986722162     0.579340562521970    -1.403773029232902
    H                0.703369986722162     0.676340562521970    -1.085773029232902
    H                1.756369986722162    -0.285659437478030    -0.020773029232902
    H                0.431369986722162    -1.725659437478030    -1.578773029232903
    H                2.195618986722162    -1.878259437478030    -1.864493029232902
    H                1.166571986722162    -0.879039437478030    -2.963783029232902
    C               -1.009630013277838     1.181340562521970     1.259226970767098
    C               -1.895630013277838     0.002340562521970     1.714226970767097
    H               -0.974630013277838     1.964340562521970     2.018226970767097
    H                0.005369986722162     0.815340562521970     1.130226970767098
    H               -1.369630013277838     1.597340562521970     0.315226970767098
    H               -1.517630013277838    -0.372659437478030     2.662226970767098
    H               -2.944337013277838     0.312110562521970     1.833636970767097
    H               -1.864808013277838    -0.807849437478030     0.970826970767097

}
e, wfn = energy('scf', return_wfn=True)
gdma(wfn)
dmavals = variable('DMA DISTRIBUTED MULTIPOLES')
charges = np.array(dmavals)
print(charges)
np.save('SSI-028ALA-038VAL-1-dimer.npy', np.array(charges))--------------------------------------------------------------------------

*** tstart() called on ds3
*** at Tue Apr 28 11:38:36 2020

   => Loading Basis Set <=

    Name: CC-PVDZ
    Role: ORBITAL
    Keyword: BASIS
    atoms 1-2, 9-10  entry C          line   138 file /theoryfs2/ds/metcalf/miniconda2/envs/tf2gpu/share/psi4/basis/cc-pvdz.gbs
    atoms 3-8, 11-16 entry H          line    22 file /theoryfs2/ds/metcalf/miniconda2/envs/tf2gpu/share/psi4/basis/cc-pvdz.gbs

         ---------------------------------------------------------
                                   SCF
               by Justin Turney, Rob Parrish, Andy Simmonett
                          and Daniel G. A. Smith
                              RHF Reference
                        1 Threads,    500 MiB Core
         ---------------------------------------------------------

  ==> Geometry <==

    Molecular point group: c1
    Full point group: C1

    Geometry (in Angstrom), charge = 0, multiplicity = 1:

       Center              X                  Y                   Z               Mass
    ------------   -----------------  -----------------  -----------------  -----------------
         C            1.575369986722     0.022340562522    -1.048773029233    12.000000000000
         C            1.327369986722    -1.205659437478    -1.925773029233    12.000000000000
         H            2.442369986722     0.579340562522    -1.403773029233     1.007825032230
         H            0.703369986722     0.676340562522    -1.085773029233     1.007825032230
         H            1.756369986722    -0.285659437478    -0.020773029233     1.007825032230
         H            0.431369986722    -1.725659437478    -1.578773029233     1.007825032230
         H            2.195618986722    -1.878259437478    -1.864493029233     1.007825032230
         H            1.166571986722    -0.879039437478    -2.963783029233     1.007825032230
         C           -1.009630013278     1.181340562522     1.259226970767    12.000000000000
         C           -1.895630013278     0.002340562522     1.714226970767    12.000000000000
         H           -0.974630013278     1.964340562522     2.018226970767     1.007825032230
         H            0.005369986722     0.815340562522     1.130226970767     1.007825032230
         H           -1.369630013278     1.597340562522     0.315226970767     1.007825032230
         H           -1.517630013278    -0.372659437478     2.662226970767     1.007825032230
         H           -2.944337013278     0.312110562522     1.833636970767     1.007825032230
         H           -1.864808013278    -0.807849437478     0.970826970767     1.007825032230

  Running in c1 symmetry.

  Rotational constants: A =      0.39207  B =      0.05584  C =      0.05116 [cm^-1]
  Rotational constants: A =  11754.10542  B =   1674.12521  C =   1533.88349 [MHz]
  Nuclear repulsion =  123.560296370496800

  Charge       = 0
  Multiplicity = 1
  Electrons    = 36
  Nalpha       = 18
  Nbeta        = 18

  ==> Algorithm <==

  SCF Algorithm Type is PK.
  DIIS enabled.
  MOM disabled.
  Fractional occupation disabled.
  Guess Type is SAD.
  Energy threshold   = 1.00e-06
  Density threshold  = 1.00e-10
  Integral threshold = 0.00e+00

  ==> Primary Basis <==

  Basis Set: CC-PVDZ
    Blend: CC-PVDZ
    Number of shells: 60
    Number of basis function: 116
    Number of Cartesian functions: 120
    Spherical Harmonics?: true
    Max angular momentum: 2

  ==> Pre-Iterations <==

   -------------------------------------------------------
    Irrep   Nso     Nmo     Nalpha   Nbeta   Ndocc  Nsocc
   -------------------------------------------------------
     A        116     116       0       0       0       0
   -------------------------------------------------------
    Total     116     116      18      18      18       0
   -------------------------------------------------------

  ==> Integral Setup <==

  Using integral reordering PK algorithm.
  Sizing the integral batches needed.
  Building batch lookup table.
   Calculation information:
      Number of atoms:                  16
      Number of AO shells:              60
      Number of primitives:            148
      Number of atomic orbitals:       120
      Number of basis functions:       116

      Integral cutoff                 1.00e-12
      Number of threads:                 1

	Batch   1 pq = [       0,    6786] index = [             0,23028291] size =     23028291
  Task number: 3
  Buffer size: 11059200
  Buffer per thread: 2
  We computed 1510795 shell quartets total.
  Whereas there are 1675365 unique shell quartets.

  ==> DiskJK: Disk-Based J/K Matrices <==

    J tasked:                  Yes
    K tasked:                  Yes
    wK tasked:                  No
    Memory [MiB]:              375
    Schwarz Cutoff:          1E-12

    OpenMP threads:              1

  Minimum eigenvalue in the overlap matrix is 7.3719874775E-03.
  Using Symmetric Orthogonalization.

  SCF Guess: Superposition of Atomic Densities via on-the-fly atomic UHF.

  ==> Iterations <==

                        Total Energy        Delta E     RMS |[F,P]|

   @RHF iter SAD:  -157.33706397572507   -1.57337e+02   0.00000e+00
   @RHF iter   1:  -158.30830017883150   -9.71236e-01   4.18462e-03 DIIS
   @RHF iter   2:  -158.44054816092341   -1.32248e-01   1.77817e-03 DIIS
   @RHF iter   3:  -158.46354884103371   -2.30007e-02   3.49813e-04 DIIS
   @RHF iter   4:  -158.46538168602740   -1.83284e-03   3.93757e-05 DIIS
   @RHF iter   5:  -158.46540600153349   -2.43155e-05   7.02772e-06 DIIS
   @RHF iter   6:  -158.46540670309935   -7.01566e-07   1.39016e-06 DIIS
   @RHF iter   7:  -158.46540672147006   -1.83707e-08   3.37216e-07 DIIS
   @RHF iter   8:  -158.46540672263879   -1.16873e-09   4.72185e-08 DIIS
   @RHF iter   9:  -158.46540672267906   -4.02736e-11   1.00670e-08 DIIS
   @RHF iter  10:  -158.46540672268162   -2.55795e-12   2.98252e-09 DIIS
   @RHF iter  11:  -158.46540672268137    2.55795e-13   7.68459e-10 DIIS
   @RHF iter  12:  -158.46540672268111    2.55795e-13   1.64577e-10 DIIS
   @RHF iter  13:  -158.46540672268137   -2.55795e-13   2.58041e-11 DIIS
  Energy and wave function converged.

  ==> Post-Iterations <==

    Orbital Energies [Eh]
    ---------------------

    Doubly Occupied:

       1A    -11.220115     2A    -11.219959     3A    -11.216631
       4A    -11.216008     5A     -1.019133     6A     -1.013466
       7A     -0.840842     8A     -0.833789     9A     -0.602840
      10A     -0.601158    11A     -0.596891    12A     -0.588085
      13A     -0.502504    14A     -0.496549    15A     -0.491715
      16A     -0.491017    17A     -0.485193    18A     -0.474225

    Virtual:

      19A      0.166091    20A      0.204757    21A      0.222594
      22A      0.230313    23A      0.242851    24A      0.257641
      25A      0.262530    26A      0.271426    27A      0.276152
      28A      0.307962    29A      0.323129    30A      0.345883
      31A      0.395962    32A      0.403108    33A      0.573135
      34A      0.598007    35A      0.598623    36A      0.604732
      37A      0.623203    38A      0.630769    39A      0.663344
      40A      0.681181    41A      0.687220    42A      0.823872
      43A      0.835748    44A      0.856628    45A      0.878269
      46A      0.880992    47A      0.893219    48A      0.895283
      49A      0.902376    50A      0.908334    51A      0.910811
      52A      0.921707    53A      0.947577    54A      0.951151
      55A      0.978404    56A      0.991544    57A      1.121119
      58A      1.122540    59A      1.143495    60A      1.184573
      61A      1.242290    62A      1.271012    63A      1.468184
      64A      1.468636    65A      1.479113    66A      1.482701
      67A      1.536663    68A      1.593887    69A      1.677546
      70A      1.685695    71A      1.699218    72A      1.708158
      73A      1.853339    74A      1.863993    75A      1.871182
      76A      1.890810    77A      1.893628    78A      1.924345
      79A      1.937961    80A      1.941587    81A      1.941820
      82A      1.947197    83A      1.951990    84A      1.953492
      85A      1.958270    86A      1.970125    87A      1.983691
      88A      1.989559    89A      2.092771    90A      2.104038
      91A      2.115240    92A      2.119218    93A      2.289511
      94A      2.299853    95A      2.312480    96A      2.314959
      97A      2.444983    98A      2.459623    99A      2.462472
     100A      2.488300   101A      2.557854   102A      2.564309
     103A      2.570491   104A      2.578923   105A      2.755587
     106A      2.767441   107A      2.789386   108A      2.794072
     109A      2.841664   110A      2.847204   111A      2.854309
     112A      2.868891   113A      2.929732   114A      2.949532
     115A      2.982166   116A      2.986329

    Final Occupation by Irrep:
              A
    DOCC [    18 ]

  @RHF Final Energy:  -158.46540672268137

   => Energetics <=

    Nuclear Repulsion Energy =            123.5602963704968005
    One-Electron Energy =                -456.2311657064715291
    Two-Electron Energy =                 174.2054626132933492
    Total Energy =                       -158.4654067226813652

Computation Completed

Properties will be evaluated at   0.000000,   0.000000,   0.000000 [a0]

Properties computed using the SCF density matrix

  Nuclear Dipole Moment: [e a0]
     X:     0.0281      Y:    -0.0040      Z:     0.0122

  Electronic Dipole Moment: [e a0]
     X:    -0.0069      Y:     0.0123      Z:    -0.0094

  Dipole Moment: [e a0]
     X:     0.0212      Y:     0.0083      Z:     0.0028     Total:     0.0230

  Dipole Moment: [D]
     X:     0.0539      Y:     0.0211      Z:     0.0071     Total:     0.0583

*** tstop() called on ds3 at Tue Apr 28 11:38:47 2020
Module time:
	user time   =       8.32 seconds =       0.14 minutes
	system time =       2.74 seconds =       0.05 minutes
	total time  =         11 seconds =       0.18 minutes
Total time:
	user time   =       8.32 seconds =       0.14 minutes
	system time =       2.74 seconds =       0.05 minutes
	total time  =         11 seconds =       0.18 minutes
                                     G D M A

                                 by Anthony Stone

                           version 2.2.06, 22 June 2011

               Distributed Multipoles from Gaussian wavefunctions

Starting at 11:38:47 on 28 Apr 2020

Using SCF density matrix from file ./SSI/SSI-028ALA-038VAL-1-dimer.test.4710.fchk

                         Distributed Multipole Analysis

Standard DMA

Positions and radii in angstrom
Multipole moments in atomic units, ea_0^k for rank k

C          x =  1.575370  y =  0.022341  z = -1.048773 angstrom
           Maximum rank =  0   Radius =  0.650 angstrom
                   Q00  =  -0.232033

C          x =  1.327370  y = -1.205659  z = -1.925773 angstrom
           Maximum rank =  0   Radius =  0.650 angstrom
                   Q00  =  -0.240092

H          x =  2.442370  y =  0.579341  z = -1.403773 angstrom
           Maximum rank =  0   Radius =  0.325 angstrom
                   Q00  =   0.079383

H          x =  0.703370  y =  0.676341  z = -1.085773 angstrom
           Maximum rank =  0   Radius =  0.325 angstrom
                   Q00  =   0.082170

H          x =  1.756370  y = -0.285659  z = -0.020773 angstrom
           Maximum rank =  0   Radius =  0.325 angstrom
                   Q00  =   0.076327

H          x =  0.431370  y = -1.725659  z = -1.578773 angstrom
           Maximum rank =  0   Radius =  0.325 angstrom
                   Q00  =   0.078687

H          x =  2.195619  y = -1.878259  z = -1.864493 angstrom
           Maximum rank =  0   Radius =  0.325 angstrom
                   Q00  =   0.078635

H          x =  1.166572  y = -0.879039  z = -2.963783 angstrom
           Maximum rank =  0   Radius =  0.325 angstrom
                   Q00  =   0.078066

C          x = -1.009630  y =  1.181341  z =  1.259227 angstrom
           Maximum rank =  0   Radius =  0.650 angstrom
                   Q00  =  -0.252257

C          x = -1.895630  y =  0.002341  z =  1.714227 angstrom
           Maximum rank =  0   Radius =  0.650 angstrom
                   Q00  =  -0.232930

H          x = -0.974630  y =  1.964341  z =  2.018227 angstrom
           Maximum rank =  0   Radius =  0.325 angstrom
                   Q00  =   0.080407

H          x =  0.005370  y =  0.815341  z =  1.130227 angstrom
           Maximum rank =  0   Radius =  0.325 angstrom
                   Q00  =   0.085490

H          x = -1.369630  y =  1.597341  z =  0.315227 angstrom
           Maximum rank =  0   Radius =  0.325 angstrom
                   Q00  =   0.079322

H          x = -1.517630  y = -0.372659  z =  2.662227 angstrom
           Maximum rank =  0   Radius =  0.325 angstrom
                   Q00  =   0.080828

H          x = -2.944337  y =  0.312111  z =  1.833637 angstrom
           Maximum rank =  0   Radius =  0.325 angstrom
                   Q00  =   0.079964

H          x = -1.864808  y = -0.807849  z =  0.970827 angstrom
           Maximum rank =  0   Radius =  0.325 angstrom
                   Q00  =   0.078033

Total multipoles referred to origin at
           x =   0.000000,  y =    0.000000,  z =    0.000000 angstrom
                   Q00  =  -0.000000

Finished at 11:38:47 on 28 Apr 2020

  DMA results are available in the Python driver through the
	  variable('DMA DISTRIBUTED MULTIPOLES')
  and
	  variable('DMA TOTAL MULTIPOLES')
  commands.

    Psi4 stopped on: Tuesday, 28 April 2020 11:38AM
    Psi4 wall time for execution: 0:00:11.22

*** Psi4 exiting successfully. Buy a developer a beer!
