                               Psi4 1.3.2 release

  ==> Input File <==

--------------------------------------------------------------------------
import numpy as np
set {scf_type pk
basis cc-pvdz
d_convergence 10
gdma_switch   0
gdma_limit    0
gdma_origin   [ 0.0,  0.0,  0.0 ]
}
molecule test {
    units Angstrom
    0 1
    --
    0 1
    C               -1.135091093927855    -1.403224971998849    -1.445639168294079
    C               -0.402091093927855    -2.486224971998850    -2.277639168294079
    H               -0.962091093927855    -1.572224971998849    -0.381639168294079
    H               -0.744091093927855    -0.419224971998850    -1.710639168294079
    H               -2.206091093927855    -1.424224971998849    -1.641639168294079
    H               -0.646091093927855    -2.316224971998850    -3.326639168294079
    H               -0.746822093927855    -3.490564971998850    -1.990479168294079
    H                0.691835906072145    -2.424854971998850    -2.179879168294079
    C                0.044908906072145     1.275775028001151     0.919360831705921
    C                0.281908906072145     2.332775028001150     1.937360831705921
    C                1.206908906072145     0.360775028001150     0.929360831705921
    H               -0.033091093927855     1.743775028001151    -0.063639168294079
    H               -0.873091093927855     0.732775028001150     1.132360831705921
    H               -0.183091093927855     3.267775028001150     1.647360831705921
    H               -0.100091093927855     2.005775028001151     2.906360831705921
    H                1.344908906072145    -0.143224971998850    -0.028639168294079
    H                1.094908906072145    -0.366224971998850     1.735360831705921
    H                1.378866906072145     2.400445028001150     1.983220831705921
    H                2.025173906072145     1.055165028001150     1.170730831705921

}
e, wfn = energy('scf', return_wfn=True)
gdma(wfn)
dmavals = variable('DMA DISTRIBUTED MULTIPOLES')
charges = np.array(dmavals)
print(charges)
np.save('SSI-012VAL-114PRO-1-dimer.npy', np.array(charges))--------------------------------------------------------------------------

*** tstart() called on ds3
*** at Tue Apr 28 14:15:46 2020

   => Loading Basis Set <=

    Name: CC-PVDZ
    Role: ORBITAL
    Keyword: BASIS
    atoms 1-2, 9-11  entry C          line   138 file /theoryfs2/ds/metcalf/miniconda2/envs/tf2gpu/share/psi4/basis/cc-pvdz.gbs
    atoms 3-8, 12-19 entry H          line    22 file /theoryfs2/ds/metcalf/miniconda2/envs/tf2gpu/share/psi4/basis/cc-pvdz.gbs

         ---------------------------------------------------------
                                   SCF
               by Justin Turney, Rob Parrish, Andy Simmonett
                          and Daniel G. A. Smith
                              RHF Reference
                        1 Threads,    500 MiB Core
         ---------------------------------------------------------

  ==> Geometry <==

    Molecular point group: c1
    Full point group: C1

    Geometry (in Angstrom), charge = 0, multiplicity = 1:

       Center              X                  Y                   Z               Mass
    ------------   -----------------  -----------------  -----------------  -----------------
         C           -1.135091093928    -1.403224971999    -1.445639168294    12.000000000000
         C           -0.402091093928    -2.486224971999    -2.277639168294    12.000000000000
         H           -0.962091093928    -1.572224971999    -0.381639168294     1.007825032230
         H           -0.744091093928    -0.419224971999    -1.710639168294     1.007825032230
         H           -2.206091093928    -1.424224971999    -1.641639168294     1.007825032230
         H           -0.646091093928    -2.316224971999    -3.326639168294     1.007825032230
         H           -0.746822093928    -3.490564971999    -1.990479168294     1.007825032230
         H            0.691835906072    -2.424854971999    -2.179879168294     1.007825032230
         C            0.044908906072     1.275775028001     0.919360831706    12.000000000000
         C            0.281908906072     2.332775028001     1.937360831706    12.000000000000
         C            1.206908906072     0.360775028001     0.929360831706    12.000000000000
         H           -0.033091093928     1.743775028001    -0.063639168294     1.007825032230
         H           -0.873091093928     0.732775028001     1.132360831706     1.007825032230
         H           -0.183091093928     3.267775028001     1.647360831706     1.007825032230
         H           -0.100091093928     2.005775028001     2.906360831706     1.007825032230
         H            1.344908906072    -0.143224971999    -0.028639168294     1.007825032230
         H            1.094908906072    -0.366224971999     1.735360831706     1.007825032230
         H            1.378866906072     2.400445028001     1.983220831706     1.007825032230
         H            2.025173906072     1.055165028001     1.170730831706     1.007825032230

  Running in c1 symmetry.

  Rotational constants: A =      0.35548  B =      0.03726  C =      0.03493 [cm^-1]
  Rotational constants: A =  10657.10600  B =   1117.16293  C =   1047.21598 [MHz]
  Nuclear repulsion =  180.244713274217560

  Charge       = 0
  Multiplicity = 1
  Electrons    = 44
  Nalpha       = 22
  Nbeta        = 22

  ==> Algorithm <==

  SCF Algorithm Type is PK.
  DIIS enabled.
  MOM disabled.
  Fractional occupation disabled.
  Guess Type is SAD.
  Energy threshold   = 1.00e-06
  Density threshold  = 1.00e-10
  Integral threshold = 0.00e+00

  ==> Primary Basis <==

  Basis Set: CC-PVDZ
    Blend: CC-PVDZ
    Number of shells: 72
    Number of basis function: 140
    Number of Cartesian functions: 145
    Spherical Harmonics?: true
    Max angular momentum: 2

  ==> Pre-Iterations <==

   -------------------------------------------------------
    Irrep   Nso     Nmo     Nalpha   Nbeta   Ndocc  Nsocc
   -------------------------------------------------------
     A        140     140       0       0       0       0
   -------------------------------------------------------
    Total     140     140      22      22      22       0
   -------------------------------------------------------

  ==> Integral Setup <==

  Using integral reordering PK algorithm.
  Sizing the integral batches needed.
  Building batch lookup table.
   Calculation information:
      Number of atoms:                  19
      Number of AO shells:              72
      Number of primitives:            180
      Number of atomic orbitals:       145
      Number of basis functions:       140

      Integral cutoff                 1.00e-12
      Number of threads:                 1

	Batch   1 pq = [       0,    9405] index = [             0,44231715] size =     44231715
	Batch   2 pq = [    9405,    9870] index = [      44231715,48713385] size =      4481670
  Task number: 5
  Buffer size: 11059200
  Buffer per thread: 2
  We computed 2880445 shell quartets total.
  Whereas there are 3454506 unique shell quartets.

  ==> DiskJK: Disk-Based J/K Matrices <==

    J tasked:                  Yes
    K tasked:                  Yes
    wK tasked:                  No
    Memory [MiB]:              375
    Schwarz Cutoff:          1E-12

    OpenMP threads:              1

  Minimum eigenvalue in the overlap matrix is 4.4391338981E-03.
  Using Symmetric Orthogonalization.

  SCF Guess: Superposition of Atomic Densities via on-the-fly atomic UHF.

  ==> Iterations <==

                        Total Energy        Delta E     RMS |[F,P]|

   @RHF iter SAD:  -196.58591629723992   -1.96586e+02   0.00000e+00
   @RHF iter   1:  -197.28431719667952   -6.98401e-01   3.91302e-03 DIIS
   @RHF iter   2:  -197.44995724318721   -1.65640e-01   1.72015e-03 DIIS
   @RHF iter   3:  -197.48088322480027   -3.09260e-02   3.34110e-04 DIIS
   @RHF iter   4:  -197.48315450703140   -2.27128e-03   5.47909e-05 DIIS
   @RHF iter   5:  -197.48320088014469   -4.63731e-05   1.59349e-05 DIIS
   @RHF iter   6:  -197.48320491746892   -4.03732e-06   2.59259e-06 DIIS
   @RHF iter   7:  -197.48320504301256   -1.25544e-07   5.18617e-07 DIIS
   @RHF iter   8:  -197.48320504822857   -5.21601e-09   1.28661e-07 DIIS
   @RHF iter   9:  -197.48320504853993   -3.11360e-10   3.71966e-08 DIIS
   @RHF iter  10:  -197.48320504857045   -3.05249e-11   7.75870e-09 DIIS
   @RHF iter  11:  -197.48320504857247   -2.01794e-12   1.50770e-09 DIIS
   @RHF iter  12:  -197.48320504857313   -6.53699e-13   3.03229e-10 DIIS
   @RHF iter  13:  -197.48320504857321   -8.52651e-14   5.98122e-11 DIIS
  Energy and wave function converged.

  ==> Post-Iterations <==

    Orbital Energies [Eh]
    ---------------------

    Doubly Occupied:

       1A    -11.221137     2A    -11.218868     3A    -11.209911
       4A    -11.209609     5A    -11.207738     6A     -1.078060
       7A     -1.012902     8A     -0.920854     9A     -0.839136
      10A     -0.793277    11A     -0.641606    12A     -0.621264
      13A     -0.595539    14A     -0.593750    15A     -0.545087
      16A     -0.514325    17A     -0.498847    18A     -0.488435
      19A     -0.485033    20A     -0.474212    21A     -0.472914
      22A     -0.460558

    Virtual:

      23A      0.170979    24A      0.196023    25A      0.211515
      26A      0.220653    27A      0.235128    28A      0.238256
      29A      0.262076    30A      0.267599    31A      0.275122
      32A      0.281232    33A      0.305081    34A      0.321915
      35A      0.338813    36A      0.344100    37A      0.381322
      38A      0.394378    39A      0.453343    40A      0.561839
      41A      0.567144    42A      0.597176    43A      0.610399
      44A      0.615451    45A      0.638277    46A      0.652995
      47A      0.675158    48A      0.688005    49A      0.754465
      50A      0.788596    51A      0.815617    52A      0.839081
      53A      0.864100    54A      0.882882    55A      0.890949
      56A      0.893614    57A      0.895671    58A      0.902143
      59A      0.905382    60A      0.914374    61A      0.917617
      62A      0.923859    63A      0.931192    64A      0.944780
      65A      0.954719    66A      0.975142    67A      0.998078
      68A      1.011926    69A      1.094179    70A      1.113412
      71A      1.119223    72A      1.150299    73A      1.195411
      74A      1.240554    75A      1.418458    76A      1.469173
      77A      1.477940    78A      1.484123    79A      1.503153
      80A      1.575485    81A      1.618248    82A      1.628975
      83A      1.629923    84A      1.682877    85A      1.693415
      86A      1.722090    87A      1.736238    88A      1.795563
      89A      1.860403    90A      1.872325    91A      1.876763
      92A      1.881856    93A      1.910640    94A      1.922747
      95A      1.934518    96A      1.942531    97A      1.945332
      98A      1.948350    99A      1.951135   100A      1.963935
     101A      1.971113   102A      1.982025   103A      2.016476
     104A      2.037079   105A      2.050206   106A      2.072829
     107A      2.082474   108A      2.106837   109A      2.132313
     110A      2.141853   111A      2.241545   112A      2.249893
     113A      2.301014   114A      2.313741   115A      2.321084
     116A      2.379486   117A      2.437879   118A      2.448104
     119A      2.466003   120A      2.475624   121A      2.509152
     122A      2.550898   123A      2.573879   124A      2.578942
     125A      2.647921   126A      2.712224   127A      2.758682
     128A      2.760367   129A      2.784115   130A      2.791393
     131A      2.805619   132A      2.845591   133A      2.860378
     134A      2.868797   135A      2.873863   136A      2.931279
     137A      2.945669   138A      2.954865   139A      2.964072
     140A      3.074628

    Final Occupation by Irrep:
              A
    DOCC [    22 ]

  @RHF Final Energy:  -197.48320504857321

   => Energetics <=

    Nuclear Repulsion Energy =            180.2447132742175597
    One-Electron Energy =                -621.2497104134279198
    Two-Electron Energy =                 243.5217920906371205
    Total Energy =                       -197.4832050485732111

Computation Completed

Properties will be evaluated at   0.000000,   0.000000,   0.000000 [a0]

Properties computed using the SCF density matrix

  Nuclear Dipole Moment: [e a0]
     X:     0.0386      Y:    -0.8916      Z:    -0.7010

  Electronic Dipole Moment: [e a0]
     X:    -0.0960      Y:     0.8927      Z:     0.6737

  Dipole Moment: [e a0]
     X:    -0.0574      Y:     0.0011      Z:    -0.0274     Total:     0.0636

  Dipole Moment: [D]
     X:    -0.1459      Y:     0.0027      Z:    -0.0696     Total:     0.1617

*** tstop() called on ds3 at Tue Apr 28 14:16:18 2020
Module time:
	user time   =      15.36 seconds =       0.26 minutes
	system time =       5.30 seconds =       0.09 minutes
	total time  =         32 seconds =       0.53 minutes
Total time:
	user time   =      15.36 seconds =       0.26 minutes
	system time =       5.30 seconds =       0.09 minutes
	total time  =         32 seconds =       0.53 minutes
                                     G D M A

                                 by Anthony Stone

                           version 2.2.06, 22 June 2011

               Distributed Multipoles from Gaussian wavefunctions

Starting at 14:16:18 on 28 Apr 2020

Using SCF density matrix from file ./SSI/SSI-012VAL-114PRO-1-dimer.test.10885.fchk

                         Distributed Multipole Analysis

Standard DMA

Positions and radii in angstrom
Multipole moments in atomic units, ea_0^k for rank k

C          x = -1.135091  y = -1.403225  z = -1.445639 angstrom
           Maximum rank =  0   Radius =  0.650 angstrom
                   Q00  =  -0.238306

C          x = -0.402091  y = -2.486225  z = -2.277639 angstrom
           Maximum rank =  0   Radius =  0.650 angstrom
                   Q00  =  -0.248799

H          x = -0.962091  y = -1.572225  z = -0.381639 angstrom
           Maximum rank =  0   Radius =  0.325 angstrom
                   Q00  =   0.080150

H          x = -0.744091  y = -0.419225  z = -1.710639 angstrom
           Maximum rank =  0   Radius =  0.325 angstrom
                   Q00  =   0.080427

H          x = -2.206091  y = -1.424225  z = -1.641639 angstrom
           Maximum rank =  0   Radius =  0.325 angstrom
                   Q00  =   0.083979

H          x = -0.646091  y = -2.316225  z = -3.326639 angstrom
           Maximum rank =  0   Radius =  0.325 angstrom
                   Q00  =   0.078508

H          x = -0.746822  y = -3.490565  z = -1.990479 angstrom
           Maximum rank =  0   Radius =  0.325 angstrom
                   Q00  =   0.081449

H          x =  0.691836  y = -2.424855  z = -2.179879 angstrom
           Maximum rank =  0   Radius =  0.325 angstrom
                   Q00  =   0.082308

C          x =  0.044909  y =  1.275775  z =  0.919361 angstrom
           Maximum rank =  0   Radius =  0.650 angstrom
                   Q00  =  -0.071294

C          x =  0.281909  y =  2.332775  z =  1.937361 angstrom
           Maximum rank =  0   Radius =  0.650 angstrom
                   Q00  =  -0.218384

C          x =  1.206909  y =  0.360775  z =  0.929361 angstrom
           Maximum rank =  0   Radius =  0.650 angstrom
                   Q00  =  -0.227128

H          x = -0.033091  y =  1.743775  z = -0.063639 angstrom
           Maximum rank =  0   Radius =  0.325 angstrom
                   Q00  =   0.042760

H          x = -0.873091  y =  0.732775  z =  1.132361 angstrom
           Maximum rank =  0   Radius =  0.325 angstrom
                   Q00  =   0.044368

H          x = -0.183091  y =  3.267775  z =  1.647361 angstrom
           Maximum rank =  0   Radius =  0.325 angstrom
                   Q00  =   0.089307

H          x = -0.100091  y =  2.005775  z =  2.906361 angstrom
           Maximum rank =  0   Radius =  0.325 angstrom
                   Q00  =   0.080617

H          x =  1.344909  y = -0.143225  z = -0.028639 angstrom
           Maximum rank =  0   Radius =  0.325 angstrom
                   Q00  =   0.083778

H          x =  1.094909  y = -0.366225  z =  1.735361 angstrom
           Maximum rank =  0   Radius =  0.325 angstrom
                   Q00  =   0.072325

H          x =  1.378867  y =  2.400445  z =  1.983221 angstrom
           Maximum rank =  0   Radius =  0.325 angstrom
                   Q00  =   0.048411

H          x =  2.025174  y =  1.055165  z =  1.170731 angstrom
           Maximum rank =  0   Radius =  0.325 angstrom
                   Q00  =   0.055524

Total multipoles referred to origin at
           x =   0.000000,  y =    0.000000,  z =    0.000000 angstrom
                   Q00  =  -0.000000

Finished at 14:16:18 on 28 Apr 2020

  DMA results are available in the Python driver through the
	  variable('DMA DISTRIBUTED MULTIPOLES')
  and
	  variable('DMA TOTAL MULTIPOLES')
  commands.

    Psi4 stopped on: Tuesday, 28 April 2020 02:16PM
    Psi4 wall time for execution: 0:00:32.21

*** Psi4 exiting successfully. Buy a developer a beer!
