                               Psi4 1.3.2 release

  ==> Input File <==

--------------------------------------------------------------------------
import numpy as np
set {scf_type pk
basis cc-pvdz
d_convergence 10
gdma_switch   0
gdma_limit    0
gdma_origin   [ 0.0,  0.0,  0.0 ]
}
molecule test {
    units Angstrom
    0 1
    --
    0 1
    C               -1.360126542329636    -2.371264955392477     1.639772148423098
    C               -0.129126542329636    -2.345264955392476     0.760772148423098
    O                0.494873457670364    -3.378264955392477     0.500772148423098
    N                0.251873457670364    -1.181264955392477     0.257772148423098
    H                1.093873457670364    -1.172264955392477    -0.301227851576902
    H               -0.254126542329636    -0.333264955392477     0.393772148423098
    H               -1.361126542329636    -3.323264955392477     2.173772148423098
    H               -2.255126542329636    -2.363264955392477     1.019772148423097
    H               -1.375940542329636    -1.571214955392477     2.394532148423098
    C               -0.738126542329636     1.648735044607523    -1.680227851576902
    C                0.227873457670364     2.298735044607523    -0.723227851576902
    O                0.991873457670364     1.589735044607523    -0.054227851576902
    N                0.229873457670364     3.608735044607523    -0.664227851576902
    H               -1.101126542329636     0.730735044607523    -1.228227851576903
    H               -0.153126542329636     1.365735044607523    -2.558227851576902
    H                0.889873457670364     4.051735044607523    -0.043227851576902
    H               -0.381126542329636     4.165735044607524    -1.233227851576902
    H               -1.583582542329636     2.263546044607523    -2.022587851576902

}
e, wfn = energy('scf', return_wfn=True)
gdma(wfn)
dmavals = variable('DMA DISTRIBUTED MULTIPOLES')
charges = np.array(dmavals)
print(charges)
np.save('SSI-004GLN-007ASN-2-dimer.npy', np.array(charges))--------------------------------------------------------------------------

*** tstart() called on ds3
*** at Mon Apr 27 18:54:09 2020

   => Loading Basis Set <=

    Name: CC-PVDZ
    Role: ORBITAL
    Keyword: BASIS
    atoms 1-2, 10-11 entry C          line   138 file /theoryfs2/ds/metcalf/miniconda2/envs/tf2gpu/share/psi4/basis/cc-pvdz.gbs
    atoms 3, 12      entry O          line   198 file /theoryfs2/ds/metcalf/miniconda2/envs/tf2gpu/share/psi4/basis/cc-pvdz.gbs
    atoms 4, 13      entry N          line   168 file /theoryfs2/ds/metcalf/miniconda2/envs/tf2gpu/share/psi4/basis/cc-pvdz.gbs
    atoms 5-9, 14-18 entry H          line    22 file /theoryfs2/ds/metcalf/miniconda2/envs/tf2gpu/share/psi4/basis/cc-pvdz.gbs

         ---------------------------------------------------------
                                   SCF
               by Justin Turney, Rob Parrish, Andy Simmonett
                          and Daniel G. A. Smith
                              RHF Reference
                        1 Threads,    500 MiB Core
         ---------------------------------------------------------

  ==> Geometry <==

    Molecular point group: c1
    Full point group: C1

    Geometry (in Angstrom), charge = 0, multiplicity = 1:

       Center              X                  Y                   Z               Mass
    ------------   -----------------  -----------------  -----------------  -----------------
         C           -1.360126542330    -2.371264955392     1.639772148423    12.000000000000
         C           -0.129126542330    -2.345264955392     0.760772148423    12.000000000000
         O            0.494873457670    -3.378264955392     0.500772148423    15.994914619570
         N            0.251873457670    -1.181264955392     0.257772148423    14.003074004430
         H            1.093873457670    -1.172264955392    -0.301227851577     1.007825032230
         H           -0.254126542330    -0.333264955392     0.393772148423     1.007825032230
         H           -1.361126542330    -3.323264955392     2.173772148423     1.007825032230
         H           -2.255126542330    -2.363264955392     1.019772148423     1.007825032230
         H           -1.375940542330    -1.571214955392     2.394532148423     1.007825032230
         C           -0.738126542330     1.648735044608    -1.680227851577    12.000000000000
         C            0.227873457670     2.298735044608    -0.723227851577    12.000000000000
         O            0.991873457670     1.589735044608    -0.054227851577    15.994914619570
         N            0.229873457670     3.608735044608    -0.664227851577    14.003074004430
         H           -1.101126542330     0.730735044608    -1.228227851577     1.007825032230
         H           -0.153126542330     1.365735044608    -2.558227851577     1.007825032230
         H            0.889873457670     4.051735044608    -0.043227851577     1.007825032230
         H           -0.381126542330     4.165735044608    -1.233227851577     1.007825032230
         H           -1.583582542330     2.263546044608    -2.022587851577     1.007825032230

  Running in c1 symmetry.

  Rotational constants: A =      0.15449  B =      0.02016  C =      0.01979 [cm^-1]
  Rotational constants: A =   4631.37781  B =    604.24115  C =    593.36539 [MHz]
  Nuclear repulsion =  358.669949593374326

  Charge       = 0
  Multiplicity = 1
  Electrons    = 64
  Nalpha       = 32
  Nbeta        = 32

  ==> Algorithm <==

  SCF Algorithm Type is PK.
  DIIS enabled.
  MOM disabled.
  Fractional occupation disabled.
  Guess Type is SAD.
  Energy threshold   = 1.00e-06
  Density threshold  = 1.00e-10
  Integral threshold = 0.00e+00

  ==> Primary Basis <==

  Basis Set: CC-PVDZ
    Blend: CC-PVDZ
    Number of shells: 78
    Number of basis function: 162
    Number of Cartesian functions: 170
    Spherical Harmonics?: true
    Max angular momentum: 2

  ==> Pre-Iterations <==

   -------------------------------------------------------
    Irrep   Nso     Nmo     Nalpha   Nbeta   Ndocc  Nsocc
   -------------------------------------------------------
     A        162     162       0       0       0       0
   -------------------------------------------------------
    Total     162     162      32      32      32       0
   -------------------------------------------------------

  ==> Integral Setup <==

  Using integral reordering PK algorithm.
  Sizing the integral batches needed.
  Building batch lookup table.
   Calculation information:
      Number of atoms:                  18
      Number of AO shells:              78
      Number of primitives:            226
      Number of atomic orbitals:       170
      Number of basis functions:       162

      Integral cutoff                 1.00e-12
      Number of threads:                 1

	Batch   1 pq = [       0,    9405] index = [             0,44231715] size =     44231715
	Batch   2 pq = [    9405,   13203] index = [      44231715,87166206] size =     42934491
  Task number: 8
  Buffer size: 11059200
  Buffer per thread: 2
  We computed 3511851 shell quartets total.
  Whereas there are 4747821 unique shell quartets.

  ==> DiskJK: Disk-Based J/K Matrices <==

    J tasked:                  Yes
    K tasked:                  Yes
    wK tasked:                  No
    Memory [MiB]:              375
    Schwarz Cutoff:          1E-12

    OpenMP threads:              1

  Minimum eigenvalue in the overlap matrix is 4.3331305178E-03.
  Using Symmetric Orthogonalization.

  SCF Guess: Superposition of Atomic Densities via on-the-fly atomic UHF.

  ==> Iterations <==

                        Total Energy        Delta E     RMS |[F,P]|

   @RHF iter SAD:  -414.57767129900697   -4.14578e+02   0.00000e+00
   @RHF iter   1:  -415.69796814694399   -1.12030e+00   4.69299e-03 DIIS
   @RHF iter   2:  -415.91049443697898   -2.12526e-01   2.79716e-03 DIIS
   @RHF iter   3:  -415.98355013854547   -7.30557e-02   5.21133e-04 DIIS
   @RHF iter   4:  -415.98781049535091   -4.26036e-03   1.95177e-04 DIIS
   @RHF iter   5:  -415.98851973111402   -7.09236e-04   3.61477e-05 DIIS
   @RHF iter   6:  -415.98856702544822   -4.72943e-05   1.81083e-05 DIIS
   @RHF iter   7:  -415.98857590274469   -8.87730e-06   6.77268e-06 DIIS
   @RHF iter   8:  -415.98857773166435   -1.82892e-06   2.09716e-06 DIIS
   @RHF iter   9:  -415.98857791438758   -1.82723e-07   4.65581e-07 DIIS
   @RHF iter  10:  -415.98857792186948   -7.48190e-09   2.02060e-07 DIIS
   @RHF iter  11:  -415.98857792250067   -6.31189e-10   5.04376e-08 DIIS
   @RHF iter  12:  -415.98857792256604   -6.53699e-11   1.44673e-08 DIIS
   @RHF iter  13:  -415.98857792257292   -6.87805e-12   4.91252e-09 DIIS
   @RHF iter  14:  -415.98857792257206    8.52651e-13   1.70392e-09 DIIS
   @RHF iter  15:  -415.98857792257166    3.97904e-13   6.30622e-10 DIIS
   @RHF iter  16:  -415.98857792257178   -1.13687e-13   2.47352e-10 DIIS
   @RHF iter  17:  -415.98857792257058    1.19371e-12   9.87741e-11 DIIS
  Energy and wave function converged.

  ==> Post-Iterations <==

    Orbital Energies [Eh]
    ---------------------

    Doubly Occupied:

       1A    -20.522104     2A    -20.482810     3A    -15.609552
       4A    -15.559034     5A    -11.367882     6A    -11.327515
       7A    -11.257585     8A    -11.228442     9A     -1.385063
      10A     -1.345226    11A     -1.241650    12A     -1.190304
      13A     -1.019353    14A     -0.985271    15A     -0.825210
      16A     -0.778926    17A     -0.750200    18A     -0.704101
      19A     -0.676062    20A     -0.634942    21A     -0.630277
      22A     -0.599095    23A     -0.587143    24A     -0.574310
      25A     -0.548130    26A     -0.537893    27A     -0.535699
      28A     -0.504801    29A     -0.431881    30A     -0.424183
      31A     -0.391433    32A     -0.377790

    Virtual:

      33A      0.150621    34A      0.181536    35A      0.185302
      36A      0.204777    37A      0.210895    38A      0.223268
      39A      0.249233    40A      0.254938    41A      0.269565
      42A      0.272412    43A      0.287351    44A      0.324388
      45A      0.374229    46A      0.405295    47A      0.464529
      48A      0.480816    49A      0.543262    50A      0.565382
      51A      0.606768    52A      0.639503    53A      0.655110
      54A      0.677946    55A      0.690361    56A      0.705118
      57A      0.711644    58A      0.725267    59A      0.737269
      60A      0.746989    61A      0.763411    62A      0.805914
      63A      0.834076    64A      0.844770    65A      0.866809
      66A      0.876679    67A      0.891148    68A      0.901255
      69A      0.910625    70A      0.919974    71A      0.935135
      72A      0.961105    73A      0.987730    74A      0.997033
      75A      1.019102    76A      1.040141    77A      1.084865
      78A      1.093151    79A      1.120152    80A      1.131773
      81A      1.138822    82A      1.164741    83A      1.311781
      84A      1.341868    85A      1.352926    86A      1.365004
      87A      1.384920    88A      1.386605    89A      1.411288
      90A      1.426991    91A      1.435331    92A      1.442030
      93A      1.452295    94A      1.462071    95A      1.514876
      96A      1.529553    97A      1.634251    98A      1.643579
      99A      1.662973   100A      1.668797   101A      1.710352
     102A      1.741817   103A      1.808833   104A      1.821899
     105A      1.850488   106A      1.874428   107A      1.878506
     108A      1.890370   109A      1.898068   110A      1.904002
     111A      1.925236   112A      1.934229   113A      1.948176
     114A      1.961226   115A      1.987994   116A      1.994184
     117A      2.025962   118A      2.054107   119A      2.098910
     120A      2.128468   121A      2.141047   122A      2.186357
     123A      2.216075   124A      2.227543   125A      2.296548
     126A      2.301330   127A      2.394171   128A      2.421732
     129A      2.444365   130A      2.451894   131A      2.466486
     132A      2.501731   133A      2.532507   134A      2.565633
     135A      2.591824   136A      2.604514   137A      2.623100
     138A      2.664951   139A      2.725278   140A      2.737901
     141A      2.752054   142A      2.757161   143A      2.802563
     144A      2.807547   145A      2.844446   146A      2.877875
     147A      2.979560   148A      3.041697   149A      3.080856
     150A      3.108889   151A      3.123099   152A      3.163759
     153A      3.260615   154A      3.321290   155A      3.487073
     156A      3.519186   157A      3.534893   158A      3.560387
     159A      3.855331   160A      3.880775   161A      3.886612
     162A      3.925092

    Final Occupation by Irrep:
              A
    DOCC [    32 ]

  @RHF Final Energy:  -415.98857792257058

   => Energetics <=

    Nuclear Repulsion Energy =            358.6699495933743265
    One-Electron Energy =               -1279.2493228098533109
    Two-Electron Energy =                 504.5907952939083998
    Total Energy =                       -415.9885779225705846

Computation Completed

Properties will be evaluated at   0.000000,   0.000000,   0.000000 [a0]

Properties computed using the SCF density matrix

  Nuclear Dipole Moment: [e a0]
     X:    -6.0705      Y:     3.5601      Z:    -1.3137

  Electronic Dipole Moment: [e a0]
     X:     4.6096      Y:    -0.4783      Z:     0.5393

  Dipole Moment: [e a0]
     X:    -1.4609      Y:     3.0817      Z:    -0.7744     Total:     3.4973

  Dipole Moment: [D]
     X:    -3.7132      Y:     7.8330      Z:    -1.9684     Total:     8.8892

*** tstop() called on ds3 at Mon Apr 27 18:54:46 2020
Module time:
	user time   =      25.21 seconds =       0.42 minutes
	system time =      12.48 seconds =       0.21 minutes
	total time  =         37 seconds =       0.62 minutes
Total time:
	user time   =      25.21 seconds =       0.42 minutes
	system time =      12.48 seconds =       0.21 minutes
	total time  =         37 seconds =       0.62 minutes
                                     G D M A

                                 by Anthony Stone

                           version 2.2.06, 22 June 2011

               Distributed Multipoles from Gaussian wavefunctions

Starting at 18:54:46 on 27 Apr 2020

Using SCF density matrix from file ./SSI/SSI-004GLN-007ASN-2-dimer.test.30861.fchk

                         Distributed Multipole Analysis

Standard DMA

Positions and radii in angstrom
Multipole moments in atomic units, ea_0^k for rank k

C          x = -1.360127  y = -2.371265  z =  1.639772 angstrom
           Maximum rank =  0   Radius =  0.650 angstrom
                   Q00  =  -0.278755

C          x = -0.129127  y = -2.345265  z =  0.760772 angstrom
           Maximum rank =  0   Radius =  0.650 angstrom
                   Q00  =   0.834910

O          x =  0.494873  y = -3.378265  z =  0.500772 angstrom
           Maximum rank =  0   Radius =  0.650 angstrom
                   Q00  =  -0.813148

N          x =  0.251873  y = -1.181265  z =  0.257772 angstrom
           Maximum rank =  0   Radius =  0.650 angstrom
                   Q00  =  -0.529286

H          x =  1.093873  y = -1.172265  z = -0.301228 angstrom
           Maximum rank =  0   Radius =  0.325 angstrom
                   Q00  =   0.226049

H          x = -0.254127  y = -0.333265  z =  0.393772 angstrom
           Maximum rank =  0   Radius =  0.325 angstrom
                   Q00  =   0.212038

H          x = -1.361127  y = -3.323265  z =  2.173772 angstrom
           Maximum rank =  0   Radius =  0.325 angstrom
                   Q00  =   0.124326

H          x = -2.255127  y = -2.363265  z =  1.019772 angstrom
           Maximum rank =  0   Radius =  0.325 angstrom
                   Q00  =   0.118596

H          x = -1.375941  y = -1.571215  z =  2.394532 angstrom
           Maximum rank =  0   Radius =  0.325 angstrom
                   Q00  =   0.099752

C          x = -0.738127  y =  1.648735  z = -1.680228 angstrom
           Maximum rank =  0   Radius =  0.650 angstrom
                   Q00  =  -0.268503

C          x =  0.227873  y =  2.298735  z = -0.723228 angstrom
           Maximum rank =  0   Radius =  0.650 angstrom
                   Q00  =   0.813876

O          x =  0.991873  y =  1.589735  z = -0.054228 angstrom
           Maximum rank =  0   Radius =  0.650 angstrom
                   Q00  =  -0.801231

N          x =  0.229873  y =  3.608735  z = -0.664228 angstrom
           Maximum rank =  0   Radius =  0.650 angstrom
                   Q00  =  -0.521004

H          x = -1.101127  y =  0.730735  z = -1.228228 angstrom
           Maximum rank =  0   Radius =  0.325 angstrom
                   Q00  =   0.117840

H          x = -0.153127  y =  1.365735  z = -2.558228 angstrom
           Maximum rank =  0   Radius =  0.325 angstrom
                   Q00  =   0.137814

H          x =  0.889873  y =  4.051735  z = -0.043228 angstrom
           Maximum rank =  0   Radius =  0.325 angstrom
                   Q00  =   0.223806

H          x = -0.381127  y =  4.165735  z = -1.233228 angstrom
           Maximum rank =  0   Radius =  0.325 angstrom
                   Q00  =   0.214631

H          x = -1.583583  y =  2.263546  z = -2.022588 angstrom
           Maximum rank =  0   Radius =  0.325 angstrom
                   Q00  =   0.088290

Total multipoles referred to origin at
           x =   0.000000,  y =    0.000000,  z =    0.000000 angstrom
                   Q00  =  -0.000000

Finished at 18:54:46 on 27 Apr 2020

  DMA results are available in the Python driver through the
	  variable('DMA DISTRIBUTED MULTIPOLES')
  and
	  variable('DMA TOTAL MULTIPOLES')
  commands.

    Psi4 stopped on: Monday, 27 April 2020 06:54PM
    Psi4 wall time for execution: 0:00:37.11

*** Psi4 exiting successfully. Buy a developer a beer!
