                               Psi4 1.3.2 release

  ==> Input File <==

--------------------------------------------------------------------------
import numpy as np
set {scf_type pk
basis cc-pvdz
d_convergence 10
gdma_switch   0
gdma_limit    0
gdma_origin   [ 0.0,  0.0,  0.0 ]
}
molecule test {
    units Angstrom
    0 1
    --
    0 1
    C                0.047810657765121     2.311616919723285     2.466357051778334
    C                1.387810657765121    -0.160383080276715     0.162357051778334
    C               -0.600189342234880     0.737616919723285     0.473357051778334
    C                0.250810657765121     1.268616919723285     1.395357051778334
    N                0.140810657765121    -0.129383080276715    -0.290642948221666
    N                1.491810657765120     0.695616919723285     1.180357051778334
    H               -0.120189342234879    -0.325383080276715    -1.241642948221666
    H                2.221810657765121    -0.677383080276715    -0.298642948221666
    H               -1.635189342234880     0.984616919723285     0.316357051778334
    H                0.625810657765121     3.188616919723285     2.171357051778334
    H                0.468810657765120     1.937616919723285     3.396357051778334
    H               -0.992959342234879     2.621466919723284     2.641867051778334
    C               -1.643189342234880    -2.566383080276715    -2.265642948221666
    O               -0.682189342234880    -1.533383080276715    -2.371642948221666
    H               -0.171189342234879    -1.711383080276715    -1.565642948221666
    H               -1.788189342234880    -2.820383080276715    -1.216642948221666
    H               -2.601409342234880    -2.239943080276715    -2.696042948221666
    H               -1.233209342234880    -3.434163080276715    -2.803112948221666

}
e, wfn = energy('scf', return_wfn=True)
gdma(wfn)
dmavals = variable('DMA DISTRIBUTED MULTIPOLES')
charges = np.array(dmavals)
print(charges)
np.save('SSI-033HIE-062THR-1-dimer.npy', np.array(charges))--------------------------------------------------------------------------

*** tstart() called on ds3
*** at Sun Apr 26 22:03:20 2020

   => Loading Basis Set <=

    Name: CC-PVDZ
    Role: ORBITAL
    Keyword: BASIS
    atoms 1-4, 13     entry C          line   138 file /theoryfs2/ds/metcalf/miniconda2/envs/tf2gpu/share/psi4/basis/cc-pvdz.gbs
    atoms 5-6         entry N          line   168 file /theoryfs2/ds/metcalf/miniconda2/envs/tf2gpu/share/psi4/basis/cc-pvdz.gbs
    atoms 7-12, 15-18 entry H          line    22 file /theoryfs2/ds/metcalf/miniconda2/envs/tf2gpu/share/psi4/basis/cc-pvdz.gbs
    atoms 14          entry O          line   198 file /theoryfs2/ds/metcalf/miniconda2/envs/tf2gpu/share/psi4/basis/cc-pvdz.gbs

         ---------------------------------------------------------
                                   SCF
               by Justin Turney, Rob Parrish, Andy Simmonett
                          and Daniel G. A. Smith
                              RHF Reference
                        1 Threads,    500 MiB Core
         ---------------------------------------------------------

  ==> Geometry <==

    Molecular point group: c1
    Full point group: C1

    Geometry (in Angstrom), charge = 0, multiplicity = 1:

       Center              X                  Y                   Z               Mass
    ------------   -----------------  -----------------  -----------------  -----------------
         C            0.047810657765     2.311616919723     2.466357051778    12.000000000000
         C            1.387810657765    -0.160383080277     0.162357051778    12.000000000000
         C           -0.600189342235     0.737616919723     0.473357051778    12.000000000000
         C            0.250810657765     1.268616919723     1.395357051778    12.000000000000
         N            0.140810657765    -0.129383080277    -0.290642948222    14.003074004430
         N            1.491810657765     0.695616919723     1.180357051778    14.003074004430
         H           -0.120189342235    -0.325383080277    -1.241642948222     1.007825032230
         H            2.221810657765    -0.677383080277    -0.298642948222     1.007825032230
         H           -1.635189342235     0.984616919723     0.316357051778     1.007825032230
         H            0.625810657765     3.188616919723     2.171357051778     1.007825032230
         H            0.468810657765     1.937616919723     3.396357051778     1.007825032230
         H           -0.992959342235     2.621466919723     2.641867051778     1.007825032230
         C           -1.643189342235    -2.566383080277    -2.265642948222    12.000000000000
         O           -0.682189342235    -1.533383080277    -2.371642948222    15.994914619570
         H           -0.171189342235    -1.711383080277    -1.565642948222     1.007825032230
         H           -1.788189342235    -2.820383080277    -1.216642948222     1.007825032230
         H           -2.601409342235    -2.239943080277    -2.696042948222     1.007825032230
         H           -1.233209342235    -3.434163080277    -2.803112948222     1.007825032230

  Running in c1 symmetry.

  Rotational constants: A =      0.18745  B =      0.02710  C =      0.02445 [cm^-1]
  Rotational constants: A =   5619.61688  B =    812.54493  C =    732.90818 [MHz]
  Nuclear repulsion =  361.438631943550433

  Charge       = 0
  Multiplicity = 1
  Electrons    = 62
  Nalpha       = 31
  Nbeta        = 31

  ==> Algorithm <==

  SCF Algorithm Type is PK.
  DIIS enabled.
  MOM disabled.
  Fractional occupation disabled.
  Guess Type is SAD.
  Energy threshold   = 1.00e-06
  Density threshold  = 1.00e-10
  Integral threshold = 0.00e+00

  ==> Primary Basis <==

  Basis Set: CC-PVDZ
    Blend: CC-PVDZ
    Number of shells: 78
    Number of basis function: 162
    Number of Cartesian functions: 170
    Spherical Harmonics?: true
    Max angular momentum: 2

  ==> Pre-Iterations <==

   -------------------------------------------------------
    Irrep   Nso     Nmo     Nalpha   Nbeta   Ndocc  Nsocc
   -------------------------------------------------------
     A        162     162       0       0       0       0
   -------------------------------------------------------
    Total     162     162      31      31      31       0
   -------------------------------------------------------

  ==> Integral Setup <==

  Using integral reordering PK algorithm.
  Sizing the integral batches needed.
  Building batch lookup table.
   Calculation information:
      Number of atoms:                  18
      Number of AO shells:              78
      Number of primitives:            226
      Number of atomic orbitals:       170
      Number of basis functions:       162

      Integral cutoff                 1.00e-12
      Number of threads:                 1

	Batch   1 pq = [       0,    9405] index = [             0,44231715] size =     44231715
	Batch   2 pq = [    9405,   13203] index = [      44231715,87166206] size =     42934491
  Task number: 8
  Buffer size: 11059200
  Buffer per thread: 2
  We computed 3907160 shell quartets total.
  Whereas there are 4747821 unique shell quartets.

  ==> DiskJK: Disk-Based J/K Matrices <==

    J tasked:                  Yes
    K tasked:                  Yes
    wK tasked:                  No
    Memory [MiB]:              375
    Schwarz Cutoff:          1E-12

    OpenMP threads:              1

  Minimum eigenvalue in the overlap matrix is 1.1677260923E-03.
  Using Symmetric Orthogonalization.

  SCF Guess: Superposition of Atomic Densities via on-the-fly atomic UHF.

  ==> Iterations <==

                        Total Energy        Delta E     RMS |[F,P]|

   @RHF iter SAD:  -378.15131295148132   -3.78151e+02   0.00000e+00
   @RHF iter   1:  -378.70640955557894   -5.55097e-01   3.51563e-03 DIIS
   @RHF iter   2:  -378.85693183380818   -1.50522e-01   1.88544e-03 DIIS
   @RHF iter   3:  -378.89636842560503   -3.94366e-02   4.56768e-04 DIIS
   @RHF iter   4:  -378.89972294484414   -3.35452e-03   1.74796e-04 DIIS
   @RHF iter   5:  -378.90017898991300   -4.56045e-04   3.51383e-05 DIIS
   @RHF iter   6:  -378.90020664756724   -2.76577e-05   1.44634e-05 DIIS
   @RHF iter   7:  -378.90021202758783   -5.38002e-06   4.99961e-06 DIIS
   @RHF iter   8:  -378.90021308388020   -1.05629e-06   1.90199e-06 DIIS
   @RHF iter   9:  -378.90021327456509   -1.90685e-07   7.72830e-07 DIIS
   @RHF iter  10:  -378.90021329776653   -2.32014e-08   2.62700e-07 DIIS
   @RHF iter  11:  -378.90021330162722   -3.86069e-09   7.58629e-08 DIIS
   @RHF iter  12:  -378.90021330189660   -2.69381e-10   3.47304e-08 DIIS
   @RHF iter  13:  -378.90021330193940   -4.28031e-11   1.20145e-08 DIIS
   @RHF iter  14:  -378.90021330194520   -5.79803e-12   4.13989e-09 DIIS
   @RHF iter  15:  -378.90021330194713   -1.93268e-12   1.79357e-09 DIIS
   @RHF iter  16:  -378.90021330194725   -1.13687e-13   5.33130e-10 DIIS
   @RHF iter  17:  -378.90021330194384    3.41061e-12   2.17640e-10 DIIS
   @RHF iter  18:  -378.90021330194634   -2.50111e-12   7.77489e-11 DIIS
  Energy and wave function converged.

  ==> Post-Iterations <==

    Orbital Energies [Eh]
    ---------------------

    Doubly Occupied:

       1A    -20.582474     2A    -15.604602     3A    -15.529624
       4A    -11.296486     5A    -11.292004     6A    -11.246004
       7A    -11.243039     8A    -11.223398     9A     -1.395182
      10A     -1.338854    11A     -1.152241    12A     -1.026426
      13A     -0.947504    14A     -0.935026    15A     -0.819795
      16A     -0.761930    17A     -0.748200    18A     -0.704740
      19A     -0.644778    20A     -0.622919    21A     -0.605975
      22A     -0.598970    23A     -0.583464    24A     -0.550348
      25A     -0.534437    26A     -0.527476    27A     -0.519915
      28A     -0.467767    29A     -0.410918    30A     -0.375738
      31A     -0.308231

    Virtual:

      32A      0.165182    33A      0.183196    34A      0.201312
      35A      0.204332    36A      0.227124    37A      0.234728
      38A      0.239823    39A      0.250967    40A      0.259002
      41A      0.268734    42A      0.295033    43A      0.305664
      44A      0.347974    45A      0.382178    46A      0.411993
      47A      0.441339    48A      0.478043    49A      0.501941
      50A      0.602354    51A      0.608891    52A      0.621426
      53A      0.624880    54A      0.637564    55A      0.662707
      56A      0.694771    57A      0.702693    58A      0.727258
      59A      0.760143    60A      0.768951    61A      0.785840
      62A      0.812669    63A      0.819234    64A      0.839012
      65A      0.848213    66A      0.857538    67A      0.861946
      68A      0.885191    69A      0.888064    70A      0.900908
      71A      0.917560    72A      0.937626    73A      0.957993
      74A      0.979500    75A      1.020377    76A      1.064958
      77A      1.081213    78A      1.108164    79A      1.114973
      80A      1.130142    81A      1.136338    82A      1.154508
      83A      1.170344    84A      1.196572    85A      1.229299
      86A      1.245864    87A      1.302494    88A      1.309971
      89A      1.317142    90A      1.362324    91A      1.416586
      92A      1.441876    93A      1.447284    94A      1.474302
      95A      1.490377    96A      1.518027    97A      1.572866
      98A      1.638005    99A      1.643567   100A      1.663293
     101A      1.679117   102A      1.687007   103A      1.693024
     104A      1.726291   105A      1.792776   106A      1.807010
     107A      1.820062   108A      1.847620   109A      1.863405
     110A      1.886976   111A      1.902321   112A      1.908865
     113A      1.916782   114A      1.937754   115A      1.953283
     116A      1.965429   117A      1.993258   118A      2.004955
     119A      2.027262   120A      2.079931   121A      2.083601
     122A      2.101257   123A      2.127206   124A      2.146964
     125A      2.214873   126A      2.219142   127A      2.247713
     128A      2.273981   129A      2.289289   130A      2.361800
     131A      2.381688   132A      2.388541   133A      2.410034
     134A      2.440873   135A      2.485913   136A      2.514994
     137A      2.531295   138A      2.601680   139A      2.646106
     140A      2.690497   141A      2.721883   142A      2.732026
     143A      2.742682   144A      2.753604   145A      2.766852
     146A      2.774729   147A      2.803669   148A      2.829590
     149A      2.876550   150A      2.907096   151A      2.949474
     152A      3.067237   153A      3.118204   154A      3.191275
     155A      3.243963   156A      3.331007   157A      3.388141
     158A      3.464345   159A      3.492628   160A      3.514327
     161A      3.748434   162A      4.105006

    Final Occupation by Irrep:
              A
    DOCC [    31 ]

  @RHF Final Energy:  -378.90021330194634

   => Energetics <=

    Nuclear Repulsion Energy =            361.4386319435504333
    One-Electron Energy =               -1231.4807625610703781
    Two-Electron Energy =                 491.1419173155735507
    Total Energy =                       -378.9002133019463372

Computation Completed

Properties will be evaluated at   0.000000,   0.000000,   0.000000 [a0]

Properties computed using the SCF density matrix

  Nuclear Dipole Moment: [e a0]
     X:    -4.9071      Y:    -2.3305      Z:    -1.2287

  Electronic Dipole Moment: [e a0]
     X:     3.9596      Y:     1.4358      Z:     0.6200

  Dipole Moment: [e a0]
     X:    -0.9475      Y:    -0.8947      Z:    -0.6088     Total:     1.4383

  Dipole Moment: [D]
     X:    -2.4083      Y:    -2.2741      Z:    -1.5473     Total:     3.6559

*** tstop() called on ds3 at Sun Apr 26 22:04:08 2020
Module time:
	user time   =      33.59 seconds =       0.56 minutes
	system time =      15.35 seconds =       0.26 minutes
	total time  =         48 seconds =       0.80 minutes
Total time:
	user time   =      33.59 seconds =       0.56 minutes
	system time =      15.35 seconds =       0.26 minutes
	total time  =         48 seconds =       0.80 minutes
                                     G D M A

                                 by Anthony Stone

                           version 2.2.06, 22 June 2011

               Distributed Multipoles from Gaussian wavefunctions

Starting at 22:4:8 on 26 Apr 2020

Using SCF density matrix from file ./SSI/SSI-033HIE-062THR-1-dimer.test.26187.fchk

                         Distributed Multipole Analysis

Standard DMA

Positions and radii in angstrom
Multipole moments in atomic units, ea_0^k for rank k

C          x =  0.047811  y =  2.311617  z =  2.466357 angstrom
           Maximum rank =  0   Radius =  0.650 angstrom
                   Q00  =  -0.197907

C          x =  1.387811  y = -0.160383  z =  0.162357 angstrom
           Maximum rank =  0   Radius =  0.650 angstrom
                   Q00  =   0.465534

C          x = -0.600189  y =  0.737617  z =  0.473357 angstrom
           Maximum rank =  0   Radius =  0.650 angstrom
                   Q00  =   0.006777

C          x =  0.250811  y =  1.268617  z =  1.395357 angstrom
           Maximum rank =  0   Radius =  0.650 angstrom
                   Q00  =   0.204075

N          x =  0.140811  y = -0.129383  z = -0.290643 angstrom
           Maximum rank =  0   Radius =  0.650 angstrom
                   Q00  =  -0.526376

N          x =  1.491811  y =  0.695617  z =  1.180357 angstrom
           Maximum rank =  0   Radius =  0.650 angstrom
                   Q00  =  -0.770238

H          x = -0.120189  y = -0.325383  z = -1.241643 angstrom
           Maximum rank =  0   Radius =  0.325 angstrom
                   Q00  =   0.206535

H          x =  2.221811  y = -0.677383  z = -0.298643 angstrom
           Maximum rank =  0   Radius =  0.325 angstrom
                   Q00  =   0.124048

H          x = -1.635189  y =  0.984617  z =  0.316357 angstrom
           Maximum rank =  0   Radius =  0.325 angstrom
                   Q00  =   0.098768

H          x =  0.625811  y =  3.188617  z =  2.171357 angstrom
           Maximum rank =  0   Radius =  0.325 angstrom
                   Q00  =   0.109680

H          x =  0.468811  y =  1.937617  z =  3.396357 angstrom
           Maximum rank =  0   Radius =  0.325 angstrom
                   Q00  =   0.116160

H          x = -0.992959  y =  2.621467  z =  2.641867 angstrom
           Maximum rank =  0   Radius =  0.325 angstrom
                   Q00  =   0.092610

C          x = -1.643189  y = -2.566383  z = -2.265643 angstrom
           Maximum rank =  0   Radius =  0.650 angstrom
                   Q00  =  -0.027060

O          x = -0.682189  y = -1.533383  z = -2.371643 angstrom
           Maximum rank =  0   Radius =  0.650 angstrom
                   Q00  =  -0.574459

H          x = -0.171189  y = -1.711383  z = -1.565643 angstrom
           Maximum rank =  0   Radius =  0.325 angstrom
                   Q00  =   0.390759

H          x = -1.788189  y = -2.820383  z = -1.216643 angstrom
           Maximum rank =  0   Radius =  0.325 angstrom
                   Q00  =   0.076973

H          x = -2.601409  y = -2.239943  z = -2.696043 angstrom
           Maximum rank =  0   Radius =  0.325 angstrom
                   Q00  =   0.120194

H          x = -1.233209  y = -3.434163  z = -2.803113 angstrom
           Maximum rank =  0   Radius =  0.325 angstrom
                   Q00  =   0.083929

Total multipoles referred to origin at
           x =   0.000000,  y =    0.000000,  z =    0.000000 angstrom
                   Q00  =  -0.000000

Finished at 22:4:8 on 26 Apr 2020

  DMA results are available in the Python driver through the
	  variable('DMA DISTRIBUTED MULTIPOLES')
  and
	  variable('DMA TOTAL MULTIPOLES')
  commands.

    Psi4 stopped on: Sunday, 26 April 2020 10:04PM
    Psi4 wall time for execution: 0:00:47.90

*** Psi4 exiting successfully. Buy a developer a beer!
