                               Psi4 1.3.2 release

  ==> Input File <==

--------------------------------------------------------------------------
import numpy as np
set {scf_type pk
basis cc-pvdz
d_convergence 10
gdma_switch   0
gdma_limit    0
gdma_origin   [ 0.0,  0.0,  0.0 ]
}
molecule test {
    units Angstrom
    0 1
    --
    0 1
    C                1.636917344225775    -0.563743227454839    -0.275980697234210
    C                2.102917344225775    -1.593743227454839    -1.320980697234210
    H                1.130917344225775    -1.061743227454839     0.554019302765790
    H                2.504917344225775    -0.026743227454839     0.105019302765790
    H                0.968917344225775     0.169256772545161    -0.727980697234210
    H                2.478917344225775    -1.048743227454839    -2.183980697234210
    H                1.270527344225775    -2.239795227454839    -1.636810697234210
    H                2.929037344225775    -2.185879227454839    -0.900380697234210
    C               -1.346082655774225     1.602256772545161     0.622019302765790
    C               -2.403082655774225     0.554256772545161     0.969019302765790
    H               -1.708082655774225     2.606256772545161     0.835019302765790
    H               -0.453082655774225     1.421256772545161     1.221019302765789
    H               -1.087082655774225     1.529256772545161    -0.433980697234210
    H               -2.661082655774225     0.657256772545161     2.024019302765789
    H               -1.940082655774225    -0.423743227454839     0.846019302765790
    H               -3.322722655774225     0.614947772545161     0.368539302765790

}
e, wfn = energy('scf', return_wfn=True)
gdma(wfn)
dmavals = variable('DMA DISTRIBUTED MULTIPOLES')
charges = np.array(dmavals)
print(charges)
np.save('SSI-104VAL-108ILE-1-dimer.npy', np.array(charges))--------------------------------------------------------------------------

*** tstart() called on ds3
*** at Tue Apr 28 07:57:56 2020

   => Loading Basis Set <=

    Name: CC-PVDZ
    Role: ORBITAL
    Keyword: BASIS
    atoms 1-2, 9-10  entry C          line   138 file /theoryfs2/ds/metcalf/miniconda2/envs/tf2gpu/share/psi4/basis/cc-pvdz.gbs
    atoms 3-8, 11-16 entry H          line    22 file /theoryfs2/ds/metcalf/miniconda2/envs/tf2gpu/share/psi4/basis/cc-pvdz.gbs

         ---------------------------------------------------------
                                   SCF
               by Justin Turney, Rob Parrish, Andy Simmonett
                          and Daniel G. A. Smith
                              RHF Reference
                        1 Threads,    500 MiB Core
         ---------------------------------------------------------

  ==> Geometry <==

    Molecular point group: c1
    Full point group: C1

    Geometry (in Angstrom), charge = 0, multiplicity = 1:

       Center              X                  Y                   Z               Mass
    ------------   -----------------  -----------------  -----------------  -----------------
         C            1.636917344226    -0.563743227455    -0.275980697234    12.000000000000
         C            2.102917344226    -1.593743227455    -1.320980697234    12.000000000000
         H            1.130917344226    -1.061743227455     0.554019302766     1.007825032230
         H            2.504917344226    -0.026743227455     0.105019302766     1.007825032230
         H            0.968917344226     0.169256772545    -0.727980697234     1.007825032230
         H            2.478917344226    -1.048743227455    -2.183980697234     1.007825032230
         H            1.270527344226    -2.239795227455    -1.636810697234     1.007825032230
         H            2.929037344226    -2.185879227455    -0.900380697234     1.007825032230
         C           -1.346082655774     1.602256772545     0.622019302766    12.000000000000
         C           -2.403082655774     0.554256772545     0.969019302766    12.000000000000
         H           -1.708082655774     2.606256772545     0.835019302766     1.007825032230
         H           -0.453082655774     1.421256772545     1.221019302766     1.007825032230
         H           -1.087082655774     1.529256772545    -0.433980697234     1.007825032230
         H           -2.661082655774     0.657256772545     2.024019302766     1.007825032230
         H           -1.940082655774    -0.423743227455     0.846019302766     1.007825032230
         H           -3.322722655774     0.614947772545     0.368539302766     1.007825032230

  Running in c1 symmetry.

  Rotational constants: A =      0.46410  B =      0.04834  C =      0.04615 [cm^-1]
  Rotational constants: A =  13913.42988  B =   1449.12637  C =   1383.52842 [MHz]
  Nuclear repulsion =  121.793054355784008

  Charge       = 0
  Multiplicity = 1
  Electrons    = 36
  Nalpha       = 18
  Nbeta        = 18

  ==> Algorithm <==

  SCF Algorithm Type is PK.
  DIIS enabled.
  MOM disabled.
  Fractional occupation disabled.
  Guess Type is SAD.
  Energy threshold   = 1.00e-06
  Density threshold  = 1.00e-10
  Integral threshold = 0.00e+00

  ==> Primary Basis <==

  Basis Set: CC-PVDZ
    Blend: CC-PVDZ
    Number of shells: 60
    Number of basis function: 116
    Number of Cartesian functions: 120
    Spherical Harmonics?: true
    Max angular momentum: 2

  ==> Pre-Iterations <==

   -------------------------------------------------------
    Irrep   Nso     Nmo     Nalpha   Nbeta   Ndocc  Nsocc
   -------------------------------------------------------
     A        116     116       0       0       0       0
   -------------------------------------------------------
    Total     116     116      18      18      18       0
   -------------------------------------------------------

  ==> Integral Setup <==

  Using integral reordering PK algorithm.
  Sizing the integral batches needed.
  Building batch lookup table.
   Calculation information:
      Number of atoms:                  16
      Number of AO shells:              60
      Number of primitives:            148
      Number of atomic orbitals:       120
      Number of basis functions:       116

      Integral cutoff                 1.00e-12
      Number of threads:                 1

	Batch   1 pq = [       0,    6786] index = [             0,23028291] size =     23028291
  Task number: 3
  Buffer size: 11059200
  Buffer per thread: 2
  We computed 1423645 shell quartets total.
  Whereas there are 1675365 unique shell quartets.

  ==> DiskJK: Disk-Based J/K Matrices <==

    J tasked:                  Yes
    K tasked:                  Yes
    wK tasked:                  No
    Memory [MiB]:              375
    Schwarz Cutoff:          1E-12

    OpenMP threads:              1

  Minimum eigenvalue in the overlap matrix is 7.3655154442E-03.
  Using Symmetric Orthogonalization.

  SCF Guess: Superposition of Atomic Densities via on-the-fly atomic UHF.

  ==> Iterations <==

                        Total Energy        Delta E     RMS |[F,P]|

   @RHF iter SAD:  -157.33443829079599   -1.57334e+02   0.00000e+00
   @RHF iter   1:  -158.30803466776754   -9.73596e-01   4.20064e-03 DIIS
   @RHF iter   2:  -158.44081294870944   -1.32778e-01   1.78822e-03 DIIS
   @RHF iter   3:  -158.46402951827764   -2.32166e-02   3.48753e-04 DIIS
   @RHF iter   4:  -158.46585107410223   -1.82156e-03   3.86651e-05 DIIS
   @RHF iter   5:  -158.46587457808380   -2.35040e-05   6.41459e-06 DIIS
   @RHF iter   6:  -158.46587519801864   -6.19935e-07   9.53037e-07 DIIS
   @RHF iter   7:  -158.46587520748255   -9.46392e-09   3.01348e-07 DIIS
   @RHF iter   8:  -158.46587520825273   -7.70171e-10   3.85626e-08 DIIS
   @RHF iter   9:  -158.46587520827569   -2.29647e-11   7.36361e-09 DIIS
   @RHF iter  10:  -158.46587520827609   -3.97904e-13   2.16747e-09 DIIS
   @RHF iter  11:  -158.46587520827592    1.70530e-13   6.46633e-10 DIIS
   @RHF iter  12:  -158.46587520827634   -4.26326e-13   1.39803e-10 DIIS
   @RHF iter  13:  -158.46587520827683   -4.83169e-13   2.32978e-11 DIIS
  Energy and wave function converged.

  ==> Post-Iterations <==

    Orbital Energies [Eh]
    ---------------------

    Doubly Occupied:

       1A    -11.220068     2A    -11.217763     3A    -11.217374
       4A    -11.216347     5A     -1.018839     6A     -1.015448
       7A     -0.839320     8A     -0.835360     9A     -0.601927
      10A     -0.598779    11A     -0.596554    12A     -0.593329
      13A     -0.503977    14A     -0.495633    15A     -0.489340
      16A     -0.487603    17A     -0.485303    18A     -0.480054

    Virtual:

      19A      0.170082    20A      0.198040    21A      0.225660
      22A      0.229480    23A      0.243551    24A      0.255633
      25A      0.266632    26A      0.276449    27A      0.282445
      28A      0.287542    29A      0.311529    30A      0.342089
      31A      0.394212    32A      0.408141    33A      0.573570
      34A      0.591782    35A      0.596635    36A      0.601474
      37A      0.611498    38A      0.631052    39A      0.672934
      40A      0.684704    41A      0.695705    42A      0.783612
      43A      0.845383    44A      0.853744    45A      0.885435
      46A      0.887736    47A      0.891662    48A      0.898031
      49A      0.901928    50A      0.905744    51A      0.917968
      52A      0.921570    53A      0.936891    54A      0.960036
      55A      0.977905    56A      0.987876    57A      1.120881
      58A      1.126273    59A      1.130816    60A      1.152725
      61A      1.232602    62A      1.252791    63A      1.455556
      64A      1.472343    65A      1.475799    66A      1.492937
      67A      1.574428    68A      1.580854    69A      1.678971
      70A      1.686473    71A      1.693924    72A      1.701404
      73A      1.854732    74A      1.860398    75A      1.865755
      76A      1.877789    77A      1.884828    78A      1.906759
      79A      1.928095    80A      1.943558    81A      1.944014
      82A      1.949212    83A      1.954904    84A      1.957178
      85A      1.962513    86A      1.972037    87A      1.976055
      88A      2.019904    89A      2.085555    90A      2.115614
      91A      2.121605    92A      2.139153    93A      2.292662
      94A      2.303565    95A      2.311857    96A      2.320016
      97A      2.442821    98A      2.447621    99A      2.462415
     100A      2.482116   101A      2.556258   102A      2.565244
     103A      2.574583   104A      2.585965   105A      2.761458
     106A      2.767651   107A      2.790245   108A      2.795244
     109A      2.841994   110A      2.845021   111A      2.853835
     112A      2.872199   113A      2.939712   114A      2.949619
     115A      2.961807   116A      2.977630

    Final Occupation by Irrep:
              A
    DOCC [    18 ]

  @RHF Final Energy:  -158.46587520827683

   => Energetics <=

    Nuclear Repulsion Energy =            121.7930543557840082
    One-Electron Energy =                -452.6918268059599768
    Two-Electron Energy =                 172.4328972418991270
    Total Energy =                       -158.4658752082768274

Computation Completed

Properties will be evaluated at   0.000000,   0.000000,   0.000000 [a0]

Properties computed using the SCF density matrix

  Nuclear Dipole Moment: [e a0]
     X:     0.1042      Y:     0.0109      Z:     0.0661

  Electronic Dipole Moment: [e a0]
     X:    -0.0875      Y:     0.0053      Z:    -0.0599

  Dipole Moment: [e a0]
     X:     0.0166      Y:     0.0161      Z:     0.0062     Total:     0.0240

  Dipole Moment: [D]
     X:     0.0423      Y:     0.0410      Z:     0.0157     Total:     0.0609

*** tstop() called on ds3 at Tue Apr 28 07:58:12 2020
Module time:
	user time   =       7.29 seconds =       0.12 minutes
	system time =       2.66 seconds =       0.04 minutes
	total time  =         16 seconds =       0.27 minutes
Total time:
	user time   =       7.29 seconds =       0.12 minutes
	system time =       2.66 seconds =       0.04 minutes
	total time  =         16 seconds =       0.27 minutes
                                     G D M A

                                 by Anthony Stone

                           version 2.2.06, 22 June 2011

               Distributed Multipoles from Gaussian wavefunctions

Starting at 7:58:12 on 28 Apr 2020

Using SCF density matrix from file ./SSI/SSI-104VAL-108ILE-1-dimer.test.8022.fchk

                         Distributed Multipole Analysis

Standard DMA

Positions and radii in angstrom
Multipole moments in atomic units, ea_0^k for rank k

C          x =  1.636917  y = -0.563743  z = -0.275981 angstrom
           Maximum rank =  0   Radius =  0.650 angstrom
                   Q00  =  -0.250797

C          x =  2.102917  y = -1.593743  z = -1.320981 angstrom
           Maximum rank =  0   Radius =  0.650 angstrom
                   Q00  =  -0.230903

H          x =  1.130917  y = -1.061743  z =  0.554019 angstrom
           Maximum rank =  0   Radius =  0.325 angstrom
                   Q00  =   0.078749

H          x =  2.504917  y = -0.026743  z =  0.105019 angstrom
           Maximum rank =  0   Radius =  0.325 angstrom
                   Q00  =   0.078995

H          x =  0.968917  y =  0.169257  z = -0.727981 angstrom
           Maximum rank =  0   Radius =  0.325 angstrom
                   Q00  =   0.083872

H          x =  2.478917  y = -1.048743  z = -2.183981 angstrom
           Maximum rank =  0   Radius =  0.325 angstrom
                   Q00  =   0.079417

H          x =  1.270527  y = -2.239795  z = -1.636811 angstrom
           Maximum rank =  0   Radius =  0.325 angstrom
                   Q00  =   0.081226

H          x =  2.929037  y = -2.185879  z = -0.900381 angstrom
           Maximum rank =  0   Radius =  0.325 angstrom
                   Q00  =   0.079394

C          x = -1.346083  y =  1.602257  z =  0.622019 angstrom
           Maximum rank =  0   Radius =  0.650 angstrom
                   Q00  =  -0.234772

C          x = -2.403083  y =  0.554257  z =  0.969019 angstrom
           Maximum rank =  0   Radius =  0.650 angstrom
                   Q00  =  -0.239131

H          x = -1.708083  y =  2.606257  z =  0.835019 angstrom
           Maximum rank =  0   Radius =  0.325 angstrom
                   Q00  =   0.078222

H          x = -0.453083  y =  1.421257  z =  1.221019 angstrom
           Maximum rank =  0   Radius =  0.325 angstrom
                   Q00  =   0.082098

H          x = -1.087083  y =  1.529257  z = -0.433981 angstrom
           Maximum rank =  0   Radius =  0.325 angstrom
                   Q00  =   0.078157

H          x = -2.661083  y =  0.657257  z =  2.024019 angstrom
           Maximum rank =  0   Radius =  0.325 angstrom
                   Q00  =   0.076542

H          x = -1.940083  y = -0.423743  z =  0.846019 angstrom
           Maximum rank =  0   Radius =  0.325 angstrom
                   Q00  =   0.076650

H          x = -3.322723  y =  0.614948  z =  0.368539 angstrom
           Maximum rank =  0   Radius =  0.325 angstrom
                   Q00  =   0.082282

Total multipoles referred to origin at
           x =   0.000000,  y =    0.000000,  z =    0.000000 angstrom
                   Q00  =  -0.000000

Finished at 7:58:12 on 28 Apr 2020

  DMA results are available in the Python driver through the
	  variable('DMA DISTRIBUTED MULTIPOLES')
  and
	  variable('DMA TOTAL MULTIPOLES')
  commands.

    Psi4 stopped on: Tuesday, 28 April 2020 07:58AM
    Psi4 wall time for execution: 0:00:16.23

*** Psi4 exiting successfully. Buy a developer a beer!
