                               Psi4 1.3.2 release

  ==> Input File <==

--------------------------------------------------------------------------
import numpy as np
set {scf_type pk
basis cc-pvdz
d_convergence 10
gdma_switch   0
gdma_limit    0
gdma_origin   [ 0.0,  0.0,  0.0 ]
}
molecule test {
    units Angstrom
    0 1
    --
    0 1
    C                0.965467320811103     1.071524599094195     2.194248476001266
    C               -0.538532679188897     0.892524599094195     2.128248476001266
    O               -1.079532679188897     0.498524599094195     1.094248476001266
    N               -1.226532679188897     1.159524599094195     3.229248476001266
    H                1.264467320811103     1.455524599094195     3.168248476001266
    H                1.247467320811103     1.819524599094195     1.453248476001266
    H               -2.227532679188897     1.037524599094195     3.206248476001266
    H               -0.757532679188897     1.371524599094195     4.104248476001266
    H                1.500903320811103     0.137034599094195     1.970548476001266
    C                1.263467320811103    -0.922475400905805    -3.405751523998735
    C                0.448467320811103    -0.967475400905805    -2.122751523998734
    O               -0.090532679188897    -1.999475400905805    -1.742751523998734
    N                0.307467320811103     0.176524599094195    -1.474751523998734
    H               -0.271532679188897     0.183524599094195    -0.639751523998734
    H                0.723467320811103     1.025524599094195    -1.826751523998734
    H                2.038467320811103    -0.162475400905805    -3.292751523998734
    H                0.605467320811103    -0.613475400905805    -4.218751523998734
    H                1.748810320811103    -1.878865400905805    -3.650209523998734

}
e, wfn = energy('scf', return_wfn=True)
gdma(wfn)
dmavals = variable('DMA DISTRIBUTED MULTIPOLES')
charges = np.array(dmavals)
print(charges)
np.save('SSI-074GLN-094ASN-1-dimer.npy', np.array(charges))--------------------------------------------------------------------------

*** tstart() called on ds3
*** at Tue Apr 28 14:45:11 2020

   => Loading Basis Set <=

    Name: CC-PVDZ
    Role: ORBITAL
    Keyword: BASIS
    atoms 1-2, 10-11 entry C          line   138 file /theoryfs2/ds/metcalf/miniconda2/envs/tf2gpu/share/psi4/basis/cc-pvdz.gbs
    atoms 3, 12      entry O          line   198 file /theoryfs2/ds/metcalf/miniconda2/envs/tf2gpu/share/psi4/basis/cc-pvdz.gbs
    atoms 4, 13      entry N          line   168 file /theoryfs2/ds/metcalf/miniconda2/envs/tf2gpu/share/psi4/basis/cc-pvdz.gbs
    atoms 5-9, 14-18 entry H          line    22 file /theoryfs2/ds/metcalf/miniconda2/envs/tf2gpu/share/psi4/basis/cc-pvdz.gbs

         ---------------------------------------------------------
                                   SCF
               by Justin Turney, Rob Parrish, Andy Simmonett
                          and Daniel G. A. Smith
                              RHF Reference
                        1 Threads,    500 MiB Core
         ---------------------------------------------------------

  ==> Geometry <==

    Molecular point group: c1
    Full point group: C1

    Geometry (in Angstrom), charge = 0, multiplicity = 1:

       Center              X                  Y                   Z               Mass
    ------------   -----------------  -----------------  -----------------  -----------------
         C            0.965467320811     1.071524599094     2.194248476001    12.000000000000
         C           -0.538532679189     0.892524599094     2.128248476001    12.000000000000
         O           -1.079532679189     0.498524599094     1.094248476001    15.994914619570
         N           -1.226532679189     1.159524599094     3.229248476001    14.003074004430
         H            1.264467320811     1.455524599094     3.168248476001     1.007825032230
         H            1.247467320811     1.819524599094     1.453248476001     1.007825032230
         H           -2.227532679189     1.037524599094     3.206248476001     1.007825032230
         H           -0.757532679189     1.371524599094     4.104248476001     1.007825032230
         H            1.500903320811     0.137034599094     1.970548476001     1.007825032230
         C            1.263467320811    -0.922475400906    -3.405751523999    12.000000000000
         C            0.448467320811    -0.967475400906    -2.122751523999    12.000000000000
         O           -0.090532679189    -1.999475400906    -1.742751523999    15.994914619570
         N            0.307467320811     0.176524599094    -1.474751523999    14.003074004430
         H           -0.271532679189     0.183524599094    -0.639751523999     1.007825032230
         H            0.723467320811     1.025524599094    -1.826751523999     1.007825032230
         H            2.038467320811    -0.162475400906    -3.292751523999     1.007825032230
         H            0.605467320811    -0.613475400906    -4.218751523999     1.007825032230
         H            1.748810320811    -1.878865400906    -3.650209523999     1.007825032230

  Running in c1 symmetry.

  Rotational constants: A =      0.16379  B =      0.02089  C =      0.01976 [cm^-1]
  Rotational constants: A =   4910.39616  B =    626.40941  C =    592.50672 [MHz]
  Nuclear repulsion =  358.689172384168216

  Charge       = 0
  Multiplicity = 1
  Electrons    = 64
  Nalpha       = 32
  Nbeta        = 32

  ==> Algorithm <==

  SCF Algorithm Type is PK.
  DIIS enabled.
  MOM disabled.
  Fractional occupation disabled.
  Guess Type is SAD.
  Energy threshold   = 1.00e-06
  Density threshold  = 1.00e-10
  Integral threshold = 0.00e+00

  ==> Primary Basis <==

  Basis Set: CC-PVDZ
    Blend: CC-PVDZ
    Number of shells: 78
    Number of basis function: 162
    Number of Cartesian functions: 170
    Spherical Harmonics?: true
    Max angular momentum: 2

  ==> Pre-Iterations <==

   -------------------------------------------------------
    Irrep   Nso     Nmo     Nalpha   Nbeta   Ndocc  Nsocc
   -------------------------------------------------------
     A        162     162       0       0       0       0
   -------------------------------------------------------
    Total     162     162      32      32      32       0
   -------------------------------------------------------

  ==> Integral Setup <==

  Using integral reordering PK algorithm.
  Sizing the integral batches needed.
  Building batch lookup table.
   Calculation information:
      Number of atoms:                  18
      Number of AO shells:              78
      Number of primitives:            226
      Number of atomic orbitals:       170
      Number of basis functions:       162

      Integral cutoff                 1.00e-12
      Number of threads:                 1

	Batch   1 pq = [       0,    9405] index = [             0,44231715] size =     44231715
	Batch   2 pq = [    9405,   13203] index = [      44231715,87166206] size =     42934491
  Task number: 8
  Buffer size: 11059200
  Buffer per thread: 2
  We computed 3404239 shell quartets total.
  Whereas there are 4747821 unique shell quartets.

  ==> DiskJK: Disk-Based J/K Matrices <==

    J tasked:                  Yes
    K tasked:                  Yes
    wK tasked:                  No
    Memory [MiB]:              375
    Schwarz Cutoff:          1E-12

    OpenMP threads:              1

  Minimum eigenvalue in the overlap matrix is 4.3727640102E-03.
  Using Symmetric Orthogonalization.

  SCF Guess: Superposition of Atomic Densities via on-the-fly atomic UHF.

  ==> Iterations <==

                        Total Energy        Delta E     RMS |[F,P]|

   @RHF iter SAD:  -414.56044858847332   -4.14560e+02   0.00000e+00
   @RHF iter   1:  -415.70568297332250   -1.14523e+00   4.65842e-03 DIIS
   @RHF iter   2:  -415.91729187295630   -2.11609e-01   2.75915e-03 DIIS
   @RHF iter   3:  -415.98875044942190   -7.14586e-02   5.25755e-04 DIIS
   @RHF iter   4:  -415.99305201984629   -4.30157e-03   1.97565e-04 DIIS
   @RHF iter   5:  -415.99378261369446   -7.30594e-04   3.68667e-05 DIIS
   @RHF iter   6:  -415.99383203466681   -4.94210e-05   1.86990e-05 DIIS
   @RHF iter   7:  -415.99384157896139   -9.54429e-06   6.96298e-06 DIIS
   @RHF iter   8:  -415.99384346947591   -1.89051e-06   2.12539e-06 DIIS
   @RHF iter   9:  -415.99384365125309   -1.81777e-07   6.02599e-07 DIIS
   @RHF iter  10:  -415.99384365977619   -8.52310e-09   2.91943e-07 DIIS
   @RHF iter  11:  -415.99384366136877   -1.59258e-09   4.66260e-08 DIIS
   @RHF iter  12:  -415.99384366143761   -6.88374e-11   1.15646e-08 DIIS
   @RHF iter  13:  -415.99384366144153   -3.92220e-12   2.74676e-09 DIIS
   @RHF iter  14:  -415.99384366144250   -9.66338e-13   1.19499e-09 DIIS
   @RHF iter  15:  -415.99384366144375   -1.25056e-12   3.70170e-10 DIIS
   @RHF iter  16:  -415.99384366144193    1.81899e-12   1.39366e-10 DIIS
   @RHF iter  17:  -415.99384366144153    3.97904e-13   6.67650e-11 DIIS
  Energy and wave function converged.

  ==> Post-Iterations <==

    Orbital Energies [Eh]
    ---------------------

    Doubly Occupied:

       1A    -20.522304     2A    -20.475350     3A    -15.605100
       4A    -15.550062     5A    -11.366501     6A    -11.319810
       7A    -11.254606     8A    -11.224320     9A     -1.385664
      10A     -1.341794    11A     -1.232259    12A     -1.184585
      13A     -1.012962    14A     -0.977879    15A     -0.816230
      16A     -0.768678    17A     -0.741328    18A     -0.697279
      19A     -0.671421    20A     -0.629581    21A     -0.623818
      22A     -0.591890    23A     -0.587811    24A     -0.571283
      25A     -0.541013    26A     -0.537206    27A     -0.535811
      28A     -0.498510    29A     -0.429450    30A     -0.421722
      31A     -0.382075    32A     -0.372468

    Virtual:

      33A      0.154128    34A      0.179178    35A      0.188891
      36A      0.208605    37A      0.213993    38A      0.224358
      39A      0.243772    40A      0.266066    41A      0.270401
      42A      0.282226    43A      0.301725    44A      0.346149
      45A      0.381666    46A      0.403770    47A      0.477535
      48A      0.495673    49A      0.551071    50A      0.585134
      51A      0.614402    52A      0.650689    53A      0.662184
      54A      0.671511    55A      0.679964    56A      0.699721
      57A      0.719288    58A      0.727559    59A      0.732795
      60A      0.751910    61A      0.771422    62A      0.786576
      63A      0.828631    64A      0.853563    65A      0.860439
      66A      0.879471    67A      0.882731    68A      0.899767
      69A      0.907230    70A      0.923889    71A      0.947513
      72A      0.968932    73A      0.991864    74A      0.995562
      75A      1.039178    76A      1.046719    77A      1.073082
      78A      1.092465    79A      1.112761    80A      1.135100
      81A      1.150662    82A      1.218552    83A      1.309148
      84A      1.334675    85A      1.367747    86A      1.376255
      87A      1.382787    88A      1.391309    89A      1.414184
      90A      1.419797    91A      1.428708    92A      1.449942
      93A      1.480146    94A      1.489625    95A      1.506625
      96A      1.590720    97A      1.613595    98A      1.653259
      99A      1.668885   100A      1.675177   101A      1.694850
     102A      1.754820   103A      1.809717   104A      1.839058
     105A      1.853568   106A      1.870275   107A      1.874156
     108A      1.885567   109A      1.905980   110A      1.911008
     111A      1.920662   112A      1.924539   113A      1.940687
     114A      1.968537   115A      1.990812   116A      2.005996
     117A      2.028590   118A      2.056637   119A      2.089270
     120A      2.098881   121A      2.204331   122A      2.208598
     123A      2.219515   124A      2.227384   125A      2.300904
     126A      2.307976   127A      2.381142   128A      2.399363
     129A      2.439957   130A      2.466584   131A      2.496014
     132A      2.512482   133A      2.532198   134A      2.555551
     135A      2.564829   136A      2.621981   137A      2.625650
     138A      2.662188   139A      2.728642   140A      2.753392
     141A      2.769175   142A      2.769988   143A      2.792111
     144A      2.813628   145A      2.834812   146A      2.894200
     147A      2.962200   148A      3.015344   149A      3.085379
     150A      3.108743   151A      3.122976   152A      3.164431
     153A      3.258262   154A      3.342069   155A      3.489737
     156A      3.495744   157A      3.532429   158A      3.576113
     159A      3.860425   160A      3.895997   161A      3.912605
     162A      3.944240

    Final Occupation by Irrep:
              A
    DOCC [    32 ]

  @RHF Final Energy:  -415.99384366144153

   => Energetics <=

    Nuclear Repulsion Energy =            358.6891723841682165
    One-Electron Energy =               -1279.6244950655172943
    Two-Electron Energy =                 504.9414790199076037
    Total Energy =                       -415.9938436614415309

Computation Completed

Properties will be evaluated at   0.000000,   0.000000,   0.000000 [a0]

Properties computed using the SCF density matrix

  Nuclear Dipole Moment: [e a0]
     X:     5.5023      Y:     4.0907      Z:     0.2490

  Electronic Dipole Moment: [e a0]
     X:    -4.6251      Y:    -1.9413      Z:     1.4360

  Dipole Moment: [e a0]
     X:     0.8772      Y:     2.1494      Z:     1.6850     Total:     2.8685

  Dipole Moment: [D]
     X:     2.2297      Y:     5.4632      Z:     4.2827     Total:     7.2911

*** tstop() called on ds3 at Tue Apr 28 14:45:59 2020
Module time:
	user time   =      27.61 seconds =       0.46 minutes
	system time =      13.31 seconds =       0.22 minutes
	total time  =         48 seconds =       0.80 minutes
Total time:
	user time   =      27.61 seconds =       0.46 minutes
	system time =      13.31 seconds =       0.22 minutes
	total time  =         48 seconds =       0.80 minutes
                                     G D M A

                                 by Anthony Stone

                           version 2.2.06, 22 June 2011

               Distributed Multipoles from Gaussian wavefunctions

Starting at 14:45:59 on 28 Apr 2020

Using SCF density matrix from file ./SSI/SSI-074GLN-094ASN-1-dimer.test.8591.fchk

                         Distributed Multipole Analysis

Standard DMA

Positions and radii in angstrom
Multipole moments in atomic units, ea_0^k for rank k

C          x =  0.965467  y =  1.071525  z =  2.194248 angstrom
           Maximum rank =  0   Radius =  0.650 angstrom
                   Q00  =  -0.269799

C          x = -0.538533  y =  0.892525  z =  2.128248 angstrom
           Maximum rank =  0   Radius =  0.650 angstrom
                   Q00  =   0.814945

O          x = -1.079533  y =  0.498525  z =  1.094248 angstrom
           Maximum rank =  0   Radius =  0.650 angstrom
                   Q00  =  -0.785234

N          x = -1.226533  y =  1.159525  z =  3.229248 angstrom
           Maximum rank =  0   Radius =  0.650 angstrom
                   Q00  =  -0.534681

H          x =  1.264467  y =  1.455525  z =  3.168248 angstrom
           Maximum rank =  0   Radius =  0.325 angstrom
                   Q00  =   0.078867

H          x =  1.247467  y =  1.819525  z =  1.453248 angstrom
           Maximum rank =  0   Radius =  0.325 angstrom
                   Q00  =   0.130245

H          x = -2.227533  y =  1.037525  z =  3.206248 angstrom
           Maximum rank =  0   Radius =  0.325 angstrom
                   Q00  =   0.226217

H          x = -0.757533  y =  1.371525  z =  4.104248 angstrom
           Maximum rank =  0   Radius =  0.325 angstrom
                   Q00  =   0.215712

H          x =  1.500903  y =  0.137035  z =  1.970548 angstrom
           Maximum rank =  0   Radius =  0.325 angstrom
                   Q00  =   0.144164

C          x =  1.263467  y = -0.922475  z = -3.405752 angstrom
           Maximum rank =  0   Radius =  0.650 angstrom
                   Q00  =  -0.261457

C          x =  0.448467  y = -0.967475  z = -2.122752 angstrom
           Maximum rank =  0   Radius =  0.650 angstrom
                   Q00  =   0.819443

O          x = -0.090533  y = -1.999475  z = -1.742752 angstrom
           Maximum rank =  0   Radius =  0.650 angstrom
                   Q00  =  -0.796294

N          x =  0.307467  y =  0.176525  z = -1.474752 angstrom
           Maximum rank =  0   Radius =  0.650 angstrom
                   Q00  =  -0.564517

H          x = -0.271533  y =  0.183525  z = -0.639752 angstrom
           Maximum rank =  0   Radius =  0.325 angstrom
                   Q00  =   0.278632

H          x =  0.723467  y =  1.025525  z = -1.826752 angstrom
           Maximum rank =  0   Radius =  0.325 angstrom
                   Q00  =   0.186455

H          x =  2.038467  y = -0.162475  z = -3.292752 angstrom
           Maximum rank =  0   Radius =  0.325 angstrom
                   Q00  =   0.070654

H          x =  0.605467  y = -0.613475  z = -4.218752 angstrom
           Maximum rank =  0   Radius =  0.325 angstrom
                   Q00  =   0.122131

H          x =  1.748810  y = -1.878865  z = -3.650210 angstrom
           Maximum rank =  0   Radius =  0.325 angstrom
                   Q00  =   0.124517

Total multipoles referred to origin at
           x =   0.000000,  y =    0.000000,  z =    0.000000 angstrom
                   Q00  =  -0.000000

Finished at 14:45:59 on 28 Apr 2020

  DMA results are available in the Python driver through the
	  variable('DMA DISTRIBUTED MULTIPOLES')
  and
	  variable('DMA TOTAL MULTIPOLES')
  commands.

    Psi4 stopped on: Tuesday, 28 April 2020 02:45PM
    Psi4 wall time for execution: 0:00:48.70

*** Psi4 exiting successfully. Buy a developer a beer!
