                               Psi4 1.3.2 release

  ==> Input File <==

--------------------------------------------------------------------------
import numpy as np
set {scf_type pk
basis cc-pvdz
d_convergence 10
gdma_switch   0
gdma_limit    0
gdma_origin   [ 0.0,  0.0,  0.0 ]
}
molecule test {
    units Angstrom
    0 1
    --
    0 1
    C               -0.616251965537511    -1.941647632207308     2.533619463562895
    C               -0.483251965537511    -0.293647632207308     0.637619463562895
    C               -0.747251965537511    -1.588647632207308     1.074619463562895
    C               -0.612251965537511     0.042352367792691    -0.704380536437105
    C               -1.138251965537511    -2.546647632207309     0.139619463562895
    C               -1.010251965537512    -0.913647632207308    -1.624380536437105
    C               -1.278251965537512    -2.214647632207309    -1.204380536437105
    O               -1.119251965537511    -0.562647632207309    -2.938380536437105
    H               -0.183251965537511     0.459352367792691     1.351619463562895
    H               -0.403251965537511     1.043352367792691    -1.044380536437105
    H                0.122748034462489    -1.286647632207308     2.995619463562896
    H               -0.242251965537511    -2.962647632207309     2.611619463562895
    H               -1.347251965537512    -3.556647632207309     0.463619463562895
    H               -1.589251965537512    -2.963647632207309    -1.918380536437105
    H               -1.404251965537511    -1.303647632207309    -3.481380536437105
    H               -1.568377965537512    -1.868795632207308     3.079649463562895
    C                1.952748034462488     2.557352367792691     0.844619463562895
    C                1.255748034462488     3.565352367792691    -0.083380536437105
    C                3.262748034462489     3.048352367792691     1.469619463562895
    H                1.277748034462489     2.268352367792692     1.648619463562895
    H                2.160748034462489     1.656352367792691     0.269619463562895
    H                0.349748034462489     3.095352367792691    -0.466380536437105
    H                3.080748034462489     3.895352367792691     2.127619463562896
    H                3.688748034462489     2.241352367792691     2.064619463562895
    H                3.986748034462489     3.318352367792691     0.701619463562895
    H                0.971647034462489     4.475768367792692     0.464734163562895
    H                1.891133234462488     3.817190367792691    -0.945275536437105

}
e, wfn = energy('scf', return_wfn=True)
gdma(wfn)
dmavals = variable('DMA DISTRIBUTED MULTIPOLES')
charges = np.array(dmavals)
print(charges)
np.save('SSI-062TYR-084ILE-1-dimer.npy', np.array(charges))--------------------------------------------------------------------------

*** tstart() called on ds3
*** at Mon Apr 27 13:42:45 2020

   => Loading Basis Set <=

    Name: CC-PVDZ
    Role: ORBITAL
    Keyword: BASIS
    atoms 1-7, 17-19  entry C          line   138 file /theoryfs2/ds/metcalf/miniconda2/envs/tf2gpu/share/psi4/basis/cc-pvdz.gbs
    atoms 8           entry O          line   198 file /theoryfs2/ds/metcalf/miniconda2/envs/tf2gpu/share/psi4/basis/cc-pvdz.gbs
    atoms 9-16, 20-27 entry H          line    22 file /theoryfs2/ds/metcalf/miniconda2/envs/tf2gpu/share/psi4/basis/cc-pvdz.gbs

         ---------------------------------------------------------
                                   SCF
               by Justin Turney, Rob Parrish, Andy Simmonett
                          and Daniel G. A. Smith
                              RHF Reference
                        1 Threads,    500 MiB Core
         ---------------------------------------------------------

  ==> Geometry <==

    Molecular point group: c1
    Full point group: C1

    Geometry (in Angstrom), charge = 0, multiplicity = 1:

       Center              X                  Y                   Z               Mass
    ------------   -----------------  -----------------  -----------------  -----------------
         C           -0.616251965538    -1.941647632207     2.533619463563    12.000000000000
         C           -0.483251965538    -0.293647632207     0.637619463563    12.000000000000
         C           -0.747251965538    -1.588647632207     1.074619463563    12.000000000000
         C           -0.612251965538     0.042352367793    -0.704380536437    12.000000000000
         C           -1.138251965538    -2.546647632207     0.139619463563    12.000000000000
         C           -1.010251965538    -0.913647632207    -1.624380536437    12.000000000000
         C           -1.278251965538    -2.214647632207    -1.204380536437    12.000000000000
         O           -1.119251965538    -0.562647632207    -2.938380536437    15.994914619570
         H           -0.183251965538     0.459352367793     1.351619463563     1.007825032230
         H           -0.403251965538     1.043352367793    -1.044380536437     1.007825032230
         H            0.122748034462    -1.286647632207     2.995619463563     1.007825032230
         H           -0.242251965538    -2.962647632207     2.611619463563     1.007825032230
         H           -1.347251965538    -3.556647632207     0.463619463563     1.007825032230
         H           -1.589251965538    -2.963647632207    -1.918380536437     1.007825032230
         H           -1.404251965538    -1.303647632207    -3.481380536437     1.007825032230
         H           -1.568377965538    -1.868795632207     3.079649463563     1.007825032230
         C            1.952748034462     2.557352367793     0.844619463563    12.000000000000
         C            1.255748034462     3.565352367793    -0.083380536437    12.000000000000
         C            3.262748034462     3.048352367793     1.469619463563    12.000000000000
         H            1.277748034462     2.268352367793     1.648619463563     1.007825032230
         H            2.160748034462     1.656352367793     0.269619463563     1.007825032230
         H            0.349748034462     3.095352367793    -0.466380536437     1.007825032230
         H            3.080748034462     3.895352367793     2.127619463563     1.007825032230
         H            3.688748034462     2.241352367793     2.064619463563     1.007825032230
         H            3.986748034462     3.318352367793     0.701619463563     1.007825032230
         H            0.971647034462     4.475768367793     0.464734163563     1.007825032230
         H            1.891133234462     3.817190367793    -0.945275536437     1.007825032230

  Running in c1 symmetry.

  Rotational constants: A =      0.04161  B =      0.01619  C =      0.01222 [cm^-1]
  Rotational constants: A =   1247.43272  B =    485.37412  C =    366.26718 [MHz]
  Nuclear repulsion =  569.625222481348260

  Charge       = 0
  Multiplicity = 1
  Electrons    = 84
  Nalpha       = 42
  Nbeta        = 42

  ==> Algorithm <==

  SCF Algorithm Type is PK.
  DIIS enabled.
  MOM disabled.
  Fractional occupation disabled.
  Guess Type is SAD.
  Energy threshold   = 1.00e-06
  Density threshold  = 1.00e-10
  Integral threshold = 0.00e+00

  ==> Primary Basis <==

  Basis Set: CC-PVDZ
    Blend: CC-PVDZ
    Number of shells: 114
    Number of basis function: 234
    Number of Cartesian functions: 245
    Spherical Harmonics?: true
    Max angular momentum: 2

  ==> Pre-Iterations <==

   -------------------------------------------------------
    Irrep   Nso     Nmo     Nalpha   Nbeta   Ndocc  Nsocc
   -------------------------------------------------------
     A        234     234       0       0       0       0
   -------------------------------------------------------
    Total     234     234      42      42      42       0
   -------------------------------------------------------

  ==> Integral Setup <==

  Using integral reordering PK algorithm.
  Sizing the integral batches needed.
  Building batch lookup table.
   Calculation information:
      Number of atoms:                  27
      Number of AO shells:             114
      Number of primitives:            322
      Number of atomic orbitals:       245
      Number of basis functions:       234

      Integral cutoff                 1.00e-12
      Number of threads:                 1

	Batch   1 pq = [       0,    9405] index = [             0,44231715] size =     44231715
	Batch   2 pq = [    9405,   13301] index = [      44231715,88464951] size =     44233236
	Batch   3 pq = [   13301,   16290] index = [      88464951,132690195] size =     44225244
	Batch   4 pq = [   16290,   18810] index = [     132690195,176917455] size =     44227260
	Batch   5 pq = [   18810,   21030] index = [     176917455,221140965] size =     44223510
	Batch   6 pq = [   21030,   23037] index = [     221140965,265363203] size =     44222238
	Batch   7 pq = [   23037,   24883] index = [     265363203,309594286] size =     44231083
	Batch   8 pq = [   24883,   26601] index = [     309594286,353819901] size =     44225615
	Batch   9 pq = [   26601,   27495] index = [     353819901,378001260] size =     24181359
  Task number: 35
  Buffer size: 11059200
  Buffer per thread: 2
  We computed 17753311 shell quartets total.
  Whereas there are 21487290 unique shell quartets.

  ==> DiskJK: Disk-Based J/K Matrices <==

    J tasked:                  Yes
    K tasked:                  Yes
    wK tasked:                  No
    Memory [MiB]:              375
    Schwarz Cutoff:          1E-12

    OpenMP threads:              1

  Minimum eigenvalue in the overlap matrix is 3.0693587206E-04.
  Using Symmetric Orthogonalization.

  SCF Guess: Superposition of Atomic Densities via on-the-fly atomic UHF.

  ==> Iterations <==

                        Total Energy        Delta E     RMS |[F,P]|

   @RHF iter SAD:  -461.70680192139719   -4.61707e+02   0.00000e+00
   @RHF iter   1:  -462.60768378839907   -9.00882e-01   2.82104e-03 DIIS
   @RHF iter   2:  -462.85102995435187   -2.43346e-01   1.19758e-03 DIIS
   @RHF iter   3:  -462.89071204191839   -3.96821e-02   2.70308e-04 DIIS
   @RHF iter   4:  -462.89398411918876   -3.27208e-03   1.06391e-04 DIIS
   @RHF iter   5:  -462.89434504975890   -3.60931e-04   2.01774e-05 DIIS
   @RHF iter   6:  -462.89436429497903   -1.92452e-05   6.25978e-06 DIIS
   @RHF iter   7:  -462.89436620718357   -1.91220e-06   1.85545e-06 DIIS
   @RHF iter   8:  -462.89436643831971   -2.31136e-07   7.01285e-07 DIIS
   @RHF iter   9:  -462.89436647494722   -3.66275e-08   2.92304e-07 DIIS
   @RHF iter  10:  -462.89436648196613   -7.01891e-09   1.20394e-07 DIIS
   @RHF iter  11:  -462.89436648414551   -2.17938e-09   5.37051e-08 DIIS
   @RHF iter  12:  -462.89436648460327   -4.57760e-10   2.52896e-08 DIIS
   @RHF iter  13:  -462.89436648467358   -7.03153e-11   8.22590e-09 DIIS
   @RHF iter  14:  -462.89436648468450   -1.09139e-11   1.91315e-09 DIIS
   @RHF iter  15:  -462.89436648468308    1.42109e-12   6.73464e-10 DIIS
   @RHF iter  16:  -462.89436648468177    1.30740e-12   2.22810e-10 DIIS
   @RHF iter  17:  -462.89436648468160    1.70530e-13   9.56103e-11 DIIS
  Energy and wave function converged.

  ==> Post-Iterations <==

    Orbital Energies [Eh]
    ---------------------

    Doubly Occupied:

       1A    -20.582705     2A    -11.297698     3A    -11.238240
       4A    -11.235547     5A    -11.233322     6A    -11.231700
       7A    -11.227417     8A    -11.227099     9A    -11.219911
      10A    -11.217876    11A    -11.214294    12A     -1.398941
      13A     -1.151248    14A     -1.050019    15A     -1.037427
      16A     -1.017972    17A     -0.926188    18A     -0.925866
      19A     -0.844647    20A     -0.801588    21A     -0.796374
      22A     -0.731486    23A     -0.667546    24A     -0.641029
      25A     -0.623837    26A     -0.606594    27A     -0.596525
      28A     -0.586098    29A     -0.582049    30A     -0.570273
      31A     -0.567315    32A     -0.548985    33A     -0.535230
      34A     -0.526324    35A     -0.497828    36A     -0.485898
      37A     -0.470326    38A     -0.469656    39A     -0.466676
      40A     -0.464990    41A     -0.338358    42A     -0.301296

    Virtual:

      43A      0.131216    44A      0.155533    45A      0.174280
      46A      0.180707    47A      0.193022    48A      0.214508
      49A      0.218248    50A      0.229829    51A      0.238071
      52A      0.258634    53A      0.262622    54A      0.273045
      55A      0.282931    56A      0.284614    57A      0.288220
      58A      0.302096    59A      0.342713    60A      0.353613
      61A      0.362668    62A      0.375372    63A      0.399435
      64A      0.422333    65A      0.435723    66A      0.461008
      67A      0.490569    68A      0.502328    69A      0.513553
      70A      0.578737    71A      0.603866    72A      0.607493
      73A      0.617883    74A      0.632489    75A      0.633717
      76A      0.654177    77A      0.672599    78A      0.682616
      79A      0.689580    80A      0.700850    81A      0.712127
      82A      0.730504    83A      0.741372    84A      0.762069
      85A      0.768404    86A      0.777040    87A      0.789736
      88A      0.795723    89A      0.801298    90A      0.813840
      91A      0.834594    92A      0.843480    93A      0.848861
      94A      0.867553    95A      0.875590    96A      0.886655
      97A      0.893054    98A      0.897744    99A      0.901157
     100A      0.903601   101A      0.908510   102A      0.914200
     103A      0.923717   104A      0.929448   105A      0.937459
     106A      0.944232   107A      0.951393   108A      0.953567
     109A      0.976145   110A      0.996975   111A      1.004315
     112A      1.030769   113A      1.054576   114A      1.057143
     115A      1.109040   116A      1.128396   117A      1.141320
     118A      1.148143   119A      1.170872   120A      1.178084
     121A      1.214704   122A      1.227324   123A      1.246995
     124A      1.254526   125A      1.281747   126A      1.288610
     127A      1.297089   128A      1.311553   129A      1.332601
     130A      1.364523   131A      1.375318   132A      1.382450
     133A      1.409103   134A      1.464976   135A      1.480066
     136A      1.492553   137A      1.505453   138A      1.525931
     139A      1.545343   140A      1.563221   141A      1.615749
     142A      1.620382   143A      1.647396   144A      1.681967
     145A      1.688820   146A      1.694433   147A      1.700358
     148A      1.707808   149A      1.735365   150A      1.750180
     151A      1.784472   152A      1.805045   153A      1.808339
     154A      1.864417   155A      1.875519   156A      1.877980
     157A      1.887188   158A      1.893607   159A      1.901347
     160A      1.907592   161A      1.908115   162A      1.915149
     163A      1.922284   164A      1.932383   165A      1.947289
     166A      1.950163   167A      1.966792   168A      1.970987
     169A      1.976315   170A      1.980908   171A      1.983520
     172A      1.992092   173A      1.995431   174A      2.021367
     175A      2.045897   176A      2.053807   177A      2.054497
     178A      2.058764   179A      2.073791   180A      2.083832
     181A      2.128602   182A      2.142054   183A      2.153203
     184A      2.160770   185A      2.166137   186A      2.222375
     187A      2.234244   188A      2.271078   189A      2.280802
     190A      2.292607   191A      2.297377   192A      2.313292
     193A      2.329918   194A      2.348827   195A      2.367780
     196A      2.377932   197A      2.426341   198A      2.459104
     199A      2.482539   200A      2.493309   201A      2.502252
     202A      2.535103   203A      2.539558   204A      2.543222
     205A      2.584716   206A      2.606070   207A      2.614275
     208A      2.620813   209A      2.644843   210A      2.756683
     211A      2.763825   212A      2.765880   213A      2.778765
     214A      2.786972   215A      2.792319   216A      2.829988
     217A      2.837650   218A      2.848372   219A      2.903760
     220A      2.918122   221A      2.967553   222A      2.976230
     223A      2.986745   224A      3.011499   225A      3.061396
     226A      3.098319   227A      3.114585   228A      3.251161
     229A      3.294550   230A      3.347433   231A      3.577430
     232A      3.683112   233A      3.968065   234A      4.199175

    Final Occupation by Irrep:
              A
    DOCC [    42 ]

  @RHF Final Energy:  -462.89436648468160

   => Energetics <=

    Nuclear Repulsion Energy =            569.6252224813482599
    One-Electron Energy =               -1756.7303797644276528
    Two-Electron Energy =                 724.2107907983977384
    Total Energy =                       -462.8943664846815409

Computation Completed

Properties will be evaluated at   0.000000,   0.000000,   0.000000 [a0]

Properties computed using the SCF density matrix

  Nuclear Dipole Moment: [e a0]
     X:    10.1119      Y:    11.5551      Z:     9.2885

  Electronic Dipole Moment: [e a0]
     X:   -10.2483      Y:   -12.1404      Z:    -9.2361

  Dipole Moment: [e a0]
     X:    -0.1364      Y:    -0.5852      Z:     0.0524     Total:     0.6032

  Dipole Moment: [D]
     X:    -0.3466      Y:    -1.4875      Z:     0.1333     Total:     1.5332

*** tstop() called on ds3 at Mon Apr 27 13:45:57 2020
Module time:
	user time   =     139.97 seconds =       2.33 minutes
	system time =      61.20 seconds =       1.02 minutes
	total time  =        192 seconds =       3.20 minutes
Total time:
	user time   =     139.97 seconds =       2.33 minutes
	system time =      61.20 seconds =       1.02 minutes
	total time  =        192 seconds =       3.20 minutes
                                     G D M A

                                 by Anthony Stone

                           version 2.2.06, 22 June 2011

               Distributed Multipoles from Gaussian wavefunctions

Starting at 13:45:57 on 27 Apr 2020

Using SCF density matrix from file ./SSI/SSI-062TYR-084ILE-1-dimer.test.7583.fchk

                         Distributed Multipole Analysis

Standard DMA

Positions and radii in angstrom
Multipole moments in atomic units, ea_0^k for rank k

C          x = -0.616252  y = -1.941648  z =  2.533619 angstrom
           Maximum rank =  0   Radius =  0.650 angstrom
                   Q00  =  -0.191479

C          x = -0.483252  y = -0.293648  z =  0.637619 angstrom
           Maximum rank =  0   Radius =  0.650 angstrom
                   Q00  =   0.044889

C          x = -0.747252  y = -1.588648  z =  1.074619 angstrom
           Maximum rank =  0   Radius =  0.650 angstrom
                   Q00  =  -0.140537

C          x = -0.612252  y =  0.042352  z = -0.704381 angstrom
           Maximum rank =  0   Radius =  0.650 angstrom
                   Q00  =  -0.115441

C          x = -1.138252  y = -2.546648  z =  0.139619 angstrom
           Maximum rank =  0   Radius =  0.650 angstrom
                   Q00  =  -0.019691

C          x = -1.010252  y = -0.913648  z = -1.624381 angstrom
           Maximum rank =  0   Radius =  0.650 angstrom
                   Q00  =   0.322698

C          x = -1.278252  y = -2.214648  z = -1.204381 angstrom
           Maximum rank =  0   Radius =  0.650 angstrom
                   Q00  =  -0.194625

O          x = -1.119252  y = -0.562648  z = -2.938381 angstrom
           Maximum rank =  0   Radius =  0.650 angstrom
                   Q00  =  -0.676344

H          x = -0.183252  y =  0.459352  z =  1.351619 angstrom
           Maximum rank =  0   Radius =  0.325 angstrom
                   Q00  =   0.061624

H          x = -0.403252  y =  1.043352  z = -1.044381 angstrom
           Maximum rank =  0   Radius =  0.325 angstrom
                   Q00  =   0.069969

H          x =  0.122748  y = -1.286648  z =  2.995619 angstrom
           Maximum rank =  0   Radius =  0.325 angstrom
                   Q00  =   0.096348

H          x = -0.242252  y = -2.962648  z =  2.611619 angstrom
           Maximum rank =  0   Radius =  0.325 angstrom
                   Q00  =   0.095475

H          x = -1.347252  y = -3.556648  z =  0.463619 angstrom
           Maximum rank =  0   Radius =  0.325 angstrom
                   Q00  =   0.067613

H          x = -1.589252  y = -2.963648  z = -1.918381 angstrom
           Maximum rank =  0   Radius =  0.325 angstrom
                   Q00  =   0.072753

H          x = -1.404252  y = -1.303648  z = -3.481381 angstrom
           Maximum rank =  0   Radius =  0.325 angstrom
                   Q00  =   0.403955

H          x = -1.568378  y = -1.868796  z =  3.079649 angstrom
           Maximum rank =  0   Radius =  0.325 angstrom
                   Q00  =   0.100178

C          x =  1.952748  y =  2.557352  z =  0.844619 angstrom
           Maximum rank =  0   Radius =  0.650 angstrom
                   Q00  =  -0.071134

C          x =  1.255748  y =  3.565352  z = -0.083381 angstrom
           Maximum rank =  0   Radius =  0.650 angstrom
                   Q00  =  -0.256837

C          x =  3.262748  y =  3.048352  z =  1.469619 angstrom
           Maximum rank =  0   Radius =  0.650 angstrom
                   Q00  =  -0.243284

H          x =  1.277748  y =  2.268352  z =  1.648619 angstrom
           Maximum rank =  0   Radius =  0.325 angstrom
                   Q00  =   0.041172

H          x =  2.160748  y =  1.656352  z =  0.269619 angstrom
           Maximum rank =  0   Radius =  0.325 angstrom
                   Q00  =   0.052168

H          x =  0.349748  y =  3.095352  z = -0.466381 angstrom
           Maximum rank =  0   Radius =  0.325 angstrom
                   Q00  =   0.080633

H          x =  3.080748  y =  3.895352  z =  2.127619 angstrom
           Maximum rank =  0   Radius =  0.325 angstrom
                   Q00  =   0.077409

H          x =  3.688748  y =  2.241352  z =  2.064619 angstrom
           Maximum rank =  0   Radius =  0.325 angstrom
                   Q00  =   0.083032

H          x =  3.986748  y =  3.318352  z =  0.701619 angstrom
           Maximum rank =  0   Radius =  0.325 angstrom
                   Q00  =   0.079789

H          x =  0.971647  y =  4.475768  z =  0.464734 angstrom
           Maximum rank =  0   Radius =  0.325 angstrom
                   Q00  =   0.077745

H          x =  1.891133  y =  3.817190  z = -0.945276 angstrom
           Maximum rank =  0   Radius =  0.325 angstrom
                   Q00  =   0.081920

Total multipoles referred to origin at
           x =   0.000000,  y =    0.000000,  z =    0.000000 angstrom
                   Q00  =  -0.000000

Finished at 13:45:57 on 27 Apr 2020

  DMA results are available in the Python driver through the
	  variable('DMA DISTRIBUTED MULTIPOLES')
  and
	  variable('DMA TOTAL MULTIPOLES')
  commands.

    Psi4 stopped on: Monday, 27 April 2020 01:45PM
    Psi4 wall time for execution: 0:03:11.63

*** Psi4 exiting successfully. Buy a developer a beer!
