                               Psi4 1.3.2 release

  ==> Input File <==

--------------------------------------------------------------------------
import numpy as np
set {scf_type pk
basis cc-pvdz
d_convergence 10
gdma_switch   0
gdma_limit    0
gdma_origin   [ 0.0,  0.0,  0.0 ]
}
molecule test {
    units Angstrom
    0 1
    --
    0 1
    C               -0.601596673200960    -0.730154584489238    -0.979371196948406
    C               -0.009596673200960    -1.985154584489238    -0.497371196948406
    C               -0.510596673200960    -0.755154584489238    -2.490371196948406
    H               -0.094596673200960     0.138845415510762    -0.567371196948406
    H               -1.651596673200959    -0.716154584489238    -0.689371196948406
    H                1.003403326799041    -1.774154584489238    -0.150371196948406
    H               -0.579596673200959    -2.398154584489239     0.332628803051594
    H               -1.491596673200959    -0.535154584489238    -2.915371196948406
    H                0.057015326799040    -2.700868584489239    -1.330031196948406
    H               -0.230814673200960    -1.791022584489238    -2.732651196948406
    H                0.200742326799040     0.003078115510762    -2.849651196948406
    C                0.711403326799041     0.977845415510762     1.895628803051594
    C                0.367403326799040     2.447845415510761     2.001628803051594
    H               -0.175596673200960     0.403845415510762     1.630628803051594
    H                1.489403326799040     0.829845415510762     1.145628803051594
    H                1.079403326799041     0.608845415510762     2.850628803051594
    H                1.219403326799041     2.977845415510762     2.416628803051594
    H               -0.491187673200960     2.588932415510762     2.674618803051594
    H                0.177410326799040     2.897375415510762     1.015818803051594

}
e, wfn = energy('scf', return_wfn=True)
gdma(wfn)
dmavals = variable('DMA DISTRIBUTED MULTIPOLES')
charges = np.array(dmavals)
print(charges)
np.save('SSI-046PRO-140ALA-1-dimer.npy', np.array(charges))--------------------------------------------------------------------------

*** tstart() called on ds3
*** at Sun Apr 26 19:12:47 2020

   => Loading Basis Set <=

    Name: CC-PVDZ
    Role: ORBITAL
    Keyword: BASIS
    atoms 1-3, 12-13  entry C          line   138 file /theoryfs2/ds/metcalf/miniconda2/envs/tf2gpu/share/psi4/basis/cc-pvdz.gbs
    atoms 4-11, 14-19 entry H          line    22 file /theoryfs2/ds/metcalf/miniconda2/envs/tf2gpu/share/psi4/basis/cc-pvdz.gbs

         ---------------------------------------------------------
                                   SCF
               by Justin Turney, Rob Parrish, Andy Simmonett
                          and Daniel G. A. Smith
                              RHF Reference
                        1 Threads,    500 MiB Core
         ---------------------------------------------------------

  ==> Geometry <==

    Molecular point group: c1
    Full point group: C1

    Geometry (in Angstrom), charge = 0, multiplicity = 1:

       Center              X                  Y                   Z               Mass
    ------------   -----------------  -----------------  -----------------  -----------------
         C           -0.601596673201    -0.730154584489    -0.979371196948    12.000000000000
         C           -0.009596673201    -1.985154584489    -0.497371196948    12.000000000000
         C           -0.510596673201    -0.755154584489    -2.490371196948    12.000000000000
         H           -0.094596673201     0.138845415511    -0.567371196948     1.007825032230
         H           -1.651596673201    -0.716154584489    -0.689371196948     1.007825032230
         H            1.003403326799    -1.774154584489    -0.150371196948     1.007825032230
         H           -0.579596673201    -2.398154584489     0.332628803052     1.007825032230
         H           -1.491596673201    -0.535154584489    -2.915371196948     1.007825032230
         H            0.057015326799    -2.700868584489    -1.330031196948     1.007825032230
         H           -0.230814673201    -1.791022584489    -2.732651196948     1.007825032230
         H            0.200742326799     0.003078115511    -2.849651196948     1.007825032230
         C            0.711403326799     0.977845415511     1.895628803052    12.000000000000
         C            0.367403326799     2.447845415511     2.001628803052    12.000000000000
         H           -0.175596673201     0.403845415511     1.630628803052     1.007825032230
         H            1.489403326799     0.829845415511     1.145628803052     1.007825032230
         H            1.079403326799     0.608845415511     2.850628803052     1.007825032230
         H            1.219403326799     2.977845415511     2.416628803052     1.007825032230
         H           -0.491187673201     2.588932415511     2.674618803052     1.007825032230
         H            0.177410326799     2.897375415511     1.015818803052     1.007825032230

  Running in c1 symmetry.

  Rotational constants: A =      0.24381  B =      0.04305  C =      0.03839 [cm^-1]
  Rotational constants: A =   7309.29298  B =   1290.46654  C =   1150.97835 [MHz]
  Nuclear repulsion =  182.072023218476147

  Charge       = 0
  Multiplicity = 1
  Electrons    = 44
  Nalpha       = 22
  Nbeta        = 22

  ==> Algorithm <==

  SCF Algorithm Type is PK.
  DIIS enabled.
  MOM disabled.
  Fractional occupation disabled.
  Guess Type is SAD.
  Energy threshold   = 1.00e-06
  Density threshold  = 1.00e-10
  Integral threshold = 0.00e+00

  ==> Primary Basis <==

  Basis Set: CC-PVDZ
    Blend: CC-PVDZ
    Number of shells: 72
    Number of basis function: 140
    Number of Cartesian functions: 145
    Spherical Harmonics?: true
    Max angular momentum: 2

  ==> Pre-Iterations <==

   -------------------------------------------------------
    Irrep   Nso     Nmo     Nalpha   Nbeta   Ndocc  Nsocc
   -------------------------------------------------------
     A        140     140       0       0       0       0
   -------------------------------------------------------
    Total     140     140      22      22      22       0
   -------------------------------------------------------

  ==> Integral Setup <==

  Using integral reordering PK algorithm.
  Sizing the integral batches needed.
  Building batch lookup table.
   Calculation information:
      Number of atoms:                  19
      Number of AO shells:              72
      Number of primitives:            180
      Number of atomic orbitals:       145
      Number of basis functions:       140

      Integral cutoff                 1.00e-12
      Number of threads:                 1

	Batch   1 pq = [       0,    9405] index = [             0,44231715] size =     44231715
	Batch   2 pq = [    9405,    9870] index = [      44231715,48713385] size =      4481670
  Task number: 5
  Buffer size: 11059200
  Buffer per thread: 2
  We computed 2918389 shell quartets total.
  Whereas there are 3454506 unique shell quartets.

  ==> DiskJK: Disk-Based J/K Matrices <==

    J tasked:                  Yes
    K tasked:                  Yes
    wK tasked:                  No
    Memory [MiB]:              375
    Schwarz Cutoff:          1E-12

    OpenMP threads:              1

  Minimum eigenvalue in the overlap matrix is 4.3506782374E-03.
  Using Symmetric Orthogonalization.

  SCF Guess: Superposition of Atomic Densities via on-the-fly atomic UHF.

  ==> Iterations <==

                        Total Energy        Delta E     RMS |[F,P]|

   @RHF iter SAD:  -196.62856465042771   -1.96629e+02   0.00000e+00
   @RHF iter   1:  -197.27538551328220   -6.46821e-01   3.94012e-03 DIIS
   @RHF iter   2:  -197.44246430682426   -1.67079e-01   1.73800e-03 DIIS
   @RHF iter   3:  -197.47398397694550   -3.15197e-02   3.33313e-04 DIIS
   @RHF iter   4:  -197.47627100685384   -2.28703e-03   5.21503e-05 DIIS
   @RHF iter   5:  -197.47631481329302   -4.38064e-05   1.58875e-05 DIIS
   @RHF iter   6:  -197.47631875761729   -3.94432e-06   2.60183e-06 DIIS
   @RHF iter   7:  -197.47631888345234   -1.25835e-07   5.16077e-07 DIIS
   @RHF iter   8:  -197.47631888841909   -4.96675e-09   1.23512e-07 DIIS
   @RHF iter   9:  -197.47631888870529   -2.86207e-10   3.51593e-08 DIIS
   @RHF iter  10:  -197.47631888873337   -2.80806e-11   7.03130e-09 DIIS
   @RHF iter  11:  -197.47631888873403   -6.53699e-13   1.40802e-09 DIIS
   @RHF iter  12:  -197.47631888873431   -2.84217e-13   3.07007e-10 DIIS
   @RHF iter  13:  -197.47631888873480   -4.83169e-13   7.11072e-11 DIIS
  Energy and wave function converged.

  ==> Post-Iterations <==

    Orbital Energies [Eh]
    ---------------------

    Doubly Occupied:

       1A    -11.218368     2A    -11.216002     3A    -11.210859
       4A    -11.207208     5A    -11.206440     6A     -1.072552
       7A     -1.023054     8A     -0.918106     9A     -0.837961
      10A     -0.795185    11A     -0.635514    12A     -0.618884
      13A     -0.602816    14A     -0.597005    15A     -0.535907
      16A     -0.525530    17A     -0.506345    18A     -0.491356
      19A     -0.487966    20A     -0.475306    21A     -0.459236
      22A     -0.450812

    Virtual:

      23A      0.173147    24A      0.197062    25A      0.206253
      26A      0.219140    27A      0.230359    28A      0.248426
      29A      0.261142    30A      0.269032    31A      0.275626
      32A      0.287494    33A      0.302523    34A      0.313368
      35A      0.331358    36A      0.361572    37A      0.397307
      38A      0.404131    39A      0.466370    40A      0.552508
      41A      0.570773    42A      0.599673    43A      0.616222
      44A      0.622459    45A      0.648539    46A      0.678008
      47A      0.687437    48A      0.711477    49A      0.741329
      50A      0.780603    51A      0.813162    52A      0.840150
      53A      0.863368    54A      0.873825    55A      0.884496
      56A      0.893041    57A      0.897858    58A      0.905047
      59A      0.913322    60A      0.915641    61A      0.921220
      62A      0.924165    63A      0.936469    64A      0.945427
      65A      0.953360    66A      0.964436    67A      1.003224
      68A      1.021278    69A      1.058519    70A      1.072804
      71A      1.122417    72A      1.166823    73A      1.210499
      74A      1.235843    75A      1.437181    76A      1.477805
      77A      1.485176    78A      1.500083    79A      1.524926
      80A      1.592331    81A      1.602315    82A      1.639492
      83A      1.654664    84A      1.683635    85A      1.698023
      86A      1.712587    87A      1.720917    88A      1.784866
      89A      1.858212    90A      1.868988    91A      1.874086
      92A      1.897051    93A      1.908533    94A      1.918638
      95A      1.935212    96A      1.939927    97A      1.950544
      98A      1.953676    99A      1.956180   100A      1.971951
     101A      1.981198   102A      1.986574   103A      2.010576
     104A      2.021131   105A      2.055800   106A      2.069199
     107A      2.077624   108A      2.104095   109A      2.150764
     110A      2.192913   111A      2.243269   112A      2.310643
     113A      2.314254   114A      2.321785   115A      2.323741
     116A      2.377052   117A      2.420172   118A      2.446045
     119A      2.453735   120A      2.473120   121A      2.495925
     122A      2.572997   123A      2.584570   124A      2.594353
     125A      2.673493   126A      2.733782   127A      2.761074
     128A      2.766077   129A      2.776391   130A      2.795510
     131A      2.801426   132A      2.828856   133A      2.854839
     134A      2.865860   135A      2.874398   136A      2.889645
     137A      2.934948   138A      2.970476   139A      2.988078
     140A      3.076693

    Final Occupation by Irrep:
              A
    DOCC [    22 ]

  @RHF Final Energy:  -197.47631888873480

   => Energetics <=

    Nuclear Repulsion Energy =            182.0720232184761471
    One-Electron Energy =                -624.9118579534226683
    Two-Electron Energy =                 245.3635158462117261
    Total Energy =                       -197.4763188887347951

Computation Completed

Properties will be evaluated at   0.000000,   0.000000,   0.000000 [a0]

Properties computed using the SCF density matrix

  Nuclear Dipole Moment: [e a0]
     X:     0.4798      Y:     0.4998      Z:     0.7798

  Electronic Dipole Moment: [e a0]
     X:    -0.4830      Y:    -0.4627      Z:    -0.7222

  Dipole Moment: [e a0]
     X:    -0.0032      Y:     0.0370      Z:     0.0575     Total:     0.0685

  Dipole Moment: [D]
     X:    -0.0081      Y:     0.0941      Z:     0.1462     Total:     0.1741

*** tstop() called on ds3 at Sun Apr 26 19:13:06 2020
Module time:
	user time   =      14.16 seconds =       0.24 minutes
	system time =       5.82 seconds =       0.10 minutes
	total time  =         19 seconds =       0.32 minutes
Total time:
	user time   =      14.16 seconds =       0.24 minutes
	system time =       5.82 seconds =       0.10 minutes
	total time  =         19 seconds =       0.32 minutes
                                     G D M A

                                 by Anthony Stone

                           version 2.2.06, 22 June 2011

               Distributed Multipoles from Gaussian wavefunctions

Starting at 19:13:6 on 26 Apr 2020

Using SCF density matrix from file ./SSI/SSI-046PRO-140ALA-1-dimer.test.5827.fchk

                         Distributed Multipole Analysis

Standard DMA

Positions and radii in angstrom
Multipole moments in atomic units, ea_0^k for rank k

C          x = -0.601597  y = -0.730155  z = -0.979371 angstrom
           Maximum rank =  0   Radius =  0.650 angstrom
                   Q00  =  -0.110780

C          x = -0.009597  y = -1.985155  z = -0.497371 angstrom
           Maximum rank =  0   Radius =  0.650 angstrom
                   Q00  =  -0.220065

C          x = -0.510597  y = -0.755155  z = -2.490371 angstrom
           Maximum rank =  0   Radius =  0.650 angstrom
                   Q00  =  -0.201838

H          x = -0.094597  y =  0.138845  z = -0.567371 angstrom
           Maximum rank =  0   Radius =  0.325 angstrom
                   Q00  =   0.066367

H          x = -1.651597  y = -0.716155  z = -0.689371 angstrom
           Maximum rank =  0   Radius =  0.325 angstrom
                   Q00  =   0.047851

H          x =  1.003403  y = -1.774155  z = -0.150371 angstrom
           Maximum rank =  0   Radius =  0.325 angstrom
                   Q00  =   0.077111

H          x = -0.579597  y = -2.398155  z =  0.332629 angstrom
           Maximum rank =  0   Radius =  0.325 angstrom
                   Q00  =   0.082281

H          x = -1.491597  y = -0.535155  z = -2.915371 angstrom
           Maximum rank =  0   Radius =  0.325 angstrom
                   Q00  =   0.084842

H          x =  0.057015  y = -2.700869  z = -1.330031 angstrom
           Maximum rank =  0   Radius =  0.325 angstrom
                   Q00  =   0.051971

H          x = -0.230815  y = -1.791023  z = -2.732651 angstrom
           Maximum rank =  0   Radius =  0.325 angstrom
                   Q00  =   0.049966

H          x =  0.200742  y =  0.003078  z = -2.849651 angstrom
           Maximum rank =  0   Radius =  0.325 angstrom
                   Q00  =   0.072323

C          x =  0.711403  y =  0.977845  z =  1.895629 angstrom
           Maximum rank =  0   Radius =  0.650 angstrom
                   Q00  =  -0.232230

C          x =  0.367403  y =  2.447845  z =  2.001629 angstrom
           Maximum rank =  0   Radius =  0.650 angstrom
                   Q00  =  -0.233603

H          x = -0.175597  y =  0.403845  z =  1.630629 angstrom
           Maximum rank =  0   Radius =  0.325 angstrom
                   Q00  =   0.080117

H          x =  1.489403  y =  0.829845  z =  1.145629 angstrom
           Maximum rank =  0   Radius =  0.325 angstrom
                   Q00  =   0.074485

H          x =  1.079403  y =  0.608845  z =  2.850629 angstrom
           Maximum rank =  0   Radius =  0.325 angstrom
                   Q00  =   0.079043

H          x =  1.219403  y =  2.977845  z =  2.416629 angstrom
           Maximum rank =  0   Radius =  0.325 angstrom
                   Q00  =   0.076137

H          x = -0.491188  y =  2.588932  z =  2.674619 angstrom
           Maximum rank =  0   Radius =  0.325 angstrom
                   Q00  =   0.078801

H          x =  0.177410  y =  2.897375  z =  1.015819 angstrom
           Maximum rank =  0   Radius =  0.325 angstrom
                   Q00  =   0.077221

Total multipoles referred to origin at
           x =   0.000000,  y =    0.000000,  z =    0.000000 angstrom
                   Q00  =  -0.000000

Finished at 19:13:6 on 26 Apr 2020

  DMA results are available in the Python driver through the
	  variable('DMA DISTRIBUTED MULTIPOLES')
  and
	  variable('DMA TOTAL MULTIPOLES')
  commands.

    Psi4 stopped on: Sunday, 26 April 2020 07:13PM
    Psi4 wall time for execution: 0:00:19.86

*** Psi4 exiting successfully. Buy a developer a beer!
