                               Psi4 1.3.2 release

  ==> Input File <==

--------------------------------------------------------------------------
import numpy as np
set {scf_type pk
basis cc-pvdz
d_convergence 10
gdma_switch   0
gdma_limit    0
gdma_origin   [ 0.0,  0.0,  0.0 ]
}
molecule test {
    units Angstrom
    0 1
    --
    0 1
    C               -2.860812933298174     0.601590031021562     0.966034085833013
    C                0.949187066701826     0.502590031021562     1.027034085833013
    C                1.285187066701826     1.188590031021562    -0.137965914166987
    C               -0.389812933298174     0.322590031021562     1.381034085833013
    C               -1.423812933298174     0.823590031021562     0.576034085833013
    C                0.253187066701826     1.711590031021562    -0.922965914166987
    C               -1.083812933298174     1.522590031021562    -0.587965914166987
    H                1.730187066701826     0.095590031021562     1.653034085833013
    H                2.319187066701826     1.318590031021562    -0.425965914166987
    H               -0.623812933298174    -0.222409968978438     2.271034085833013
    H                0.505187066701826     2.253590031021562    -1.822965914166987
    H               -3.443812933298174     1.490590031021562     0.727034085833013
    H               -2.798812933298173     0.538590031021562     2.023034085833013
    H               -1.856812933298174     1.927590031021562    -1.225965914166987
    H               -3.311172933298174    -0.274891968978438     0.477204085833013
    C                2.044187066701826    -2.339409968978438    -1.150965914166987
    C                1.072187066701826    -3.464409968978438    -0.922965914166987
    H                2.726187066701826    -2.263409968978438    -0.311965914166987
    H                2.616187066701826    -2.529409968978438    -2.058965914166987
    H                1.499187066701826    -1.402409968978438    -1.259965914166987
    H                1.598187066701826    -4.410409968978438    -0.947965914166987
    H                0.418187066701826    -3.441409968978438    -1.793965914166987
    H                0.459347066701826    -3.430916968978438    -0.010115914166987

}
e, wfn = energy('scf', return_wfn=True)
gdma(wfn)
dmavals = variable('DMA DISTRIBUTED MULTIPOLES')
charges = np.array(dmavals)
print(charges)
np.save('SSI-031PHE-061ILE-1-dimer.npy', np.array(charges))--------------------------------------------------------------------------

*** tstart() called on ds3
*** at Tue Apr 28 12:01:00 2020

   => Loading Basis Set <=

    Name: CC-PVDZ
    Role: ORBITAL
    Keyword: BASIS
    atoms 1-7, 16-17  entry C          line   138 file /theoryfs2/ds/metcalf/miniconda2/envs/tf2gpu/share/psi4/basis/cc-pvdz.gbs
    atoms 8-15, 18-23 entry H          line    22 file /theoryfs2/ds/metcalf/miniconda2/envs/tf2gpu/share/psi4/basis/cc-pvdz.gbs

         ---------------------------------------------------------
                                   SCF
               by Justin Turney, Rob Parrish, Andy Simmonett
                          and Daniel G. A. Smith
                              RHF Reference
                        1 Threads,    500 MiB Core
         ---------------------------------------------------------

  ==> Geometry <==

    Molecular point group: c1
    Full point group: C1

    Geometry (in Angstrom), charge = 0, multiplicity = 1:

       Center              X                  Y                   Z               Mass
    ------------   -----------------  -----------------  -----------------  -----------------
         C           -2.860812933298     0.601590031022     0.966034085833    12.000000000000
         C            0.949187066702     0.502590031022     1.027034085833    12.000000000000
         C            1.285187066702     1.188590031022    -0.137965914167    12.000000000000
         C           -0.389812933298     0.322590031022     1.381034085833    12.000000000000
         C           -1.423812933298     0.823590031022     0.576034085833    12.000000000000
         C            0.253187066702     1.711590031022    -0.922965914167    12.000000000000
         C           -1.083812933298     1.522590031022    -0.587965914167    12.000000000000
         H            1.730187066702     0.095590031022     1.653034085833     1.007825032230
         H            2.319187066702     1.318590031022    -0.425965914167     1.007825032230
         H           -0.623812933298    -0.222409968978     2.271034085833     1.007825032230
         H            0.505187066702     2.253590031022    -1.822965914167     1.007825032230
         H           -3.443812933298     1.490590031022     0.727034085833     1.007825032230
         H           -2.798812933298     0.538590031022     2.023034085833     1.007825032230
         H           -1.856812933298     1.927590031022    -1.225965914167     1.007825032230
         H           -3.311172933298    -0.274891968978     0.477204085833     1.007825032230
         C            2.044187066702    -2.339409968978    -1.150965914167    12.000000000000
         C            1.072187066702    -3.464409968978    -0.922965914167    12.000000000000
         H            2.726187066702    -2.263409968978    -0.311965914167     1.007825032230
         H            2.616187066702    -2.529409968978    -2.058965914167     1.007825032230
         H            1.499187066702    -1.402409968978    -1.259965914167     1.007825032230
         H            1.598187066702    -4.410409968978    -0.947965914167     1.007825032230
         H            0.418187066702    -3.441409968978    -1.793965914167     1.007825032230
         H            0.459347066702    -3.430916968978    -0.010115914167     1.007825032230

  Running in c1 symmetry.

  Rotational constants: A =      0.06508  B =      0.02751  C =      0.02361 [cm^-1]
  Rotational constants: A =   1950.94538  B =    824.65869  C =    707.71296 [MHz]
  Nuclear repulsion =  410.424249263155787

  Charge       = 0
  Multiplicity = 1
  Electrons    = 68
  Nalpha       = 34
  Nbeta        = 34

  ==> Algorithm <==

  SCF Algorithm Type is PK.
  DIIS enabled.
  MOM disabled.
  Fractional occupation disabled.
  Guess Type is SAD.
  Energy threshold   = 1.00e-06
  Density threshold  = 1.00e-10
  Integral threshold = 0.00e+00

  ==> Primary Basis <==

  Basis Set: CC-PVDZ
    Blend: CC-PVDZ
    Number of shells: 96
    Number of basis function: 196
    Number of Cartesian functions: 205
    Spherical Harmonics?: true
    Max angular momentum: 2

  ==> Pre-Iterations <==

   -------------------------------------------------------
    Irrep   Nso     Nmo     Nalpha   Nbeta   Ndocc  Nsocc
   -------------------------------------------------------
     A        196     196       0       0       0       0
   -------------------------------------------------------
    Total     196     196      34      34      34       0
   -------------------------------------------------------

  ==> Integral Setup <==

  Using integral reordering PK algorithm.
  Sizing the integral batches needed.
  Building batch lookup table.
   Calculation information:
      Number of atoms:                  23
      Number of AO shells:              96
      Number of primitives:            268
      Number of atomic orbitals:       205
      Number of basis functions:       196

      Integral cutoff                 1.00e-12
      Number of threads:                 1

	Batch   1 pq = [       0,    9405] index = [             0,44231715] size =     44231715
	Batch   2 pq = [    9405,   13301] index = [      44231715,88464951] size =     44233236
	Batch   3 pq = [   13301,   16290] index = [      88464951,132690195] size =     44225244
	Batch   4 pq = [   16290,   18810] index = [     132690195,176917455] size =     44227260
	Batch   5 pq = [   18810,   19306] index = [     176917455,186370471] size =      9453016
  Task number: 17
  Buffer size: 11059200
  Buffer per thread: 2
  We computed 9857646 shell quartets total.
  Whereas there are 10841496 unique shell quartets.

  ==> DiskJK: Disk-Based J/K Matrices <==

    J tasked:                  Yes
    K tasked:                  Yes
    wK tasked:                  No
    Memory [MiB]:              375
    Schwarz Cutoff:          1E-12

    OpenMP threads:              1

  Minimum eigenvalue in the overlap matrix is 3.2017908534E-04.
  Using Symmetric Orthogonalization.

  SCF Guess: Superposition of Atomic Densities via on-the-fly atomic UHF.

  ==> Iterations <==

                        Total Energy        Delta E     RMS |[F,P]|

   @RHF iter SAD:  -347.90137846239776   -3.47901e+02   0.00000e+00
   @RHF iter   1:  -348.75964933587733   -8.58271e-01   2.91559e-03 DIIS
   @RHF iter   2:  -348.95348195628952   -1.93833e-01   1.20880e-03 DIIS
   @RHF iter   3:  -348.98393798233650   -3.04560e-02   2.58930e-04 DIIS
   @RHF iter   4:  -348.98642282820475   -2.48485e-03   5.23423e-05 DIIS
   @RHF iter   5:  -348.98649552562654   -7.26974e-05   1.77948e-05 DIIS
   @RHF iter   6:  -348.98650327521636   -7.74959e-06   4.97841e-06 DIIS
   @RHF iter   7:  -348.98650396990274   -6.94686e-07   1.23772e-06 DIIS
   @RHF iter   8:  -348.98650401670136   -4.67986e-08   2.67377e-07 DIIS
   @RHF iter   9:  -348.98650402010367   -3.40231e-09   9.40233e-08 DIIS
   @RHF iter  10:  -348.98650402053607   -4.32408e-10   3.91626e-08 DIIS
   @RHF iter  11:  -348.98650402064254   -1.06468e-10   1.62822e-08 DIIS
   @RHF iter  12:  -348.98650402066585   -2.33058e-11   9.00328e-09 DIIS
   @RHF iter  13:  -348.98650402067307   -7.21911e-12   3.82799e-09 DIIS
   @RHF iter  14:  -348.98650402067346   -3.97904e-13   9.28752e-10 DIIS
   @RHF iter  15:  -348.98650402067312    3.41061e-13   3.27177e-10 DIIS
   @RHF iter  16:  -348.98650402067312    0.00000e+00   1.10818e-10 DIIS
   @RHF iter  17:  -348.98650402067307    5.68434e-14   3.99537e-11 DIIS
  Energy and wave function converged.

  ==> Post-Iterations <==

    Orbital Energies [Eh]
    ---------------------

    Doubly Occupied:

       1A    -11.242228     2A    -11.236272     3A    -11.235878
       4A    -11.232039     5A    -11.230770     6A    -11.230584
       7A    -11.227080     8A    -11.208453     9A    -11.205897
      10A     -1.150435    11A     -1.045730    12A     -1.018284
      13A     -1.010330    14A     -0.933661    15A     -0.829550
      16A     -0.823744    17A     -0.794738    18A     -0.690611
      19A     -0.632652    20A     -0.629733    21A     -0.595590
      22A     -0.593277    23A     -0.584650    24A     -0.580685
      25A     -0.562879    26A     -0.537395    27A     -0.504102
      28A     -0.489726    29A     -0.483282    30A     -0.480199
      31A     -0.472566    32A     -0.471538    33A     -0.331666
      34A     -0.320700

    Virtual:

      35A      0.135352    36A      0.138385    37A      0.176361
      38A      0.196891    39A      0.203995    40A      0.216747
      41A      0.235516    42A      0.246643    43A      0.251297
      44A      0.264250    45A      0.269974    46A      0.278598
      47A      0.281472    48A      0.285726    49A      0.303751
      50A      0.313334    51A      0.363055    52A      0.371415
      53A      0.409347    54A      0.450989    55A      0.462048
      56A      0.476539    57A      0.490189    58A      0.558382
      59A      0.580782    60A      0.591712    61A      0.612257
      62A      0.616383    63A      0.646217    64A      0.662081
      65A      0.667578    66A      0.681363    67A      0.684101
      68A      0.707226    69A      0.726248    70A      0.738619
      71A      0.745049    72A      0.754008    73A      0.762904
      74A      0.771053    75A      0.778622    76A      0.820429
      77A      0.849961    78A      0.856340    79A      0.863225
      80A      0.873785    81A      0.882242    82A      0.884306
      83A      0.896771    84A      0.899655    85A      0.902389
      86A      0.911278    87A      0.917205    88A      0.930304
      89A      0.933341    90A      0.944734    91A      0.948004
      92A      0.962891    93A      0.987438    94A      1.006434
      95A      1.037510    96A      1.057344    97A      1.115912
      98A      1.125274    99A      1.146363   100A      1.150973
     101A      1.153392   102A      1.156533   103A      1.198543
     104A      1.236079   105A      1.239716   106A      1.247684
     107A      1.253101   108A      1.275338   109A      1.294155
     110A      1.305600   111A      1.321946   112A      1.322149
     113A      1.412805   114A      1.468534   115A      1.502018
     116A      1.515225   117A      1.516265   118A      1.555420
     119A      1.589834   120A      1.603964   121A      1.670677
     122A      1.694701   123A      1.704517   124A      1.706223
     125A      1.739670   126A      1.749854   127A      1.767004
     128A      1.793260   129A      1.808109   130A      1.852682
     131A      1.870018   132A      1.871173   133A      1.881344
     134A      1.886145   135A      1.900607   136A      1.912972
     137A      1.917959   138A      1.928600   139A      1.934415
     140A      1.945464   141A      1.957414   142A      1.965204
     143A      1.974823   144A      1.981082   145A      1.989488
     146A      2.000459   147A      2.004889   148A      2.016491
     149A      2.051384   150A      2.068421   151A      2.073884
     152A      2.085118   153A      2.108554   154A      2.144464
     155A      2.158442   156A      2.163565   157A      2.164822
     158A      2.167711   159A      2.193136   160A      2.236949
     161A      2.276193   162A      2.286671   163A      2.307316
     164A      2.318030   165A      2.321326   166A      2.323567
     167A      2.342214   168A      2.455639   169A      2.470569
     170A      2.482365   171A      2.500768   172A      2.510615
     173A      2.535195   174A      2.555470   175A      2.612438
     176A      2.626161   177A      2.737974   178A      2.750957
     179A      2.769087   180A      2.783500   181A      2.801046
     182A      2.816484   183A      2.822610   184A      2.857114
     185A      2.867628   186A      2.896639   187A      2.908788
     188A      2.961397   189A      2.972120   190A      2.992090
     191A      3.001911   192A      3.037543   193A      3.139125
     194A      3.194963   195A      3.293716   196A      3.955617

    Final Occupation by Irrep:
              A
    DOCC [    34 ]

  @RHF Final Energy:  -348.98650402067307

   => Energetics <=

    Nuclear Repulsion Energy =            410.4242492631557866
    One-Electron Energy =               -1283.5876641716058657
    Two-Electron Energy =                 524.1769108877770122
    Total Energy =                       -348.9865040206730100

Computation Completed

Properties will be evaluated at   0.000000,   0.000000,   0.000000 [a0]

Properties computed using the SCF density matrix

  Nuclear Dipole Moment: [e a0]
     X:     1.7225      Y:    -9.7035      Z:    -2.5373

  Electronic Dipole Moment: [e a0]
     X:    -1.8751      Y:     9.7466      Z:     2.5629

  Dipole Moment: [e a0]
     X:    -0.1526      Y:     0.0431      Z:     0.0257     Total:     0.1606

  Dipole Moment: [D]
     X:    -0.3878      Y:     0.1095      Z:     0.0653     Total:     0.4082

*** tstop() called on ds3 at Tue Apr 28 12:02:45 2020
Module time:
	user time   =      72.21 seconds =       1.20 minutes
	system time =      31.68 seconds =       0.53 minutes
	total time  =        105 seconds =       1.75 minutes
Total time:
	user time   =      72.21 seconds =       1.20 minutes
	system time =      31.68 seconds =       0.53 minutes
	total time  =        105 seconds =       1.75 minutes
                                     G D M A

                                 by Anthony Stone

                           version 2.2.06, 22 June 2011

               Distributed Multipoles from Gaussian wavefunctions

Starting at 12:2:45 on 28 Apr 2020

Using SCF density matrix from file ./SSI/SSI-031PHE-061ILE-1-dimer.test.29546.fchk

                         Distributed Multipole Analysis

Standard DMA

Positions and radii in angstrom
Multipole moments in atomic units, ea_0^k for rank k

C          x = -2.860813  y =  0.601590  z =  0.966034 angstrom
           Maximum rank =  0   Radius =  0.650 angstrom
                   Q00  =  -0.189611

C          x =  0.949187  y =  0.502590  z =  1.027034 angstrom
           Maximum rank =  0   Radius =  0.650 angstrom
                   Q00  =  -0.073653

C          x =  1.285187  y =  1.188590  z = -0.137966 angstrom
           Maximum rank =  0   Radius =  0.650 angstrom
                   Q00  =  -0.096025

C          x = -0.389813  y =  0.322590  z =  1.381034 angstrom
           Maximum rank =  0   Radius =  0.650 angstrom
                   Q00  =  -0.072743

C          x = -1.423813  y =  0.823590  z =  0.576034 angstrom
           Maximum rank =  0   Radius =  0.650 angstrom
                   Q00  =  -0.100630

C          x =  0.253187  y =  1.711590  z = -0.922966 angstrom
           Maximum rank =  0   Radius =  0.650 angstrom
                   Q00  =   0.015728

C          x = -1.083813  y =  1.522590  z = -0.587966 angstrom
           Maximum rank =  0   Radius =  0.650 angstrom
                   Q00  =  -0.080900

H          x =  1.730187  y =  0.095590  z =  1.653034 angstrom
           Maximum rank =  0   Radius =  0.325 angstrom
                   Q00  =   0.065712

H          x =  2.319187  y =  1.318590  z = -0.425966 angstrom
           Maximum rank =  0   Radius =  0.325 angstrom
                   Q00  =   0.065607

H          x = -0.623813  y = -0.222410  z =  2.271034 angstrom
           Maximum rank =  0   Radius =  0.325 angstrom
                   Q00  =   0.056392

H          x =  0.505187  y =  2.253590  z = -1.822966 angstrom
           Maximum rank =  0   Radius =  0.325 angstrom
                   Q00  =   0.063017

H          x = -3.443813  y =  1.490590  z =  0.727034 angstrom
           Maximum rank =  0   Radius =  0.325 angstrom
                   Q00  =   0.098729

H          x = -2.798813  y =  0.538590  z =  2.023034 angstrom
           Maximum rank =  0   Radius =  0.325 angstrom
                   Q00  =   0.086093

H          x = -1.856813  y =  1.927590  z = -1.225966 angstrom
           Maximum rank =  0   Radius =  0.325 angstrom
                   Q00  =   0.056801

H          x = -3.311173  y = -0.274892  z =  0.477204 angstrom
           Maximum rank =  0   Radius =  0.325 angstrom
                   Q00  =   0.107468

C          x =  2.044187  y = -2.339410  z = -1.150966 angstrom
           Maximum rank =  0   Radius =  0.650 angstrom
                   Q00  =  -0.224730

C          x =  1.072187  y = -3.464410  z = -0.922966 angstrom
           Maximum rank =  0   Radius =  0.650 angstrom
                   Q00  =  -0.232041

H          x =  2.726187  y = -2.263410  z = -0.311966 angstrom
           Maximum rank =  0   Radius =  0.325 angstrom
                   Q00  =   0.068659

H          x =  2.616187  y = -2.529410  z = -2.058966 angstrom
           Maximum rank =  0   Radius =  0.325 angstrom
                   Q00  =   0.073548

H          x =  1.499187  y = -1.402410  z = -1.259966 angstrom
           Maximum rank =  0   Radius =  0.325 angstrom
                   Q00  =   0.092244

H          x =  1.598187  y = -4.410410  z = -0.947966 angstrom
           Maximum rank =  0   Radius =  0.325 angstrom
                   Q00  =   0.070777

H          x =  0.418187  y = -3.441410  z = -1.793966 angstrom
           Maximum rank =  0   Radius =  0.325 angstrom
                   Q00  =   0.068310

H          x =  0.459347  y = -3.430917  z = -0.010116 angstrom
           Maximum rank =  0   Radius =  0.325 angstrom
                   Q00  =   0.081250

Total multipoles referred to origin at
           x =   0.000000,  y =    0.000000,  z =    0.000000 angstrom
                   Q00  =  -0.000000

Finished at 12:2:45 on 28 Apr 2020

  DMA results are available in the Python driver through the
	  variable('DMA DISTRIBUTED MULTIPOLES')
  and
	  variable('DMA TOTAL MULTIPOLES')
  commands.

    Psi4 stopped on: Tuesday, 28 April 2020 12:02PM
    Psi4 wall time for execution: 0:01:44.36

*** Psi4 exiting successfully. Buy a developer a beer!
