                               Psi4 1.3.2 release

  ==> Input File <==

--------------------------------------------------------------------------
import numpy as np
set {scf_type pk
basis cc-pvdz
d_convergence 10
gdma_switch   0
gdma_limit    0
gdma_origin   [ 0.0,  0.0,  0.0 ]
}
molecule test {
    units Angstrom
    0 1
    --
    0 1
    C                2.279051248652332     0.179915801053297    -0.524894785833131
    C                1.495051248652332     1.187915801053297     0.299105214166869
    O                0.303051248652332     1.405915801053297    -0.009894785833131
    O                2.063051248652331     1.752915801053297     1.259105214166869
    H                2.291051248652332     0.491915801053297    -1.571894785833131
    H                1.774051248652332    -0.786084198946703    -0.461894785833131
    H                3.311500248652331     0.059675801053297    -0.164904785833131
    C               -1.677948751347669    -1.148084198946703     0.077105214166869
    C               -2.464948751347669    -2.392084198946703     0.485105214166869
    N               -1.762948751347668    -0.867084198946703    -1.383894785833131
    H               -2.079948751347668    -0.294084198946703     0.633105214166869
    H               -0.634948751347668    -1.271084198946703     0.383105214166869
    H               -3.488948751347668    -2.324084198946703     0.110105214166869
    H               -2.503948751347668    -2.428084198946703     1.575105214166869
    H               -2.723948751347668    -0.748084198946703    -1.680894785833131
    H               -1.274948751347668    -0.004084198946703    -1.600894785833131
    H               -1.347948751347668    -1.604084198946703    -1.939894785833131
    H               -1.987518751347668    -3.311654198946703     0.115695214166869

}
e, wfn = energy('scf', return_wfn=True)
gdma(wfn)
dmavals = variable('DMA DISTRIBUTED MULTIPOLES')
charges = np.array(dmavals)
print(charges)
np.save('SSI-055ASP-104LYS-1-dimer.npy', np.array(charges))--------------------------------------------------------------------------

*** tstart() called on ds3
*** at Mon Apr 27 01:48:19 2020

   => Loading Basis Set <=

    Name: CC-PVDZ
    Role: ORBITAL
    Keyword: BASIS
    atoms 1-2, 8-9   entry C          line   138 file /theoryfs2/ds/metcalf/miniconda2/envs/tf2gpu/share/psi4/basis/cc-pvdz.gbs
    atoms 3-4        entry O          line   198 file /theoryfs2/ds/metcalf/miniconda2/envs/tf2gpu/share/psi4/basis/cc-pvdz.gbs
    atoms 5-7, 11-18 entry H          line    22 file /theoryfs2/ds/metcalf/miniconda2/envs/tf2gpu/share/psi4/basis/cc-pvdz.gbs
    atoms 10         entry N          line   168 file /theoryfs2/ds/metcalf/miniconda2/envs/tf2gpu/share/psi4/basis/cc-pvdz.gbs

         ---------------------------------------------------------
                                   SCF
               by Justin Turney, Rob Parrish, Andy Simmonett
                          and Daniel G. A. Smith
                              RHF Reference
                        1 Threads,    500 MiB Core
         ---------------------------------------------------------

  ==> Geometry <==

    Molecular point group: c1
    Full point group: C1

    Geometry (in Angstrom), charge = 0, multiplicity = 1:

       Center              X                  Y                   Z               Mass
    ------------   -----------------  -----------------  -----------------  -----------------
         C            2.279051248652     0.179915801053    -0.524894785833    12.000000000000
         C            1.495051248652     1.187915801053     0.299105214167    12.000000000000
         O            0.303051248652     1.405915801053    -0.009894785833    15.994914619570
         O            2.063051248652     1.752915801053     1.259105214167    15.994914619570
         H            2.291051248652     0.491915801053    -1.571894785833     1.007825032230
         H            1.774051248652    -0.786084198947    -0.461894785833     1.007825032230
         H            3.311500248652     0.059675801053    -0.164904785833     1.007825032230
         C           -1.677948751348    -1.148084198947     0.077105214167    12.000000000000
         C           -2.464948751348    -2.392084198947     0.485105214167    12.000000000000
         N           -1.762948751348    -0.867084198947    -1.383894785833    14.003074004430
         H           -2.079948751348    -0.294084198947     0.633105214167     1.007825032230
         H           -0.634948751348    -1.271084198947     0.383105214167     1.007825032230
         H           -3.488948751348    -2.324084198947     0.110105214167     1.007825032230
         H           -2.503948751348    -2.428084198947     1.575105214167     1.007825032230
         H           -2.723948751348    -0.748084198947    -1.680894785833     1.007825032230
         H           -1.274948751348    -0.004084198947    -1.600894785833     1.007825032230
         H           -1.347948751348    -1.604084198947    -1.939894785833     1.007825032230
         H           -1.987518751348    -3.311654198947     0.115695214167     1.007825032230

  Running in c1 symmetry.

  Rotational constants: A =      0.14480  B =      0.02829  C =      0.02752 [cm^-1]
  Rotational constants: A =   4340.88007  B =    848.05841  C =    824.97281 [MHz]
  Nuclear repulsion =  302.201114173920701

  Charge       = 0
  Multiplicity = 1
  Electrons    = 58
  Nalpha       = 29
  Nbeta        = 29

  ==> Algorithm <==

  SCF Algorithm Type is PK.
  DIIS enabled.
  MOM disabled.
  Fractional occupation disabled.
  Guess Type is SAD.
  Energy threshold   = 1.00e-06
  Density threshold  = 1.00e-10
  Integral threshold = 0.00e+00

  ==> Primary Basis <==

  Basis Set: CC-PVDZ
    Blend: CC-PVDZ
    Number of shells: 75
    Number of basis function: 153
    Number of Cartesian functions: 160
    Spherical Harmonics?: true
    Max angular momentum: 2

  ==> Pre-Iterations <==

   -------------------------------------------------------
    Irrep   Nso     Nmo     Nalpha   Nbeta   Ndocc  Nsocc
   -------------------------------------------------------
     A        153     153       0       0       0       0
   -------------------------------------------------------
    Total     153     153      29      29      29       0
   -------------------------------------------------------

  ==> Integral Setup <==

  Using integral reordering PK algorithm.
  Sizing the integral batches needed.
  Building batch lookup table.
   Calculation information:
      Number of atoms:                  18
      Number of AO shells:              75
      Number of primitives:            209
      Number of atomic orbitals:       160
      Number of basis functions:       153

      Integral cutoff                 1.00e-12
      Number of threads:                 1

	Batch   1 pq = [       0,    9405] index = [             0,44231715] size =     44231715
	Batch   2 pq = [    9405,   11781] index = [      44231715,69401871] size =     25170156
  Task number: 7
  Buffer size: 11059200
  Buffer per thread: 2
  We computed 3432160 shell quartets total.
  Whereas there are 4062675 unique shell quartets.

  ==> DiskJK: Disk-Based J/K Matrices <==

    J tasked:                  Yes
    K tasked:                  Yes
    wK tasked:                  No
    Memory [MiB]:              375
    Schwarz Cutoff:          1E-12

    OpenMP threads:              1

  Minimum eigenvalue in the overlap matrix is 5.3201883251E-03.
  Using Symmetric Orthogonalization.

  SCF Guess: Superposition of Atomic Densities via on-the-fly atomic UHF.

  ==> Iterations <==

                        Total Energy        Delta E     RMS |[F,P]|

   @RHF iter SAD:  -360.67048054597626   -3.60670e+02   0.00000e+00
   @RHF iter   1:  -361.73050901115204   -1.06003e+00   4.78188e-03 DIIS
   @RHF iter   2:  -361.94455854272570   -2.14050e-01   2.65590e-03 DIIS
   @RHF iter   3:  -362.00407089177634   -5.95123e-02   4.59014e-04 DIIS
   @RHF iter   4:  -362.00732554247662   -3.25465e-03   1.57452e-04 DIIS
   @RHF iter   5:  -362.00771510415393   -3.89562e-04   3.05540e-05 DIIS
   @RHF iter   6:  -362.00773404057458   -1.89364e-05   1.56396e-05 DIIS
   @RHF iter   7:  -362.00773717063902   -3.13006e-06   3.90495e-06 DIIS
   @RHF iter   8:  -362.00773775359249   -5.82953e-07   1.83516e-06 DIIS
   @RHF iter   9:  -362.00773787312937   -1.19537e-07   5.42298e-07 DIIS
   @RHF iter  10:  -362.00773788444434   -1.13150e-08   1.74408e-07 DIIS
   @RHF iter  11:  -362.00773788539766   -9.53321e-10   4.27004e-08 DIIS
   @RHF iter  12:  -362.00773788544797   -5.03064e-11   9.94630e-09 DIIS
   @RHF iter  13:  -362.00773788545325   -5.28644e-12   3.37034e-09 DIIS
   @RHF iter  14:  -362.00773788545212    1.13687e-12   9.56918e-10 DIIS
   @RHF iter  15:  -362.00773788545035    1.76215e-12   2.68992e-10 DIIS
   @RHF iter  16:  -362.00773788545069   -3.41061e-13   1.26448e-10 DIIS
   @RHF iter  17:  -362.00773788545098   -2.84217e-13   4.91213e-11 DIIS
  Energy and wave function converged.

  ==> Post-Iterations <==

    Orbital Energies [Eh]
    ---------------------

    Doubly Occupied:

       1A    -20.396883     2A    -20.377909     3A    -15.774028
       4A    -11.349754     5A    -11.298201     6A    -11.240067
       7A    -11.171619     8A     -1.393862     9A     -1.276199
      10A     -1.161217    11A     -1.099599    12A     -0.934576
      13A     -0.918512    14A     -0.854657    15A     -0.834723
      16A     -0.734368    17A     -0.676381    18A     -0.624936
      19A     -0.610557    20A     -0.582540    21A     -0.569711
      22A     -0.534401    23A     -0.532602    24A     -0.524856
      25A     -0.465110    26A     -0.429321    27A     -0.312251
      28A     -0.293143    29A     -0.286566

    Virtual:

      30A      0.070863    31A      0.127687    32A      0.146293
      33A      0.177291    34A      0.200228    35A      0.213007
      36A      0.219179    37A      0.231037    38A      0.268444
      39A      0.276998    40A      0.299079    41A      0.319261
      42A      0.334127    43A      0.383393    44A      0.457843
      45A      0.495362    46A      0.523325    47A      0.528026
      48A      0.552671    49A      0.576736    50A      0.588122
      51A      0.642916    52A      0.696428    53A      0.709857
      54A      0.740963    55A      0.749880    56A      0.768619
      57A      0.799087    58A      0.805590    59A      0.815785
      60A      0.819868    61A      0.830191    62A      0.852207
      63A      0.861492    64A      0.892522    65A      0.904676
      66A      0.916272    67A      0.925476    68A      0.931087
      69A      0.944667    70A      0.967876    71A      0.985812
      72A      1.023027    73A      1.045842    74A      1.058949
      75A      1.103194    76A      1.156350    77A      1.224780
      78A      1.227592    79A      1.290731    80A      1.317178
      81A      1.384053    82A      1.404380    83A      1.419067
      84A      1.447540    85A      1.464317    86A      1.497365
      87A      1.520715    88A      1.532758    89A      1.570920
      90A      1.593778    91A      1.605957    92A      1.609170
      93A      1.631546    94A      1.714365    95A      1.725307
      96A      1.737514    97A      1.783802    98A      1.804416
      99A      1.844357   100A      1.860899   101A      1.879330
     102A      1.897772   103A      1.899955   104A      1.931456
     105A      1.970902   106A      1.973959   107A      1.988273
     108A      1.992836   109A      2.007652   110A      2.022443
     111A      2.067119   112A      2.090193   113A      2.093791
     114A      2.125165   115A      2.159330   116A      2.190521
     117A      2.202730   118A      2.255082   119A      2.289125
     120A      2.291018   121A      2.310413   122A      2.316090
     123A      2.400598   124A      2.435842   125A      2.468372
     126A      2.495102   127A      2.528886   128A      2.559140
     129A      2.614410   130A      2.647050   131A      2.661565
     132A      2.663641   133A      2.695727   134A      2.735713
     135A      2.782582   136A      2.804541   137A      2.844880
     138A      2.865384   139A      2.876779   140A      2.920157
     141A      2.975062   142A      3.117864   143A      3.149342
     144A      3.170873   145A      3.226067   146A      3.237112
     147A      3.258782   148A      3.508826   149A      3.664606
     150A      3.704740   151A      3.936320   152A      3.971699
     153A      4.069274

    Final Occupation by Irrep:
              A
    DOCC [    29 ]

  @RHF Final Energy:  -362.00773788545098

   => Energetics <=

    Nuclear Repulsion Energy =            302.2011141739207005
    One-Electron Energy =               -1093.9006066695233130
    Two-Electron Energy =                 429.6917546101516336
    Total Energy =                       -362.0077378854509789

Computation Completed

Properties will be evaluated at   0.000000,   0.000000,   0.000000 [a0]

Properties computed using the SCF density matrix

  Nuclear Dipole Moment: [e a0]
     X:    -8.1072      Y:   -11.4379      Z:    -4.3054

  Electronic Dipole Moment: [e a0]
     X:     3.3901      Y:     6.9939      Z:     1.2854

  Dipole Moment: [e a0]
     X:    -4.7171      Y:    -4.4440      Z:    -3.0200     Total:     7.1499

  Dipole Moment: [D]
     X:   -11.9898      Y:   -11.2956      Z:    -7.6760     Total:    18.1732

*** tstop() called on ds3 at Mon Apr 27 01:48:50 2020
Module time:
	user time   =      20.95 seconds =       0.35 minutes
	system time =      10.07 seconds =       0.17 minutes
	total time  =         31 seconds =       0.52 minutes
Total time:
	user time   =      20.95 seconds =       0.35 minutes
	system time =      10.07 seconds =       0.17 minutes
	total time  =         31 seconds =       0.52 minutes
                                     G D M A

                                 by Anthony Stone

                           version 2.2.06, 22 June 2011

               Distributed Multipoles from Gaussian wavefunctions

Starting at 1:48:50 on 27 Apr 2020

Using SCF density matrix from file ./SSI/SSI-055ASP-104LYS-1-dimer.test.14793.fchk

                         Distributed Multipole Analysis

Standard DMA

Positions and radii in angstrom
Multipole moments in atomic units, ea_0^k for rank k

C          x =  2.279051  y =  0.179916  z = -0.524895 angstrom
           Maximum rank =  0   Radius =  0.650 angstrom
                   Q00  =  -0.266199

C          x =  1.495051  y =  1.187916  z =  0.299105 angstrom
           Maximum rank =  0   Radius =  0.650 angstrom
                   Q00  =   0.936633

O          x =  0.303051  y =  1.405916  z = -0.009895 angstrom
           Maximum rank =  0   Radius =  0.650 angstrom
                   Q00  =  -0.955941

O          x =  2.063051  y =  1.752916  z =  1.259105 angstrom
           Maximum rank =  0   Radius =  0.650 angstrom
                   Q00  =  -0.882271

H          x =  2.291051  y =  0.491916  z = -1.571895 angstrom
           Maximum rank =  0   Radius =  0.325 angstrom
                   Q00  =   0.071495

H          x =  1.774051  y = -0.786084  z = -0.461895 angstrom
           Maximum rank =  0   Radius =  0.325 angstrom
                   Q00  =   0.027988

H          x =  3.311500  y =  0.059676  z = -0.164905 angstrom
           Maximum rank =  0   Radius =  0.325 angstrom
                   Q00  =   0.092958

C          x = -1.677949  y = -1.148084  z =  0.077105 angstrom
           Maximum rank =  0   Radius =  0.650 angstrom
                   Q00  =   0.023033

C          x = -2.464949  y = -2.392084  z =  0.485105 angstrom
           Maximum rank =  0   Radius =  0.650 angstrom
                   Q00  =  -0.256507

N          x = -1.762949  y = -0.867084  z = -1.383895 angstrom
           Maximum rank =  0   Radius =  0.650 angstrom
                   Q00  =  -0.120996

H          x = -2.079949  y = -0.294084  z =  0.633105 angstrom
           Maximum rank =  0   Radius =  0.325 angstrom
                   Q00  =   0.133734

H          x = -0.634949  y = -1.271084  z =  0.383105 angstrom
           Maximum rank =  0   Radius =  0.325 angstrom
                   Q00  =   0.145284

H          x = -3.488949  y = -2.324084  z =  0.110105 angstrom
           Maximum rank =  0   Radius =  0.325 angstrom
                   Q00  =   0.084537

H          x = -2.503949  y = -2.428084  z =  1.575105 angstrom
           Maximum rank =  0   Radius =  0.325 angstrom
                   Q00  =   0.141710

H          x = -2.723949  y = -0.748084  z = -1.680895 angstrom
           Maximum rank =  0   Radius =  0.325 angstrom
                   Q00  =   0.229258

H          x = -1.274949  y = -0.004084  z = -1.600895 angstrom
           Maximum rank =  0   Radius =  0.325 angstrom
                   Q00  =   0.258641

H          x = -1.347949  y = -1.604084  z = -1.939895 angstrom
           Maximum rank =  0   Radius =  0.325 angstrom
                   Q00  =   0.237325

H          x = -1.987519  y = -3.311654  z =  0.115695 angstrom
           Maximum rank =  0   Radius =  0.325 angstrom
                   Q00  =   0.099317

Total multipoles referred to origin at
           x =   0.000000,  y =    0.000000,  z =    0.000000 angstrom
                   Q00  =  -0.000000

Finished at 1:48:50 on 27 Apr 2020

  DMA results are available in the Python driver through the
	  variable('DMA DISTRIBUTED MULTIPOLES')
  and
	  variable('DMA TOTAL MULTIPOLES')
  commands.

    Psi4 stopped on: Monday, 27 April 2020 01:48AM
    Psi4 wall time for execution: 0:00:31.06

*** Psi4 exiting successfully. Buy a developer a beer!
