                               Psi4 1.3.2 release

  ==> Input File <==

--------------------------------------------------------------------------
import numpy as np
set {scf_type pk
basis cc-pvdz
d_convergence 10
gdma_switch   0
gdma_limit    0
gdma_origin   [ 0.0,  0.0,  0.0 ]
}
molecule test {
    units Angstrom
    0 1
    --
    0 1
    C               -0.192067279891311     3.125934777010278    -2.381364879353573
    C                1.252932720108689     0.076934777010278    -0.695364879353573
    C                0.171932720108689     0.737934777010278    -1.337364879353573
    C                0.623932720108688     2.052934777010278    -1.707364879353573
    C                1.918932720108689     2.135934777010279    -1.288364879353573
    C               -0.058067279891311    -1.874065222989721    -0.365364879353573
    C                1.151932720108689    -1.218065222989722    -0.207364879353573
    C               -1.145067279891311    -1.246065222989722    -0.988364879353573
    C               -1.042067279891312     0.057934777010278    -1.473364879353573
    N                2.297932720108688     0.961934777010278    -0.678364879353573
    H               -0.166067279891311    -2.887065222989722     0.001635120646427
    H                1.989932720108689    -1.695065222989722     0.280635120646427
    H               -2.082067279891311    -1.774065222989722    -1.091364879353573
    H               -1.882067279891311     0.538934777010278    -1.952364879353573
    H                3.206932720108688     0.804934777010278    -0.257364879353573
    H                2.549932720108688     3.011934777010278    -1.404364879353573
    H                0.222932720108689     4.102934777010279    -2.128364879353573
    H               -1.190067279891311     3.083934777010279    -1.942364879353573
    H               -0.291047279891312     3.042024777010278    -3.473684879353574
    C               -1.351067279891311    -1.872065222989721     2.834635120646427
    C               -0.452067279891312    -1.017065222989721     3.673635120646427
    C               -2.723067279891311    -1.768065222989722     3.459635120646427
    H               -1.001067279891312    -2.903065222989722     2.783635120646427
    H               -1.407067279891311    -1.441065222989722     1.837635120646427
    H               -0.021067279891311    -1.611065222989722     4.479635120646428
    H                0.326932720108689    -0.583065222989722     3.044635120646427
    H               -2.839067279891311    -2.568065222989722     4.192635120646426
    H               -3.508067279891312    -1.837065222989722     2.710635120646427
    H               -1.133607279891311    -0.256055222989722     4.081505120646427
    H               -2.749787279891311    -0.776385222989722     3.934885120646427

}
e, wfn = energy('scf', return_wfn=True)
gdma(wfn)
dmavals = variable('DMA DISTRIBUTED MULTIPOLES')
charges = np.array(dmavals)
print(charges)
np.save('SSI-062TRP-166PRO-1-dimer.npy', np.array(charges))--------------------------------------------------------------------------

*** tstart() called on ds3
*** at Tue Apr 28 14:04:25 2020

   => Loading Basis Set <=

    Name: CC-PVDZ
    Role: ORBITAL
    Keyword: BASIS
    atoms 1-9, 20-22   entry C          line   138 file /theoryfs2/ds/metcalf/miniconda2/envs/tf2gpu/share/psi4/basis/cc-pvdz.gbs
    atoms 10           entry N          line   168 file /theoryfs2/ds/metcalf/miniconda2/envs/tf2gpu/share/psi4/basis/cc-pvdz.gbs
    atoms 11-19, 23-30 entry H          line    22 file /theoryfs2/ds/metcalf/miniconda2/envs/tf2gpu/share/psi4/basis/cc-pvdz.gbs

         ---------------------------------------------------------
                                   SCF
               by Justin Turney, Rob Parrish, Andy Simmonett
                          and Daniel G. A. Smith
                              RHF Reference
                        1 Threads,    500 MiB Core
         ---------------------------------------------------------

  ==> Geometry <==

    Molecular point group: c1
    Full point group: C1

    Geometry (in Angstrom), charge = 0, multiplicity = 1:

       Center              X                  Y                   Z               Mass
    ------------   -----------------  -----------------  -----------------  -----------------
         C           -0.192067279891     3.125934777010    -2.381364879354    12.000000000000
         C            1.252932720109     0.076934777010    -0.695364879354    12.000000000000
         C            0.171932720109     0.737934777010    -1.337364879354    12.000000000000
         C            0.623932720109     2.052934777010    -1.707364879354    12.000000000000
         C            1.918932720109     2.135934777010    -1.288364879354    12.000000000000
         C           -0.058067279891    -1.874065222990    -0.365364879354    12.000000000000
         C            1.151932720109    -1.218065222990    -0.207364879354    12.000000000000
         C           -1.145067279891    -1.246065222990    -0.988364879354    12.000000000000
         C           -1.042067279891     0.057934777010    -1.473364879354    12.000000000000
         N            2.297932720109     0.961934777010    -0.678364879354    14.003074004430
         H           -0.166067279891    -2.887065222990     0.001635120646     1.007825032230
         H            1.989932720109    -1.695065222990     0.280635120646     1.007825032230
         H           -2.082067279891    -1.774065222990    -1.091364879354     1.007825032230
         H           -1.882067279891     0.538934777010    -1.952364879354     1.007825032230
         H            3.206932720109     0.804934777010    -0.257364879354     1.007825032230
         H            2.549932720109     3.011934777010    -1.404364879354     1.007825032230
         H            0.222932720109     4.102934777010    -2.128364879354     1.007825032230
         H           -1.190067279891     3.083934777010    -1.942364879354     1.007825032230
         H           -0.291047279891     3.042024777010    -3.473684879354     1.007825032230
         C           -1.351067279891    -1.872065222990     2.834635120646    12.000000000000
         C           -0.452067279891    -1.017065222990     3.673635120646    12.000000000000
         C           -2.723067279891    -1.768065222990     3.459635120646    12.000000000000
         H           -1.001067279891    -2.903065222990     2.783635120646     1.007825032230
         H           -1.407067279891    -1.441065222990     1.837635120646     1.007825032230
         H           -0.021067279891    -1.611065222990     4.479635120646     1.007825032230
         H            0.326932720109    -0.583065222990     3.044635120646     1.007825032230
         H           -2.839067279891    -2.568065222990     4.192635120646     1.007825032230
         H           -3.508067279891    -1.837065222990     2.710635120646     1.007825032230
         H           -1.133607279891    -0.256055222990     4.081505120646     1.007825032230
         H           -2.749787279891    -0.776385222990     3.934885120646     1.007825032230

  Running in c1 symmetry.

  Rotational constants: A =      0.04121  B =      0.01243  C =      0.01199 [cm^-1]
  Rotational constants: A =   1235.38696  B =    372.56269  C =    359.59873 [MHz]
  Nuclear repulsion =  745.879347716897428

  Charge       = 0
  Multiplicity = 1
  Electrons    = 96
  Nalpha       = 48
  Nbeta        = 48

  ==> Algorithm <==

  SCF Algorithm Type is PK.
  DIIS enabled.
  MOM disabled.
  Fractional occupation disabled.
  Guess Type is SAD.
  Energy threshold   = 1.00e-06
  Density threshold  = 1.00e-10
  Integral threshold = 0.00e+00

  ==> Primary Basis <==

  Basis Set: CC-PVDZ
    Blend: CC-PVDZ
    Number of shells: 129
    Number of basis function: 267
    Number of Cartesian functions: 280
    Spherical Harmonics?: true
    Max angular momentum: 2

  ==> Pre-Iterations <==

   -------------------------------------------------------
    Irrep   Nso     Nmo     Nalpha   Nbeta   Ndocc  Nsocc
   -------------------------------------------------------
     A        267     267       0       0       0       0
   -------------------------------------------------------
    Total     267     267      48      48      48       0
   -------------------------------------------------------

  ==> Integral Setup <==

  Using integral reordering PK algorithm.
  Sizing the integral batches needed.
  Building batch lookup table.
   Calculation information:
      Number of atoms:                  30
      Number of AO shells:             129
      Number of primitives:            371
      Number of atomic orbitals:       280
      Number of basis functions:       267

      Integral cutoff                 1.00e-12
      Number of threads:                 1

	Batch   1 pq = [       0,    9405] index = [             0,44231715] size =     44231715
	Batch   2 pq = [    9405,   13301] index = [      44231715,88464951] size =     44233236
	Batch   3 pq = [   13301,   16290] index = [      88464951,132690195] size =     44225244
	Batch   4 pq = [   16290,   18810] index = [     132690195,176917455] size =     44227260
	Batch   5 pq = [   18810,   21030] index = [     176917455,221140965] size =     44223510
	Batch   6 pq = [   21030,   23037] index = [     221140965,265363203] size =     44222238
	Batch   7 pq = [   23037,   24883] index = [     265363203,309594286] size =     44231083
	Batch   8 pq = [   24883,   26601] index = [     309594286,353819901] size =     44225615
	Batch   9 pq = [   26601,   28214] index = [     353819901,398029005] size =     44209104
	Batch  10 pq = [   28214,   29740] index = [     398029005,442248670] size =     44219665
	Batch  11 pq = [   29740,   31191] index = [     442248670,486454836] size =     44206166
	Batch  12 pq = [   31191,   32578] index = [     486454836,530679331] size =     44224495
	Batch  13 pq = [   32578,   33908] index = [     530679331,574893186] size =     44213855
	Batch  14 pq = [   33908,   35188] index = [     574893186,619115266] size =     44222080
	Batch  15 pq = [   35188,   35778] index = [     619115266,640050531] size =     20935265
  Task number: 58
  Buffer size: 11059200
  Buffer per thread: 2
  We computed 32918770 shell quartets total.
  Whereas there are 35158305 unique shell quartets.

  ==> DiskJK: Disk-Based J/K Matrices <==

    J tasked:                  Yes
    K tasked:                  Yes
    wK tasked:                  No
    Memory [MiB]:              375
    Schwarz Cutoff:          1E-12

    OpenMP threads:              1

  Minimum eigenvalue in the overlap matrix is 2.4145380921E-04.
  Using Symmetric Orthogonalization.

  SCF Guess: Superposition of Atomic Densities via on-the-fly atomic UHF.

  ==> Iterations <==

                        Total Energy        Delta E     RMS |[F,P]|

   @RHF iter SAD:  -518.21437193352074   -5.18214e+02   0.00000e+00
   @RHF iter   1:  -518.46890986384085   -2.54538e-01   2.53381e-03 DIIS
   @RHF iter   2:  -518.73101202864643   -2.62102e-01   1.14015e-03 DIIS
   @RHF iter   3:  -518.77989359033779   -4.88816e-02   2.86356e-04 DIIS
   @RHF iter   4:  -518.78406349231284   -4.16990e-03   1.29445e-04 DIIS
   @RHF iter   5:  -518.78473147502950   -6.67983e-04   1.99512e-05 DIIS
   @RHF iter   6:  -518.78476403413504   -3.25591e-05   8.76098e-06 DIIS
   @RHF iter   7:  -518.78477083068697   -6.79655e-06   3.59560e-06 DIIS
   @RHF iter   8:  -518.78477262736772   -1.79668e-06   1.54709e-06 DIIS
   @RHF iter   9:  -518.78477304495459   -4.17587e-07   6.74433e-07 DIIS
   @RHF iter  10:  -518.78477312968812   -8.47335e-08   2.96675e-07 DIIS
   @RHF iter  11:  -518.78477314871805   -1.90299e-08   1.10942e-07 DIIS
   @RHF iter  12:  -518.78477315123530   -2.51725e-09   4.13724e-08 DIIS
   @RHF iter  13:  -518.78477315143073   -1.95428e-10   1.15884e-08 DIIS
   @RHF iter  14:  -518.78477315144744   -1.67120e-11   4.22080e-09 DIIS
   @RHF iter  15:  -518.78477315145039   -2.95586e-12   2.20822e-09 DIIS
   @RHF iter  16:  -518.78477315145369   -3.29692e-12   9.70511e-10 DIIS
   @RHF iter  17:  -518.78477315145165    2.04636e-12   4.58611e-10 DIIS
   @RHF iter  18:  -518.78477315145392   -2.27374e-12   1.72922e-10 DIIS
   @RHF iter  19:  -518.78477315145608   -2.16005e-12   6.26218e-11 DIIS
  Energy and wave function converged.

  ==> Post-Iterations <==

    Orbital Energies [Eh]
    ---------------------

    Doubly Occupied:

       1A    -15.602358     2A    -11.265700     3A    -11.265184
       4A    -11.231915     5A    -11.231143     6A    -11.229890
       7A    -11.228710     8A    -11.221875     9A    -11.221294
      10A    -11.219685    11A    -11.203721    12A    -11.202087
      13A    -11.199444    14A     -1.295769    15A     -1.129390
      16A     -1.072956    17A     -1.060937    18A     -0.997698
      19A     -0.987996    20A     -0.932068    21A     -0.909127
      22A     -0.840799    23A     -0.804795    24A     -0.786360
      25A     -0.753884    26A     -0.720537    27A     -0.663331
      28A     -0.642403    29A     -0.629934    30A     -0.606264
      31A     -0.603496    32A     -0.591751    33A     -0.591152
      34A     -0.567728    35A     -0.553762    36A     -0.537091
      37A     -0.534671    38A     -0.527164    39A     -0.509170
      40A     -0.495264    41A     -0.475252    42A     -0.471846
      43A     -0.467796    44A     -0.452713    45A     -0.445786
      46A     -0.373964    47A     -0.295519    48A     -0.276098

    Virtual:

      49A      0.124449    50A      0.166310    51A      0.176488
      52A      0.185098    53A      0.191377    54A      0.209200
      55A      0.218800    56A      0.219643    57A      0.227511
      58A      0.235256    59A      0.250420    60A      0.251462
      61A      0.267075    62A      0.269965    63A      0.288322
      64A      0.295049    65A      0.301568    66A      0.307590
      67A      0.337537    68A      0.340133    69A      0.373463
      70A      0.381599    71A      0.385891    72A      0.403573
      73A      0.419631    74A      0.439587    75A      0.453361
      76A      0.473049    77A      0.480931    78A      0.502132
      79A      0.510337    80A      0.568597    81A      0.591411
      82A      0.601086    83A      0.613430    84A      0.625700
      85A      0.635013    86A      0.639388    87A      0.647139
      88A      0.665284    89A      0.675547    90A      0.695535
      91A      0.715141    92A      0.720950    93A      0.727780
      94A      0.732727    95A      0.739079    96A      0.750183
      97A      0.757053    98A      0.767240    99A      0.777353
     100A      0.788013   101A      0.791489   102A      0.793180
     103A      0.809535   104A      0.827471   105A      0.839365
     106A      0.864482   107A      0.871188   108A      0.877233
     109A      0.878681   110A      0.882741   111A      0.886920
     112A      0.892860   113A      0.902620   114A      0.909902
     115A      0.913487   116A      0.918940   117A      0.929419
     118A      0.934932   119A      0.947706   120A      0.950595
     121A      0.954463   122A      0.956502   123A      0.969313
     124A      0.978354   125A      0.993716   126A      0.998491
     127A      1.012645   128A      1.041029   129A      1.056219
     130A      1.070964   131A      1.084043   132A      1.108135
     133A      1.115393   134A      1.126931   135A      1.138509
     136A      1.144915   137A      1.176946   138A      1.180953
     139A      1.205631   140A      1.223730   141A      1.234653
     142A      1.235786   143A      1.251056   144A      1.258612
     145A      1.284038   146A      1.289636   147A      1.313908
     148A      1.330529   149A      1.334769   150A      1.361364
     151A      1.368680   152A      1.413178   153A      1.440481
     154A      1.452750   155A      1.487438   156A      1.509377
     157A      1.515598   158A      1.544095   159A      1.571225
     160A      1.596445   161A      1.623931   162A      1.629904
     163A      1.631406   164A      1.640979   165A      1.646256
     166A      1.652682   167A      1.688513   168A      1.699193
     169A      1.723188   170A      1.732554   171A      1.743391
     172A      1.771839   173A      1.776968   174A      1.793776
     175A      1.803316   176A      1.820327   177A      1.830859
     178A      1.846616   179A      1.869562   180A      1.884886
     181A      1.889165   182A      1.897166   183A      1.898428
     184A      1.904058   185A      1.910698   186A      1.929217
     187A      1.935627   188A      1.940305   189A      1.947358
     190A      1.954657   191A      1.957050   192A      1.968262
     193A      1.986617   194A      1.994409   195A      1.997189
     196A      2.011759   197A      2.017309   198A      2.038613
     199A      2.049966   200A      2.052167   201A      2.060955
     202A      2.075371   203A      2.086027   204A      2.091443
     205A      2.096886   206A      2.110691   207A      2.112978
     208A      2.119363   209A      2.141618   210A      2.159541
     211A      2.161079   212A      2.172038   213A      2.181845
     214A      2.225329   215A      2.241265   216A      2.253536
     217A      2.257032   218A      2.284620   219A      2.304600
     220A      2.316037   221A      2.321930   222A      2.336293
     223A      2.359315   224A      2.381625   225A      2.394599
     226A      2.406343   227A      2.448401   228A      2.460978
     229A      2.464660   230A      2.469386   231A      2.515587
     232A      2.533301   233A      2.568671   234A      2.582404
     235A      2.597841   236A      2.629108   237A      2.651943
     238A      2.661476   239A      2.676489   240A      2.700951
     241A      2.718516   242A      2.761664   243A      2.766386
     244A      2.776296   245A      2.787533   246A      2.801921
     247A      2.804802   248A      2.809222   249A      2.827124
     250A      2.848067   251A      2.863879   252A      2.866977
     253A      2.883010   254A      2.912299   255A      2.930207
     256A      2.961172   257A      2.985593   258A      3.036554
     259A      3.050962   260A      3.071183   261A      3.098142
     262A      3.118946   263A      3.206342   264A      3.300594
     265A      3.375545   266A      3.737843   267A      3.953882

    Final Occupation by Irrep:
              A
    DOCC [    48 ]

  @RHF Final Energy:  -518.78477315145608

   => Energetics <=

    Nuclear Repulsion Energy =            745.8793477168974277
    One-Electron Energy =               -2181.4732808928906707
    Two-Electron Energy =                 916.8091600245371637
    Total Energy =                       -518.7847731514560792

Computation Completed

Properties will be evaluated at   0.000000,   0.000000,   0.000000 [a0]

Properties computed using the SCF density matrix

  Nuclear Dipole Moment: [e a0]
     X:    -9.3574      Y:    -3.5158      Z:    14.1555

  Electronic Dipole Moment: [e a0]
     X:    10.1201      Y:     3.8394      Z:   -14.1237

  Dipole Moment: [e a0]
     X:     0.7628      Y:     0.3236      Z:     0.0318     Total:     0.8292

  Dipole Moment: [D]
     X:     1.9388      Y:     0.8226      Z:     0.0809     Total:     2.1077

*** tstop() called on ds3 at Tue Apr 28 14:13:10 2020
Module time:
	user time   =     271.96 seconds =       4.53 minutes
	system time =     111.09 seconds =       1.85 minutes
	total time  =        525 seconds =       8.75 minutes
Total time:
	user time   =     271.96 seconds =       4.53 minutes
	system time =     111.09 seconds =       1.85 minutes
	total time  =        525 seconds =       8.75 minutes
                                     G D M A

                                 by Anthony Stone

                           version 2.2.06, 22 June 2011

               Distributed Multipoles from Gaussian wavefunctions

Starting at 14:13:10 on 28 Apr 2020

Using SCF density matrix from file ./SSI/SSI-062TRP-166PRO-1-dimer.test.21018.fchk

                         Distributed Multipole Analysis

Standard DMA

Positions and radii in angstrom
Multipole moments in atomic units, ea_0^k for rank k

C          x = -0.192067  y =  3.125935  z = -2.381365 angstrom
           Maximum rank =  0   Radius =  0.650 angstrom
                   Q00  =  -0.210548

C          x =  1.252933  y =  0.076935  z = -0.695365 angstrom
           Maximum rank =  0   Radius =  0.650 angstrom
                   Q00  =   0.296054

C          x =  0.171933  y =  0.737935  z = -1.337365 angstrom
           Maximum rank =  0   Radius =  0.650 angstrom
                   Q00  =  -0.051951

C          x =  0.623933  y =  2.052935  z = -1.707365 angstrom
           Maximum rank =  0   Radius =  0.650 angstrom
                   Q00  =  -0.126566

C          x =  1.918933  y =  2.135935  z = -1.288365 angstrom
           Maximum rank =  0   Radius =  0.650 angstrom
                   Q00  =   0.075472

C          x = -0.058067  y = -1.874065  z = -0.365365 angstrom
           Maximum rank =  0   Radius =  0.650 angstrom
                   Q00  =  -0.066363

C          x =  1.151933  y = -1.218065  z = -0.207365 angstrom
           Maximum rank =  0   Radius =  0.650 angstrom
                   Q00  =  -0.126114

C          x = -1.145067  y = -1.246065  z = -0.988365 angstrom
           Maximum rank =  0   Radius =  0.650 angstrom
                   Q00  =  -0.085398

C          x = -1.042067  y =  0.057935  z = -1.473365 angstrom
           Maximum rank =  0   Radius =  0.650 angstrom
                   Q00  =  -0.097941

N          x =  2.297933  y =  0.961935  z = -0.678365 angstrom
           Maximum rank =  0   Radius =  0.650 angstrom
                   Q00  =  -0.497219

H          x = -0.166067  y = -2.887065  z =  0.001635 angstrom
           Maximum rank =  0   Radius =  0.325 angstrom
                   Q00  =   0.066517

H          x =  1.989933  y = -1.695065  z =  0.280635 angstrom
           Maximum rank =  0   Radius =  0.325 angstrom
                   Q00  =   0.073564

H          x = -2.082067  y = -1.774065  z = -1.091365 angstrom
           Maximum rank =  0   Radius =  0.325 angstrom
                   Q00  =   0.060367

H          x = -1.882067  y =  0.538935  z = -1.952365 angstrom
           Maximum rank =  0   Radius =  0.325 angstrom
                   Q00  =   0.071428

H          x =  3.206933  y =  0.804935  z = -0.257365 angstrom
           Maximum rank =  0   Radius =  0.325 angstrom
                   Q00  =   0.217078

H          x =  2.549933  y =  3.011935  z = -1.404365 angstrom
           Maximum rank =  0   Radius =  0.325 angstrom
                   Q00  =   0.101310

H          x =  0.222933  y =  4.102935  z = -2.128365 angstrom
           Maximum rank =  0   Radius =  0.325 angstrom
                   Q00  =   0.104247

H          x = -1.190067  y =  3.083935  z = -1.942365 angstrom
           Maximum rank =  0   Radius =  0.325 angstrom
                   Q00  =   0.099877

H          x = -0.291047  y =  3.042025  z = -3.473685 angstrom
           Maximum rank =  0   Radius =  0.325 angstrom
                   Q00  =   0.100681

C          x = -1.351067  y = -1.872065  z =  2.834635 angstrom
           Maximum rank =  0   Radius =  0.650 angstrom
                   Q00  =  -0.101958

C          x = -0.452067  y = -1.017065  z =  3.673635 angstrom
           Maximum rank =  0   Radius =  0.650 angstrom
                   Q00  =  -0.218900

C          x = -2.723067  y = -1.768065  z =  3.459635 angstrom
           Maximum rank =  0   Radius =  0.650 angstrom
                   Q00  =  -0.220240

H          x = -1.001067  y = -2.903065  z =  2.783635 angstrom
           Maximum rank =  0   Radius =  0.325 angstrom
                   Q00  =   0.040620

H          x = -1.407067  y = -1.441065  z =  1.837635 angstrom
           Maximum rank =  0   Radius =  0.325 angstrom
                   Q00  =   0.073172

H          x = -0.021067  y = -1.611065  z =  4.479635 angstrom
           Maximum rank =  0   Radius =  0.325 angstrom
                   Q00  =   0.069007

H          x =  0.326933  y = -0.583065  z =  3.044635 angstrom
           Maximum rank =  0   Radius =  0.325 angstrom
                   Q00  =   0.087750

H          x = -2.839067  y = -2.568065  z =  4.192635 angstrom
           Maximum rank =  0   Radius =  0.325 angstrom
                   Q00  =   0.076926

H          x = -3.508067  y = -1.837065  z =  2.710635 angstrom
           Maximum rank =  0   Radius =  0.325 angstrom
                   Q00  =   0.077303

H          x = -1.133607  y = -0.256055  z =  4.081505 angstrom
           Maximum rank =  0   Radius =  0.325 angstrom
                   Q00  =   0.059433

H          x = -2.749787  y = -0.776385  z =  3.934885 angstrom
           Maximum rank =  0   Radius =  0.325 angstrom
                   Q00  =   0.052393

Total multipoles referred to origin at
           x =   0.000000,  y =    0.000000,  z =    0.000000 angstrom
                   Q00  =  -0.000000

Finished at 14:13:10 on 28 Apr 2020

  DMA results are available in the Python driver through the
	  variable('DMA DISTRIBUTED MULTIPOLES')
  and
	  variable('DMA TOTAL MULTIPOLES')
  commands.

    Psi4 stopped on: Tuesday, 28 April 2020 02:13PM
    Psi4 wall time for execution: 0:08:44.96

*** Psi4 exiting successfully. Buy a developer a beer!
