                               Psi4 1.3.2 release

  ==> Input File <==

--------------------------------------------------------------------------
import numpy as np
set {scf_type pk
basis cc-pvdz
d_convergence 10
gdma_switch   0
gdma_limit    0
gdma_origin   [ 0.0,  0.0,  0.0 ]
}
molecule test {
    units Angstrom
    0 1
    --
    0 1
    C               -1.740487713501529     1.678034246812386     2.740020749080171
    C               -1.522487713501528     0.764034246812386     3.957020749080170
    H               -2.803487713501529     1.749034246812386     2.507020749080170
    H               -1.385487713501529     2.679034246812386     2.979020749080171
    H               -1.189487713501528     1.297034246812386     1.880020749080171
    H               -2.184487713501528     1.085034246812385     4.755020749080170
    H               -1.734937713501528    -0.285165753187614     3.703960749080171
    H               -0.488247713501529     0.826544246812386     4.326390749080171
    C                2.668512286498471    -1.576965753187614    -1.279979250919829
    C                0.070512286498472     1.156034246812386    -0.594979250919829
    C               -1.084487713501529     0.502034246812386    -0.989979250919829
    C                1.287512286498471     0.468034246812386    -0.700979250919829
    C                1.352512286498472    -0.858965753187614    -1.143979250919829
    C               -1.032487713501528    -0.825965753187614    -1.405979250919829
    C                0.194512286498471    -1.507965753187614    -1.514979250919829
    H                0.039512286498472     2.181034246812386    -0.253979250919829
    H               -2.026487713501528     1.024034246812386    -0.966979250919829
    H                2.200512286498471     0.976034246812386    -0.420979250919829
    H               -1.944487713501529    -1.340965753187614    -1.659979250919829
    H                2.535512286498471    -2.647965753187615    -1.117979250919829
    H                3.320512286498472    -1.207965753187614    -0.487979250919829
    H                0.218512286498472    -2.530965753187615    -1.864979250919830
    H                3.137262286498471    -1.403245753187614    -2.259825250919830

}
e, wfn = energy('scf', return_wfn=True)
gdma(wfn)
dmavals = variable('DMA DISTRIBUTED MULTIPOLES')
charges = np.array(dmavals)
print(charges)
np.save('SSI-195LEU-205PHE-1-dimer.npy', np.array(charges))--------------------------------------------------------------------------

*** tstart() called on ds3
*** at Mon Apr 27 07:24:25 2020

   => Loading Basis Set <=

    Name: CC-PVDZ
    Role: ORBITAL
    Keyword: BASIS
    atoms 1-2, 9-15  entry C          line   138 file /theoryfs2/ds/metcalf/miniconda2/envs/tf2gpu/share/psi4/basis/cc-pvdz.gbs
    atoms 3-8, 16-23 entry H          line    22 file /theoryfs2/ds/metcalf/miniconda2/envs/tf2gpu/share/psi4/basis/cc-pvdz.gbs

         ---------------------------------------------------------
                                   SCF
               by Justin Turney, Rob Parrish, Andy Simmonett
                          and Daniel G. A. Smith
                              RHF Reference
                        1 Threads,    500 MiB Core
         ---------------------------------------------------------

  ==> Geometry <==

    Molecular point group: c1
    Full point group: C1

    Geometry (in Angstrom), charge = 0, multiplicity = 1:

       Center              X                  Y                   Z               Mass
    ------------   -----------------  -----------------  -----------------  -----------------
         C           -1.740487713502     1.678034246812     2.740020749080    12.000000000000
         C           -1.522487713502     0.764034246812     3.957020749080    12.000000000000
         H           -2.803487713502     1.749034246812     2.507020749080     1.007825032230
         H           -1.385487713502     2.679034246812     2.979020749080     1.007825032230
         H           -1.189487713502     1.297034246812     1.880020749080     1.007825032230
         H           -2.184487713502     1.085034246812     4.755020749080     1.007825032230
         H           -1.734937713502    -0.285165753188     3.703960749080     1.007825032230
         H           -0.488247713502     0.826544246812     4.326390749080     1.007825032230
         C            2.668512286498    -1.576965753188    -1.279979250920    12.000000000000
         C            0.070512286498     1.156034246812    -0.594979250920    12.000000000000
         C           -1.084487713502     0.502034246812    -0.989979250920    12.000000000000
         C            1.287512286498     0.468034246812    -0.700979250920    12.000000000000
         C            1.352512286498    -0.858965753188    -1.143979250920    12.000000000000
         C           -1.032487713502    -0.825965753188    -1.405979250920    12.000000000000
         C            0.194512286498    -1.507965753188    -1.514979250920    12.000000000000
         H            0.039512286498     2.181034246812    -0.253979250920     1.007825032230
         H           -2.026487713502     1.024034246812    -0.966979250920     1.007825032230
         H            2.200512286498     0.976034246812    -0.420979250920     1.007825032230
         H           -1.944487713502    -1.340965753188    -1.659979250920     1.007825032230
         H            2.535512286498    -2.647965753188    -1.117979250920     1.007825032230
         H            3.320512286498    -1.207965753188    -0.487979250920     1.007825032230
         H            0.218512286498    -2.530965753188    -1.864979250920     1.007825032230
         H            3.137262286498    -1.403245753188    -2.259825250920     1.007825032230

  Running in c1 symmetry.

  Rotational constants: A =      0.07617  B =      0.02142  C =      0.01980 [cm^-1]
  Rotational constants: A =   2283.42680  B =    642.06195  C =    593.73376 [MHz]
  Nuclear repulsion =  401.576300163615599

  Charge       = 0
  Multiplicity = 1
  Electrons    = 68
  Nalpha       = 34
  Nbeta        = 34

  ==> Algorithm <==

  SCF Algorithm Type is PK.
  DIIS enabled.
  MOM disabled.
  Fractional occupation disabled.
  Guess Type is SAD.
  Energy threshold   = 1.00e-06
  Density threshold  = 1.00e-10
  Integral threshold = 0.00e+00

  ==> Primary Basis <==

  Basis Set: CC-PVDZ
    Blend: CC-PVDZ
    Number of shells: 96
    Number of basis function: 196
    Number of Cartesian functions: 205
    Spherical Harmonics?: true
    Max angular momentum: 2

  ==> Pre-Iterations <==

   -------------------------------------------------------
    Irrep   Nso     Nmo     Nalpha   Nbeta   Ndocc  Nsocc
   -------------------------------------------------------
     A        196     196       0       0       0       0
   -------------------------------------------------------
    Total     196     196      34      34      34       0
   -------------------------------------------------------

  ==> Integral Setup <==

  Using integral reordering PK algorithm.
  Sizing the integral batches needed.
  Building batch lookup table.
   Calculation information:
      Number of atoms:                  23
      Number of AO shells:              96
      Number of primitives:            268
      Number of atomic orbitals:       205
      Number of basis functions:       196

      Integral cutoff                 1.00e-12
      Number of threads:                 1

	Batch   1 pq = [       0,    9405] index = [             0,44231715] size =     44231715
	Batch   2 pq = [    9405,   13301] index = [      44231715,88464951] size =     44233236
	Batch   3 pq = [   13301,   16290] index = [      88464951,132690195] size =     44225244
	Batch   4 pq = [   16290,   18810] index = [     132690195,176917455] size =     44227260
	Batch   5 pq = [   18810,   19306] index = [     176917455,186370471] size =      9453016
  Task number: 17
  Buffer size: 11059200
  Buffer per thread: 2
  We computed 8815755 shell quartets total.
  Whereas there are 10841496 unique shell quartets.

  ==> DiskJK: Disk-Based J/K Matrices <==

    J tasked:                  Yes
    K tasked:                  Yes
    wK tasked:                  No
    Memory [MiB]:              375
    Schwarz Cutoff:          1E-12

    OpenMP threads:              1

  Minimum eigenvalue in the overlap matrix is 3.2488842316E-04.
  Using Symmetric Orthogonalization.

  SCF Guess: Superposition of Atomic Densities via on-the-fly atomic UHF.

  ==> Iterations <==

                        Total Energy        Delta E     RMS |[F,P]|

   @RHF iter SAD:  -347.83843365873781   -3.47838e+02   0.00000e+00
   @RHF iter   1:  -348.76778760807076   -9.29354e-01   2.88234e-03 DIIS
   @RHF iter   2:  -348.95872708060267   -1.90939e-01   1.19555e-03 DIIS
   @RHF iter   3:  -348.98864762730830   -2.99205e-02   2.59357e-04 DIIS
   @RHF iter   4:  -348.99110695872628   -2.45933e-03   5.72374e-05 DIIS
   @RHF iter   5:  -348.99118969804022   -8.27393e-05   1.93068e-05 DIIS
   @RHF iter   6:  -348.99119880178739   -9.10375e-06   4.99633e-06 DIIS
   @RHF iter   7:  -348.99119954572490   -7.43938e-07   1.29634e-06 DIIS
   @RHF iter   8:  -348.99119961528345   -6.95586e-08   3.91065e-07 DIIS
   @RHF iter   9:  -348.99119962950346   -1.42200e-08   1.82312e-07 DIIS
   @RHF iter  10:  -348.99119963343310   -3.92964e-09   8.54279e-08 DIIS
   @RHF iter  11:  -348.99119963453927   -1.10617e-09   2.56465e-08 DIIS
   @RHF iter  12:  -348.99119963461141   -7.21343e-11   9.03319e-09 DIIS
   @RHF iter  13:  -348.99119963461595   -4.54747e-12   3.73964e-09 DIIS
   @RHF iter  14:  -348.99119963461521    7.38964e-13   9.08456e-10 DIIS
   @RHF iter  15:  -348.99119963461703   -1.81899e-12   3.49588e-10 DIIS
   @RHF iter  16:  -348.99119963461675    2.84217e-13   1.15342e-10 DIIS
   @RHF iter  17:  -348.99119963461749   -7.38964e-13   5.14561e-11 DIIS
  Energy and wave function converged.

  ==> Post-Iterations <==

    Orbital Energies [Eh]
    ---------------------

    Doubly Occupied:

       1A    -11.239403     2A    -11.237081     3A    -11.236289
       4A    -11.232482     5A    -11.230873     6A    -11.230618
       7A    -11.229276     8A    -11.214771     9A    -11.211739
      10A     -1.152339    11A     -1.046492    12A     -1.011128
      13A     -1.008452    14A     -0.931081    15A     -0.833906
      16A     -0.827083    17A     -0.793570    18A     -0.690737
      19A     -0.632672    20A     -0.629969    21A     -0.594606
      22A     -0.589222    23A     -0.582136    24A     -0.578629
      25A     -0.562492    26A     -0.534076    27A     -0.495530
      28A     -0.491615    29A     -0.489150    30A     -0.479944
      31A     -0.479113    32A     -0.475827    33A     -0.330787
      34A     -0.322719

    Virtual:

      35A      0.132040    36A      0.142282    37A      0.179206
      38A      0.193134    39A      0.204810    40A      0.216748
      41A      0.235656    42A      0.244542    43A      0.254281
      44A      0.262164    45A      0.267635    46A      0.276680
      47A      0.283068    48A      0.290248    49A      0.295512
      50A      0.318683    51A      0.365713    52A      0.375579
      53A      0.397055    54A      0.451027    55A      0.462294
      56A      0.479188    57A      0.486939    58A      0.560003
      59A      0.589964    60A      0.597514    61A      0.603650
      62A      0.624036    63A      0.638200    64A      0.667978
      65A      0.678857    66A      0.683251    67A      0.692423
      68A      0.707986    69A      0.723743    70A      0.735298
      71A      0.742245    72A      0.751273    73A      0.752834
      74A      0.766534    75A      0.784247    76A      0.819271
      77A      0.840817    78A      0.855416    79A      0.861058
      80A      0.867691    81A      0.877826    82A      0.883521
      83A      0.892612    84A      0.894858    85A      0.898542
      86A      0.904339    87A      0.909517    88A      0.918073
      89A      0.927572    90A      0.937841    91A      0.941030
      92A      0.948778    93A      0.986572    94A      1.000898
      95A      1.023696    96A      1.076586    97A      1.115176
      98A      1.124503    99A      1.133154   100A      1.140017
     101A      1.146267   102A      1.174713   103A      1.188245
     104A      1.238656   105A      1.242564   106A      1.246068
     107A      1.252758   108A      1.287813   109A      1.301342
     110A      1.317434   111A      1.325076   112A      1.338828
     113A      1.408970   114A      1.476173   115A      1.485282
     116A      1.506193   117A      1.524233   118A      1.563956
     119A      1.592836   120A      1.597899   121A      1.675159
     122A      1.686690   123A      1.696181   124A      1.700082
     125A      1.729544   126A      1.748091   127A      1.766025
     128A      1.788081   129A      1.807180   130A      1.859332
     131A      1.870858   132A      1.878438   133A      1.882321
     134A      1.886736   135A      1.895289   136A      1.909243
     137A      1.915705   138A      1.922844   139A      1.934979
     140A      1.943664   141A      1.948581   142A      1.950339
     143A      1.952250   144A      1.963961   145A      1.970911
     146A      1.982618   147A      1.985592   148A      1.999851
     149A      2.034410   150A      2.066315   151A      2.068653
     152A      2.111013   153A      2.114583   154A      2.121280
     155A      2.141637   156A      2.152866   157A      2.164536
     158A      2.170607   159A      2.184658   160A      2.259025
     161A      2.277097   162A      2.283649   163A      2.299813
     164A      2.303533   165A      2.311589   166A      2.317539
     167A      2.326236   168A      2.455911   169A      2.461653
     170A      2.466192   171A      2.480333   172A      2.487263
     173A      2.540632   174A      2.566020   175A      2.586374
     176A      2.621230   177A      2.739112   178A      2.754661
     179A      2.766389   180A      2.769218   181A      2.784101
     182A      2.802088   183A      2.809515   184A      2.841417
     185A      2.849651   186A      2.868728   187A      2.880031
     188A      2.952885   189A      2.964703   190A      2.974818
     191A      3.018023   192A      3.021364   193A      3.143655
     194A      3.204111   195A      3.292826   196A      3.957572

    Final Occupation by Irrep:
              A
    DOCC [    34 ]

  @RHF Final Energy:  -348.99119963461749

   => Energetics <=

    Nuclear Repulsion Energy =            401.5763001636155991
    One-Electron Energy =               -1265.8833854487368171
    Two-Electron Energy =                 515.3158856505037875
    Total Energy =                       -348.9911996346174874

Computation Completed

Properties will be evaluated at   0.000000,   0.000000,   0.000000 [a0]

Properties computed using the SCF density matrix

  Nuclear Dipole Moment: [e a0]
     X:    -2.1611      Y:     2.2513      Z:    10.4235

  Electronic Dipole Moment: [e a0]
     X:     2.2869      Y:    -2.3264      Z:   -10.5027

  Dipole Moment: [e a0]
     X:     0.1258      Y:    -0.0751      Z:    -0.0792     Total:     0.1665

  Dipole Moment: [D]
     X:     0.3196      Y:    -0.1909      Z:    -0.2012     Total:     0.4232

*** tstop() called on ds3 at Mon Apr 27 07:26:02 2020
Module time:
	user time   =      61.87 seconds =       1.03 minutes
	system time =      30.08 seconds =       0.50 minutes
	total time  =         97 seconds =       1.62 minutes
Total time:
	user time   =      61.87 seconds =       1.03 minutes
	system time =      30.08 seconds =       0.50 minutes
	total time  =         97 seconds =       1.62 minutes
                                     G D M A

                                 by Anthony Stone

                           version 2.2.06, 22 June 2011

               Distributed Multipoles from Gaussian wavefunctions

Starting at 7:26:2 on 27 Apr 2020

Using SCF density matrix from file ./SSI/SSI-195LEU-205PHE-1-dimer.test.6963.fchk

                         Distributed Multipole Analysis

Standard DMA

Positions and radii in angstrom
Multipole moments in atomic units, ea_0^k for rank k

C          x = -1.740488  y =  1.678034  z =  2.740021 angstrom
           Maximum rank =  0   Radius =  0.650 angstrom
                   Q00  =  -0.245182

C          x = -1.522488  y =  0.764034  z =  3.957021 angstrom
           Maximum rank =  0   Radius =  0.650 angstrom
                   Q00  =  -0.239249

H          x = -2.803488  y =  1.749034  z =  2.507021 angstrom
           Maximum rank =  0   Radius =  0.325 angstrom
                   Q00  =   0.076819

H          x = -1.385488  y =  2.679034  z =  2.979021 angstrom
           Maximum rank =  0   Radius =  0.325 angstrom
                   Q00  =   0.073609

H          x = -1.189488  y =  1.297034  z =  1.880021 angstrom
           Maximum rank =  0   Radius =  0.325 angstrom
                   Q00  =   0.100598

H          x = -2.184488  y =  1.085034  z =  4.755021 angstrom
           Maximum rank =  0   Radius =  0.325 angstrom
                   Q00  =   0.076178

H          x = -1.734938  y = -0.285166  z =  3.703961 angstrom
           Maximum rank =  0   Radius =  0.325 angstrom
                   Q00  =   0.080464

H          x = -0.488248  y =  0.826544  z =  4.326391 angstrom
           Maximum rank =  0   Radius =  0.325 angstrom
                   Q00  =   0.078024

C          x =  2.668512  y = -1.576966  z = -1.279979 angstrom
           Maximum rank =  0   Radius =  0.650 angstrom
                   Q00  =  -0.202045

C          x =  0.070512  y =  1.156034  z = -0.594979 angstrom
           Maximum rank =  0   Radius =  0.650 angstrom
                   Q00  =  -0.078781

C          x = -1.084488  y =  0.502034  z = -0.989979 angstrom
           Maximum rank =  0   Radius =  0.650 angstrom
                   Q00  =  -0.096191

C          x =  1.287512  y =  0.468034  z = -0.700979 angstrom
           Maximum rank =  0   Radius =  0.650 angstrom
                   Q00  =   0.005146

C          x =  1.352512  y = -0.858966  z = -1.143979 angstrom
           Maximum rank =  0   Radius =  0.650 angstrom
                   Q00  =  -0.102308

C          x = -1.032488  y = -0.825966  z = -1.405979 angstrom
           Maximum rank =  0   Radius =  0.650 angstrom
                   Q00  =  -0.051776

C          x =  0.194512  y = -1.507966  z = -1.514979 angstrom
           Maximum rank =  0   Radius =  0.650 angstrom
                   Q00  =  -0.088321

H          x =  0.039512  y =  2.181034  z = -0.253979 angstrom
           Maximum rank =  0   Radius =  0.325 angstrom
                   Q00  =   0.070300

H          x = -2.026488  y =  1.024034  z = -0.966979 angstrom
           Maximum rank =  0   Radius =  0.325 angstrom
                   Q00  =   0.061366

H          x =  2.200512  y =  0.976034  z = -0.420979 angstrom
           Maximum rank =  0   Radius =  0.325 angstrom
                   Q00  =   0.056382

H          x = -1.944488  y = -1.340966  z = -1.659979 angstrom
           Maximum rank =  0   Radius =  0.325 angstrom
                   Q00  =   0.064384

H          x =  2.535512  y = -2.647966  z = -1.117979 angstrom
           Maximum rank =  0   Radius =  0.325 angstrom
                   Q00  =   0.098494

H          x =  3.320512  y = -1.207966  z = -0.487979 angstrom
           Maximum rank =  0   Radius =  0.325 angstrom
                   Q00  =   0.096565

H          x =  0.218512  y = -2.530966  z = -1.864979 angstrom
           Maximum rank =  0   Radius =  0.325 angstrom
                   Q00  =   0.060204

H          x =  3.137262  y = -1.403246  z = -2.259825 angstrom
           Maximum rank =  0   Radius =  0.325 angstrom
                   Q00  =   0.105320

Total multipoles referred to origin at
           x =   0.000000,  y =    0.000000,  z =    0.000000 angstrom
                   Q00  =  -0.000000

Finished at 7:26:2 on 27 Apr 2020

  DMA results are available in the Python driver through the
	  variable('DMA DISTRIBUTED MULTIPOLES')
  and
	  variable('DMA TOTAL MULTIPOLES')
  commands.

    Psi4 stopped on: Monday, 27 April 2020 07:26AM
    Psi4 wall time for execution: 0:01:36.73

*** Psi4 exiting successfully. Buy a developer a beer!
