                               Psi4 1.3.2 release

  ==> Input File <==

--------------------------------------------------------------------------
import numpy as np
set {scf_type pk
basis cc-pvdz
d_convergence 10
gdma_switch   0
gdma_limit    0
gdma_origin   [ 0.0,  0.0,  0.0 ]
}
molecule test {
    units Angstrom
    -1 1
    --
    -1 1
    C               -0.688710708427837     4.480401770464193     1.583536164725277
    C               -0.123710708427837     0.250401770464192     1.067536164725277
    C                0.308289291572163     1.133401770464192     0.085536164725277
    C               -0.737710708427837     0.734401770464192     2.216536164725277
    C                0.127289291572163     2.500401770464192     0.258536164725277
    C               -0.916710708427837     2.104401770464192     2.383536164725278
    C               -0.475710708427837     2.999401770464192     1.413536164725277
    O                0.050289291572163    -1.088598229535808     0.901536164725277
    H                0.359289291572163    -1.290598229535808    -0.009463835274723
    H                0.780289291572163     0.755401770464192    -0.809463835274723
    H               -1.100710708427837     0.035401770464192     2.946536164725277
    H                0.468289291572163     3.181401770464192    -0.511463835274723
    H               -1.397710708427837     2.473401770464192     3.278536164725278
    H                0.073289291572163     5.011401770464192     1.011536164725277
    H               -0.560710708427837     4.758401770464192     2.631536164725277
    H               -1.679734708427837     4.799461770464192     1.228466164725277
    C               -0.408710708427837    -3.914598229535808    -1.810463835274723
    C                0.600289291572163    -2.872598229535808    -2.273463835274723
    O                0.773289291572163    -1.859598229535808    -1.558463835274723
    O                1.228289291572163    -3.068598229535808    -3.336463835274722
    H               -1.380710708427837    -3.448598229535808    -1.648463835274723
    H               -0.058710708427837    -4.323598229535808    -0.867463835274723
    H               -0.498473108427837    -4.757648229535807    -2.511323835274722

}
e, wfn = energy('scf', return_wfn=True)
gdma(wfn)
dmavals = variable('DMA DISTRIBUTED MULTIPOLES')
charges = np.array(dmavals)
print(charges)
np.save('SSI-052TYR-061ASP-1-dimer.npy', np.array(charges))--------------------------------------------------------------------------

*** tstart() called on ds3
*** at Sun Apr 26 21:22:50 2020

   => Loading Basis Set <=

    Name: CC-PVDZ
    Role: ORBITAL
    Keyword: BASIS
    atoms 1-7, 17-18  entry C          line   138 file /theoryfs2/ds/metcalf/miniconda2/envs/tf2gpu/share/psi4/basis/cc-pvdz.gbs
    atoms 8, 19-20    entry O          line   198 file /theoryfs2/ds/metcalf/miniconda2/envs/tf2gpu/share/psi4/basis/cc-pvdz.gbs
    atoms 9-16, 21-23 entry H          line    22 file /theoryfs2/ds/metcalf/miniconda2/envs/tf2gpu/share/psi4/basis/cc-pvdz.gbs

         ---------------------------------------------------------
                                   SCF
               by Justin Turney, Rob Parrish, Andy Simmonett
                          and Daniel G. A. Smith
                              RHF Reference
                        1 Threads,    500 MiB Core
         ---------------------------------------------------------

  ==> Geometry <==

    Molecular point group: c1
    Full point group: C1

    Geometry (in Angstrom), charge = -1, multiplicity = 1:

       Center              X                  Y                   Z               Mass
    ------------   -----------------  -----------------  -----------------  -----------------
         C           -0.688710708428     4.480401770464     1.583536164725    12.000000000000
         C           -0.123710708428     0.250401770464     1.067536164725    12.000000000000
         C            0.308289291572     1.133401770464     0.085536164725    12.000000000000
         C           -0.737710708428     0.734401770464     2.216536164725    12.000000000000
         C            0.127289291572     2.500401770464     0.258536164725    12.000000000000
         C           -0.916710708428     2.104401770464     2.383536164725    12.000000000000
         C           -0.475710708428     2.999401770464     1.413536164725    12.000000000000
         O            0.050289291572    -1.088598229536     0.901536164725    15.994914619570
         H            0.359289291572    -1.290598229536    -0.009463835275     1.007825032230
         H            0.780289291572     0.755401770464    -0.809463835275     1.007825032230
         H           -1.100710708428     0.035401770464     2.946536164725     1.007825032230
         H            0.468289291572     3.181401770464    -0.511463835275     1.007825032230
         H           -1.397710708428     2.473401770464     3.278536164725     1.007825032230
         H            0.073289291572     5.011401770464     1.011536164725     1.007825032230
         H           -0.560710708428     4.758401770464     2.631536164725     1.007825032230
         H           -1.679734708428     4.799461770464     1.228466164725     1.007825032230
         C           -0.408710708428    -3.914598229536    -1.810463835275    12.000000000000
         C            0.600289291572    -2.872598229536    -2.273463835275    12.000000000000
         O            0.773289291572    -1.859598229536    -1.558463835275    15.994914619570
         O            1.228289291572    -3.068598229536    -3.336463835275    15.994914619570
         H           -1.380710708428    -3.448598229536    -1.648463835275     1.007825032230
         H           -0.058710708428    -4.323598229536    -0.867463835275     1.007825032230
         H           -0.498473108428    -4.757648229536    -2.511323835275     1.007825032230

  Running in c1 symmetry.

  Rotational constants: A =      0.08465  B =      0.01043  C =      0.00951 [cm^-1]
  Rotational constants: A =   2537.67992  B =    312.57086  C =    285.18107 [MHz]
  Nuclear repulsion =  631.238565824703301

  Charge       = -1
  Multiplicity = 1
  Electrons    = 90
  Nalpha       = 45
  Nbeta        = 45

  ==> Algorithm <==

  SCF Algorithm Type is PK.
  DIIS enabled.
  MOM disabled.
  Fractional occupation disabled.
  Guess Type is SAD.
  Energy threshold   = 1.00e-06
  Density threshold  = 1.00e-10
  Integral threshold = 0.00e+00

  ==> Primary Basis <==

  Basis Set: CC-PVDZ
    Blend: CC-PVDZ
    Number of shells: 105
    Number of basis function: 223
    Number of Cartesian functions: 235
    Spherical Harmonics?: true
    Max angular momentum: 2

  ==> Pre-Iterations <==

   -------------------------------------------------------
    Irrep   Nso     Nmo     Nalpha   Nbeta   Ndocc  Nsocc
   -------------------------------------------------------
     A        223     223       0       0       0       0
   -------------------------------------------------------
    Total     223     223      45      45      45       0
   -------------------------------------------------------

  ==> Integral Setup <==

  Using integral reordering PK algorithm.
  Sizing the integral batches needed.
  Building batch lookup table.
   Calculation information:
      Number of atoms:                  23
      Number of AO shells:             105
      Number of primitives:            319
      Number of atomic orbitals:       235
      Number of basis functions:       223

      Integral cutoff                 1.00e-12
      Number of threads:                 1

	Batch   1 pq = [       0,    9405] index = [             0,44231715] size =     44231715
	Batch   2 pq = [    9405,   13301] index = [      44231715,88464951] size =     44233236
	Batch   3 pq = [   13301,   16290] index = [      88464951,132690195] size =     44225244
	Batch   4 pq = [   16290,   18810] index = [     132690195,176917455] size =     44227260
	Batch   5 pq = [   18810,   21030] index = [     176917455,221140965] size =     44223510
	Batch   6 pq = [   21030,   23037] index = [     221140965,265363203] size =     44222238
	Batch   7 pq = [   23037,   24976] index = [     265363203,311912776] size =     46549573
  Task number: 29
  Buffer size: 11059200
  Buffer per thread: 2
  We computed 11508220 shell quartets total.
  Whereas there are 15487395 unique shell quartets.

  ==> DiskJK: Disk-Based J/K Matrices <==

    J tasked:                  Yes
    K tasked:                  Yes
    wK tasked:                  No
    Memory [MiB]:              375
    Schwarz Cutoff:          1E-12

    OpenMP threads:              1

  Minimum eigenvalue in the overlap matrix is 3.1979928565E-04.
  Using Symmetric Orthogonalization.

  SCF Guess: Superposition of Atomic Densities via on-the-fly atomic UHF.

  ==> Iterations <==

                        Total Energy        Delta E     RMS |[F,P]|

   @RHF iter SAD:  -570.28698467618756   -5.70287e+02   0.00000e+00
   @RHF iter   1:  -571.56645411860893   -1.27947e+00   3.58181e-03 DIIS
   @RHF iter   2:  -571.83452487790237   -2.68071e-01   1.86740e-03 DIIS
   @RHF iter   3:  -571.89951893760190   -6.49941e-02   3.40586e-04 DIIS
   @RHF iter   4:  -571.90320082233848   -3.68188e-03   1.31448e-04 DIIS
   @RHF iter   5:  -571.90373190834430   -5.31086e-04   2.34348e-05 DIIS
   @RHF iter   6:  -571.90375480018849   -2.28918e-05   1.20337e-05 DIIS
   @RHF iter   7:  -571.90375976698340   -4.96679e-06   3.35994e-06 DIIS
   @RHF iter   8:  -571.90376075018776   -9.83204e-07   1.49425e-06 DIIS
   @RHF iter   9:  -571.90376095418310   -2.03995e-07   6.50204e-07 DIIS
   @RHF iter  10:  -571.90376100084438   -4.66613e-08   2.71817e-07 DIIS
   @RHF iter  11:  -571.90376100931542   -8.47103e-09   1.09490e-07 DIIS
   @RHF iter  12:  -571.90376101061725   -1.30183e-09   4.49250e-08 DIIS
   @RHF iter  13:  -571.90376101082222   -2.04977e-10   1.66069e-08 DIIS
   @RHF iter  14:  -571.90376101084564   -2.34195e-11   7.01233e-09 DIIS
   @RHF iter  15:  -571.90376101084678   -1.13687e-12   2.54824e-09 DIIS
   @RHF iter  16:  -571.90376101084985   -3.06954e-12   1.00437e-09 DIIS
   @RHF iter  17:  -571.90376101084257    7.27596e-12   3.11015e-10 DIIS
   @RHF iter  18:  -571.90376101084507   -2.50111e-12   1.04335e-10 DIIS
   @RHF iter  19:  -571.90376101084212    2.95586e-12   4.90756e-11 DIIS
  Energy and wave function converged.

  ==> Post-Iterations <==

    Orbital Energies [Eh]
    ---------------------

    Doubly Occupied:

       1A    -20.419718     2A    -20.301543     3A    -20.287250
       4A    -11.175256     5A    -11.148745     6A    -11.142364
       7A    -11.133322     8A    -11.129709     9A    -11.126765
      10A    -11.116743    11A    -11.108798    12A    -11.067898
      13A     -1.242560    14A     -1.183922    15A     -1.070961
      16A     -1.041307    17A     -0.931004    18A     -0.906852
      19A     -0.822288    20A     -0.816969    21A     -0.729573
      22A     -0.686274    23A     -0.601993    24A     -0.553698
      25A     -0.536173    26A     -0.524404    27A     -0.493609
      28A     -0.488243    29A     -0.476363    30A     -0.456596
      31A     -0.442249    32A     -0.438059    33A     -0.433468
      34A     -0.428524    35A     -0.410395    36A     -0.388863
      37A     -0.374037    38A     -0.360278    39A     -0.348934
      40A     -0.334273    41A     -0.230125    42A     -0.220234
      43A     -0.202944    44A     -0.197541    45A     -0.183110

    Virtual:

      46A      0.239954    47A      0.265038    48A      0.271700
      49A      0.306628    50A      0.316528    51A      0.341387
      52A      0.346951    53A      0.361497    54A      0.367155
      55A      0.381682    56A      0.402256    57A      0.413252
      58A      0.459738    59A      0.460752    60A      0.477274
      61A      0.485161    62A      0.549212    63A      0.559269
      64A      0.571861    65A      0.600205    66A      0.610384
      67A      0.634162    68A      0.669491    69A      0.718252
      70A      0.725543    71A      0.728350    72A      0.760626
      73A      0.779193    74A      0.788673    75A      0.802022
      76A      0.804648    77A      0.813732    78A      0.835548
      79A      0.842641    80A      0.846037    81A      0.855502
      82A      0.880288    83A      0.893316    84A      0.900587
      85A      0.907115    86A      0.924624    87A      0.940497
      88A      0.943491    89A      0.957268    90A      0.964025
      91A      0.967392    92A      0.985989    93A      0.991026
      94A      1.020445    95A      1.022068    96A      1.022942
      97A      1.025537    98A      1.026147    99A      1.045184
     100A      1.045656   101A      1.058196   102A      1.093054
     103A      1.115012   104A      1.126292   105A      1.152810
     106A      1.171519   107A      1.207520   108A      1.233267
     109A      1.253579   110A      1.258379   111A      1.279936
     112A      1.314170   113A      1.323729   114A      1.328273
     115A      1.345149   116A      1.357432   117A      1.379793
     118A      1.403548   119A      1.411816   120A      1.423553
     121A      1.437744   122A      1.463877   123A      1.487005
     124A      1.495124   125A      1.523072   126A      1.531935
     127A      1.552715   128A      1.559595   129A      1.600879
     130A      1.615744   131A      1.620886   132A      1.653989
     133A      1.670089   134A      1.696544   135A      1.703581
     136A      1.746097   137A      1.771542   138A      1.795965
     139A      1.811774   140A      1.827230   141A      1.836580
     142A      1.843093   143A      1.856229   144A      1.872617
     145A      1.882560   146A      1.922124   147A      1.927638
     148A      1.977660   149A      1.984955   150A      2.006106
     151A      2.020186   152A      2.027252   153A      2.031323
     154A      2.047786   155A      2.060903   156A      2.063850
     157A      2.076976   158A      2.079973   159A      2.086359
     160A      2.096410   161A      2.106676   162A      2.153980
     163A      2.160293   164A      2.174865   165A      2.181149
     166A      2.190266   167A      2.194021   168A      2.242139
     169A      2.255103   170A      2.259900   171A      2.277975
     172A      2.291596   173A      2.325566   174A      2.331685
     175A      2.370523   176A      2.386967   177A      2.393814
     178A      2.403588   179A      2.413087   180A      2.436702
     181A      2.505416   182A      2.527281   183A      2.566077
     184A      2.575301   185A      2.588519   186A      2.627233
     187A      2.634648   188A      2.661141   189A      2.684809
     190A      2.702702   191A      2.732908   192A      2.765617
     193A      2.847763   194A      2.865419   195A      2.891864
     196A      2.899953   197A      2.909413   198A      2.922276
     199A      2.929019   200A      2.954706   201A      3.000951
     202A      3.010236   203A      3.078079   204A      3.119394
     205A      3.205036   206A      3.205895   207A      3.215205
     208A      3.260030   209A      3.279158   210A      3.365977
     211A      3.400554   212A      3.420149   213A      3.510483
     214A      3.599301   215A      3.728047   216A      3.766459
     217A      3.791833   218A      3.831915   219A      4.020756
     220A      4.061296   221A      4.116860   222A      4.167034
     223A      4.417147

    Final Occupation by Irrep:
              A
    DOCC [    45 ]

  @RHF Final Energy:  -571.90376101084212

   => Energetics <=

    Nuclear Repulsion Energy =            631.2385658247033007
    One-Electron Energy =               -2046.8567901600379173
    Two-Electron Energy =                 843.7144633244924989
    Total Energy =                       -571.9037610108421177

Computation Completed

Properties will be evaluated at   0.000000,   0.000000,   0.000000 [a0]

Properties computed using the SCF density matrix

  Nuclear Dipole Moment: [e a0]
     X:    -4.6734      Y:     6.7156      Z:     4.4234

  Electronic Dipole Moment: [e a0]
     X:     3.0867      Y:    -3.2704      Z:    -1.3031

  Dipole Moment: [e a0]
     X:    -1.5867      Y:     3.4453      Z:     3.1204     Total:     4.9116

  Dipole Moment: [D]
     X:    -4.0330      Y:     8.7570      Z:     7.9312     Total:    12.4841

*** tstop() called on ds3 at Sun Apr 26 21:27:20 2020
Module time:
	user time   =     102.91 seconds =       1.72 minutes
	system time =      52.17 seconds =       0.87 minutes
	total time  =        270 seconds =       4.50 minutes
Total time:
	user time   =     102.91 seconds =       1.72 minutes
	system time =      52.17 seconds =       0.87 minutes
	total time  =        270 seconds =       4.50 minutes
                                     G D M A

                                 by Anthony Stone

                           version 2.2.06, 22 June 2011

               Distributed Multipoles from Gaussian wavefunctions

Starting at 21:27:20 on 26 Apr 2020

Using SCF density matrix from file ./SSI/SSI-052TYR-061ASP-1-dimer.test.11367.fchk

                         Distributed Multipole Analysis

Standard DMA

Positions and radii in angstrom
Multipole moments in atomic units, ea_0^k for rank k

C          x = -0.688711  y =  4.480402  z =  1.583536 angstrom
           Maximum rank =  0   Radius =  0.650 angstrom
                   Q00  =  -0.189675

C          x = -0.123711  y =  0.250402  z =  1.067536 angstrom
           Maximum rank =  0   Radius =  0.650 angstrom
                   Q00  =   0.365140

C          x =  0.308289  y =  1.133402  z =  0.085536 angstrom
           Maximum rank =  0   Radius =  0.650 angstrom
                   Q00  =  -0.147548

C          x = -0.737711  y =  0.734402  z =  2.216536 angstrom
           Maximum rank =  0   Radius =  0.650 angstrom
                   Q00  =  -0.131618

C          x =  0.127289  y =  2.500402  z =  0.258536 angstrom
           Maximum rank =  0   Radius =  0.650 angstrom
                   Q00  =   0.025146

C          x = -0.916711  y =  2.104402  z =  2.383536 angstrom
           Maximum rank =  0   Radius =  0.650 angstrom
                   Q00  =  -0.024348

C          x = -0.475711  y =  2.999402  z =  1.413536 angstrom
           Maximum rank =  0   Radius =  0.650 angstrom
                   Q00  =  -0.150272

O          x =  0.050289  y = -1.088598  z =  0.901536 angstrom
           Maximum rank =  0   Radius =  0.650 angstrom
                   Q00  =  -0.785241

H          x =  0.359289  y = -1.290598  z = -0.009464 angstrom
           Maximum rank =  0   Radius =  0.325 angstrom
                   Q00  =   0.538001

H          x =  0.780289  y =  0.755402  z = -0.809464 angstrom
           Maximum rank =  0   Radius =  0.325 angstrom
                   Q00  =   0.090859

H          x = -1.100711  y =  0.035402  z =  2.946536 angstrom
           Maximum rank =  0   Radius =  0.325 angstrom
                   Q00  =   0.056792

H          x =  0.468289  y =  3.181402  z = -0.511464 angstrom
           Maximum rank =  0   Radius =  0.325 angstrom
                   Q00  =   0.045908

H          x = -1.397711  y =  2.473402  z =  3.278536 angstrom
           Maximum rank =  0   Radius =  0.325 angstrom
                   Q00  =   0.033673

H          x =  0.073289  y =  5.011402  z =  1.011536 angstrom
           Maximum rank =  0   Radius =  0.325 angstrom
                   Q00  =   0.084116

H          x = -0.560711  y =  4.758402  z =  2.631536 angstrom
           Maximum rank =  0   Radius =  0.325 angstrom
                   Q00  =   0.080435

H          x = -1.679735  y =  4.799462  z =  1.228466 angstrom
           Maximum rank =  0   Radius =  0.325 angstrom
                   Q00  =   0.081905

C          x = -0.408711  y = -3.914598  z = -1.810464 angstrom
           Maximum rank =  0   Radius =  0.650 angstrom
                   Q00  =  -0.288300

C          x =  0.600289  y = -2.872598  z = -2.273464 angstrom
           Maximum rank =  0   Radius =  0.650 angstrom
                   Q00  =   0.942744

O          x =  0.773289  y = -1.859598  z = -1.558464 angstrom
           Maximum rank =  0   Radius =  0.650 angstrom
                   Q00  =  -0.956017

O          x =  1.228289  y = -3.068598  z = -3.336464 angstrom
           Maximum rank =  0   Radius =  0.650 angstrom
                   Q00  =  -0.894624

H          x = -1.380711  y = -3.448598  z = -1.648464 angstrom
           Maximum rank =  0   Radius =  0.325 angstrom
                   Q00  =   0.079011

H          x = -0.058711  y = -4.323598  z = -0.867464 angstrom
           Maximum rank =  0   Radius =  0.325 angstrom
                   Q00  =   0.083236

H          x = -0.498473  y = -4.757648  z = -2.511324 angstrom
           Maximum rank =  0   Radius =  0.325 angstrom
                   Q00  =   0.060678

Total multipoles referred to origin at
           x =   0.000000,  y =    0.000000,  z =    0.000000 angstrom
                   Q00  =  -1.000000

Finished at 21:27:20 on 26 Apr 2020

  DMA results are available in the Python driver through the
	  variable('DMA DISTRIBUTED MULTIPOLES')
  and
	  variable('DMA TOTAL MULTIPOLES')
  commands.

    Psi4 stopped on: Sunday, 26 April 2020 09:27PM
    Psi4 wall time for execution: 0:04:30.35

*** Psi4 exiting successfully. Buy a developer a beer!
