                               Psi4 1.3.2 release

  ==> Input File <==

--------------------------------------------------------------------------
import numpy as np
set {scf_type pk
basis cc-pvdz
d_convergence 10
gdma_switch   0
gdma_limit    0
gdma_origin   [ 0.0,  0.0,  0.0 ]
}
molecule test {
    units Angstrom
    0 1
    --
    0 1
    C                1.415469856623305    -1.565414580793529     2.030707917758448
    C                2.826469856623305    -2.128414580793530     1.893707917758448
    H                0.989469856623305    -1.858414580793529     2.991707917758448
    H                1.460469856623305    -0.478414580793529     2.031707917758448
    H                0.778469856623305    -1.911414580793529     1.214707917758448
    H                3.146469856623305    -2.048414580793529     0.857707917758448
    H                2.848829856623305    -3.172974580793530     2.237807917758448
    H                3.537289856623305    -1.553534580793529     2.505467917758448
    C                0.419469856623305     0.690585419206471    -0.663292082241552
    C               -1.813530143376695     1.414585419206471    -2.107292082241552
    S               -1.371530143376696     0.748585419206471    -0.503292082241552
    H                0.867469856623305     1.658585419206471    -0.872292082241552
    H                0.834469856623305     0.355585419206471     0.277707917758448
    H                0.696469856623305    -0.031414580793529    -1.427292082241552
    H               -2.840530143376696     1.445585419206471    -2.328292082241552
    H               -1.578530143376695     0.572585419206471    -2.761292082241552
    H               -1.139370143376695     2.190125419206471    -2.499770082241552

}
e, wfn = energy('scf', return_wfn=True)
gdma(wfn)
dmavals = variable('DMA DISTRIBUTED MULTIPOLES')
charges = np.array(dmavals)
print(charges)
np.save('SSI-076LEU-086MET-1-dimer.npy', np.array(charges))--------------------------------------------------------------------------

*** tstart() called on ds3
*** at Mon Apr 27 22:36:38 2020

   => Loading Basis Set <=

    Name: CC-PVDZ
    Role: ORBITAL
    Keyword: BASIS
    atoms 1-2, 9-10  entry C          line   138 file /theoryfs2/ds/metcalf/miniconda2/envs/tf2gpu/share/psi4/basis/cc-pvdz.gbs
    atoms 3-8, 12-17 entry H          line    22 file /theoryfs2/ds/metcalf/miniconda2/envs/tf2gpu/share/psi4/basis/cc-pvdz.gbs
    atoms 11         entry S          line   598 file /theoryfs2/ds/metcalf/miniconda2/envs/tf2gpu/share/psi4/basis/cc-pvdz.gbs

         ---------------------------------------------------------
                                   SCF
               by Justin Turney, Rob Parrish, Andy Simmonett
                          and Daniel G. A. Smith
                              RHF Reference
                        1 Threads,    500 MiB Core
         ---------------------------------------------------------

  ==> Geometry <==

    Molecular point group: c1
    Full point group: C1

    Geometry (in Angstrom), charge = 0, multiplicity = 1:

       Center              X                  Y                   Z               Mass
    ------------   -----------------  -----------------  -----------------  -----------------
         C            1.415469856623    -1.565414580794     2.030707917758    12.000000000000
         C            2.826469856623    -2.128414580794     1.893707917758    12.000000000000
         H            0.989469856623    -1.858414580794     2.991707917758     1.007825032230
         H            1.460469856623    -0.478414580794     2.031707917758     1.007825032230
         H            0.778469856623    -1.911414580794     1.214707917758     1.007825032230
         H            3.146469856623    -2.048414580794     0.857707917758     1.007825032230
         H            2.848829856623    -3.172974580794     2.237807917758     1.007825032230
         H            3.537289856623    -1.553534580794     2.505467917758     1.007825032230
         C            0.419469856623     0.690585419206    -0.663292082242    12.000000000000
         C           -1.813530143377     1.414585419206    -2.107292082242    12.000000000000
         S           -1.371530143377     0.748585419206    -0.503292082242    31.972071174400
         H            0.867469856623     1.658585419206    -0.872292082242     1.007825032230
         H            0.834469856623     0.355585419206     0.277707917758     1.007825032230
         H            0.696469856623    -0.031414580794    -1.427292082242     1.007825032230
         H           -2.840530143377     1.445585419206    -2.328292082242     1.007825032230
         H           -1.578530143377     0.572585419206    -2.761292082242     1.007825032230
         H           -1.139370143377     2.190125419206    -2.499770082242     1.007825032230

  Running in c1 symmetry.

  Rotational constants: A =      0.34970  B =      0.02781  C =      0.02660 [cm^-1]
  Rotational constants: A =  10483.75377  B =    833.57756  C =    797.36052 [MHz]
  Nuclear repulsion =  219.168071473038111

  Charge       = 0
  Multiplicity = 1
  Electrons    = 52
  Nalpha       = 26
  Nbeta        = 26

  ==> Algorithm <==

  SCF Algorithm Type is PK.
  DIIS enabled.
  MOM disabled.
  Fractional occupation disabled.
  Guess Type is SAD.
  Energy threshold   = 1.00e-06
  Density threshold  = 1.00e-10
  Integral threshold = 0.00e+00

  ==> Primary Basis <==

  Basis Set: CC-PVDZ
    Blend: CC-PVDZ
    Number of shells: 68
    Number of basis function: 134
    Number of Cartesian functions: 139
    Spherical Harmonics?: true
    Max angular momentum: 2

  ==> Pre-Iterations <==

   -------------------------------------------------------
    Irrep   Nso     Nmo     Nalpha   Nbeta   Ndocc  Nsocc
   -------------------------------------------------------
     A        134     134       0       0       0       0
   -------------------------------------------------------
    Total     134     134      26      26      26       0
   -------------------------------------------------------

  ==> Integral Setup <==

  Using integral reordering PK algorithm.
  Sizing the integral batches needed.
  Building batch lookup table.
   Calculation information:
      Number of atoms:                  17
      Number of AO shells:              68
      Number of primitives:            198
      Number of atomic orbitals:       139
      Number of basis functions:       134

      Integral cutoff                 1.00e-12
      Number of threads:                 1

	Batch   1 pq = [       0,    9045] index = [             0,40910535] size =     40910535
  Task number: 4
  Buffer size: 11059200
  Buffer per thread: 2
  We computed 2078610 shell quartets total.
  Whereas there are 2753031 unique shell quartets.

  ==> DiskJK: Disk-Based J/K Matrices <==

    J tasked:                  Yes
    K tasked:                  Yes
    wK tasked:                  No
    Memory [MiB]:              375
    Schwarz Cutoff:          1E-12

    OpenMP threads:              1

  Minimum eigenvalue in the overlap matrix is 7.6827451811E-03.
  Using Symmetric Orthogonalization.

  SCF Guess: Superposition of Atomic Densities via on-the-fly atomic UHF.

  ==> Iterations <==

                        Total Energy        Delta E     RMS |[F,P]|

   @RHF iter SAD:  -554.97771637688618   -5.54978e+02   0.00000e+00
   @RHF iter   1:  -555.82754436375114   -8.49828e-01   3.38890e-03 DIIS
   @RHF iter   2:  -555.95154403288723   -1.24000e-01   1.33719e-03 DIIS
   @RHF iter   3:  -555.96951705813694   -1.79730e-02   3.16138e-04 DIIS
   @RHF iter   4:  -555.97139092459599   -1.87387e-03   4.93924e-05 DIIS
   @RHF iter   5:  -555.97143181536558   -4.08908e-05   1.11176e-05 DIIS
   @RHF iter   6:  -555.97143403037092   -2.21501e-06   2.78720e-06 DIIS
   @RHF iter   7:  -555.97143416302936   -1.32658e-07   8.23299e-07 DIIS
   @RHF iter   8:  -555.97143417869108   -1.56617e-08   2.52869e-07 DIIS
   @RHF iter   9:  -555.97143418080566   -2.11458e-09   8.44930e-08 DIIS
   @RHF iter  10:  -555.97143418106634   -2.60684e-10   2.87682e-08 DIIS
   @RHF iter  11:  -555.97143418109704   -3.06954e-11   9.38933e-09 DIIS
   @RHF iter  12:  -555.97143418110340   -6.36646e-12   3.42591e-09 DIIS
   @RHF iter  13:  -555.97143418110295    4.54747e-13   9.17345e-10 DIIS
   @RHF iter  14:  -555.97143418110250    4.54747e-13   2.28052e-10 DIIS
   @RHF iter  15:  -555.97143418110318   -6.82121e-13   7.80859e-11 DIIS
  Energy and wave function converged.

  ==> Post-Iterations <==

    Orbital Energies [Eh]
    ---------------------

    Doubly Occupied:

       1A    -91.935902     2A    -11.252104     3A    -11.249668
       4A    -11.220980     5A    -11.218962     6A     -8.939608
       7A     -6.621703     8A     -6.620173     9A     -6.617832
      10A     -1.065204    11A     -1.022063    12A     -0.956288
      13A     -0.839983    14A     -0.809972    15A     -0.618628
      16A     -0.603738    17A     -0.601434    18A     -0.593693
      19A     -0.575117    20A     -0.540614    21A     -0.510613
      22A     -0.501973    23A     -0.488246    24A     -0.482781
      25A     -0.427669    26A     -0.326466

    Virtual:

      27A      0.168892    28A      0.183318    29A      0.201025
      30A      0.231040    31A      0.235984    32A      0.237739
      33A      0.247263    34A      0.252865    35A      0.264129
      36A      0.276364    37A      0.288538    38A      0.294748
      39A      0.303954    40A      0.368824    41A      0.393975
      42A      0.516662    43A      0.565162    44A      0.574828
      45A      0.591553    46A      0.603408    47A      0.611722
      48A      0.627669    49A      0.631109    50A      0.686413
      51A      0.703217    52A      0.722185    53A      0.783381
      54A      0.796390    55A      0.811578    56A      0.821095
      57A      0.852694    58A      0.856224    59A      0.871760
      60A      0.874594    61A      0.884713    62A      0.887170
      63A      0.891101    64A      0.895233    65A      0.906276
      66A      0.925257    67A      0.927726    68A      0.937499
      69A      0.957560    70A      0.967344    71A      0.973438
      72A      1.044457    73A      1.116613    74A      1.146950
      75A      1.219201    76A      1.226221    77A      1.273696
      78A      1.291419    79A      1.314441    80A      1.351903
      81A      1.392219    82A      1.476048    83A      1.483712
      84A      1.503085    85A      1.521207    86A      1.562368
      87A      1.660308    88A      1.683902    89A      1.690874
      90A      1.706613    91A      1.823446    92A      1.861961
      93A      1.876408    94A      1.890801    95A      1.901756
      96A      1.909412    97A      1.924108    98A      1.927714
      99A      1.938337   100A      1.945421   101A      1.952508
     102A      1.962837   103A      1.967253   104A      2.006916
     105A      2.023092   106A      2.047833   107A      2.063617
     108A      2.095928   109A      2.129330   110A      2.151506
     111A      2.239495   112A      2.257794   113A      2.302098
     114A      2.306813   115A      2.411805   116A      2.429175
     117A      2.433176   118A      2.446877   119A      2.458205
     120A      2.464088   121A      2.573976   122A      2.599357
     123A      2.747867   124A      2.760805   125A      2.762597
     126A      2.781815   127A      2.788545   128A      2.812114
     129A      2.842656   130A      2.850133   131A      2.886281
     132A      2.919309   133A      2.951118   134A      2.973402

    Final Occupation by Irrep:
              A
    DOCC [    26 ]

  @RHF Final Energy:  -555.97143418110318

   => Energetics <=

    Nuclear Repulsion Energy =            219.1680714730381112
    One-Electron Energy =               -1196.9961883013720580
    Two-Electron Energy =                 421.8566826472307412
    Total Energy =                       -555.9714341811031773

Computation Completed

Properties will be evaluated at   0.000000,   0.000000,   0.000000 [a0]

Properties computed using the SCF density matrix

  Nuclear Dipole Moment: [e a0]
     X:     8.9644      Y:    -4.5102      Z:     2.0753

  Electronic Dipole Moment: [e a0]
     X:    -8.5425      Y:     4.5714      Z:    -2.5720

  Dipole Moment: [e a0]
     X:     0.4220      Y:     0.0612      Z:    -0.4967     Total:     0.6546

  Dipole Moment: [D]
     X:     1.0725      Y:     0.1555      Z:    -1.2625     Total:     1.6638

*** tstop() called on ds3 at Mon Apr 27 22:37:00 2020
Module time:
	user time   =      16.67 seconds =       0.28 minutes
	system time =       5.90 seconds =       0.10 minutes
	total time  =         22 seconds =       0.37 minutes
Total time:
	user time   =      16.67 seconds =       0.28 minutes
	system time =       5.90 seconds =       0.10 minutes
	total time  =         22 seconds =       0.37 minutes
                                     G D M A

                                 by Anthony Stone

                           version 2.2.06, 22 June 2011

               Distributed Multipoles from Gaussian wavefunctions

Starting at 22:37:0 on 27 Apr 2020

Using SCF density matrix from file ./SSI/SSI-076LEU-086MET-1-dimer.test.31438.fchk

                         Distributed Multipole Analysis

Standard DMA

Positions and radii in angstrom
Multipole moments in atomic units, ea_0^k for rank k

C          x =  1.415470  y = -1.565415  z =  2.030708 angstrom
           Maximum rank =  0   Radius =  0.650 angstrom
                   Q00  =  -0.237945

C          x =  2.826470  y = -2.128415  z =  1.893708 angstrom
           Maximum rank =  0   Radius =  0.650 angstrom
                   Q00  =  -0.234907

H          x =  0.989470  y = -1.858415  z =  2.991708 angstrom
           Maximum rank =  0   Radius =  0.325 angstrom
                   Q00  =   0.082166

H          x =  1.460470  y = -0.478415  z =  2.031708 angstrom
           Maximum rank =  0   Radius =  0.325 angstrom
                   Q00  =   0.071583

H          x =  0.778470  y = -1.911415  z =  1.214708 angstrom
           Maximum rank =  0   Radius =  0.325 angstrom
                   Q00  =   0.081752

H          x =  3.146470  y = -2.048415  z =  0.857708 angstrom
           Maximum rank =  0   Radius =  0.325 angstrom
                   Q00  =   0.077415

H          x =  2.848830  y = -3.172975  z =  2.237808 angstrom
           Maximum rank =  0   Radius =  0.325 angstrom
                   Q00  =   0.079684

H          x =  3.537290  y = -1.553535  z =  2.505468 angstrom
           Maximum rank =  0   Radius =  0.325 angstrom
                   Q00  =   0.076931

C          x =  0.419470  y =  0.690585  z = -0.663292 angstrom
           Maximum rank =  0   Radius =  0.650 angstrom
                   Q00  =  -0.376703

C          x = -1.813530  y =  1.414585  z = -2.107292 angstrom
           Maximum rank =  0   Radius =  0.650 angstrom
                   Q00  =  -0.310108

S          x = -1.371530  y =  0.748585  z = -0.503292 angstrom
           Maximum rank =  0   Radius =  0.650 angstrom
                   Q00  =   0.110000

H          x =  0.867470  y =  1.658585  z = -0.872292 angstrom
           Maximum rank =  0   Radius =  0.325 angstrom
                   Q00  =   0.091495

H          x =  0.834470  y =  0.355585  z =  0.277708 angstrom
           Maximum rank =  0   Radius =  0.325 angstrom
                   Q00  =   0.138213

H          x =  0.696470  y = -0.031415  z = -1.427292 angstrom
           Maximum rank =  0   Radius =  0.325 angstrom
                   Q00  =   0.080923

H          x = -2.840530  y =  1.445585  z = -2.328292 angstrom
           Maximum rank =  0   Radius =  0.325 angstrom
                   Q00  =   0.122325

H          x = -1.578530  y =  0.572585  z = -2.761292 angstrom
           Maximum rank =  0   Radius =  0.325 angstrom
                   Q00  =   0.058248

H          x = -1.139370  y =  2.190125  z = -2.499770 angstrom
           Maximum rank =  0   Radius =  0.325 angstrom
                   Q00  =   0.088926

Total multipoles referred to origin at
           x =   0.000000,  y =    0.000000,  z =    0.000000 angstrom
                   Q00  =   0.000000

Finished at 22:37:0 on 27 Apr 2020

  DMA results are available in the Python driver through the
	  variable('DMA DISTRIBUTED MULTIPOLES')
  and
	  variable('DMA TOTAL MULTIPOLES')
  commands.

    Psi4 stopped on: Monday, 27 April 2020 10:37PM
    Psi4 wall time for execution: 0:00:22.63

*** Psi4 exiting successfully. Buy a developer a beer!
