                               Psi4 1.3.2 release

  ==> Input File <==

--------------------------------------------------------------------------
import numpy as np
set {scf_type pk
basis cc-pvdz
d_convergence 10
gdma_switch   0
gdma_limit    0
gdma_origin   [ 0.0,  0.0,  0.0 ]
}
molecule test {
    units Angstrom
    0 1
    --
    0 1
    C               -1.899197898189267     0.665312603734327     1.710763237336967
    C               -1.035197898189267     1.274312603734328     2.799763237336967
    H               -2.748197898189267     0.148312603734327     2.158763237336967
    H               -2.270197898189267     1.449312603734327     1.048763237336967
    H               -1.326197898189267    -0.048687396265673     1.126763237336967
    H               -0.244197898189267     1.840312603734327     2.308763237336967
    H               -0.586519398189267     0.473872603734327     3.406373237336967
    H               -1.637027398189266     1.968672603734327     3.404463237336967
    C                0.632802101810733    -0.204687396265673    -0.980236762663033
    C                1.782802101810733     0.250312603734327    -1.887236762663033
    C               -0.507197898189267    -0.790687396265673    -1.810236762663033
    C                1.115802101810733    -1.219687396265672     0.038763237336967
    H                0.248802101810733     0.661312603734327    -0.441236762663033
    H                2.116802101810733    -0.621687396265673    -2.444236762663033
    H               -0.136197898189267    -1.612687396265672    -2.425236762663033
    H               -1.287197898189266    -1.166687396265673    -1.146236762663033
    H               -0.954197898189267    -0.031687396265673    -2.450236762663033
    H                1.767802101810733    -0.742687396265673     0.768763237336967
    H                0.270802101810733    -1.650687396265673     0.575763237336967
    H                1.651802101810733    -2.027687396265673    -0.460236762663033
    H                2.618703101810733     0.649732603734327    -1.294166762663033
    H                1.445835101810733     1.010122603734327    -2.607746762663033

}
e, wfn = energy('scf', return_wfn=True)
gdma(wfn)
dmavals = variable('DMA DISTRIBUTED MULTIPOLES')
charges = np.array(dmavals)
print(charges)
np.save('SSI-060LEU-120VAL-1-dimer.npy', np.array(charges))--------------------------------------------------------------------------

*** tstart() called on ds3
*** at Mon Apr 27 12:08:58 2020

   => Loading Basis Set <=

    Name: CC-PVDZ
    Role: ORBITAL
    Keyword: BASIS
    atoms 1-2, 9-12  entry C          line   138 file /theoryfs2/ds/metcalf/miniconda2/envs/tf2gpu/share/psi4/basis/cc-pvdz.gbs
    atoms 3-8, 13-22 entry H          line    22 file /theoryfs2/ds/metcalf/miniconda2/envs/tf2gpu/share/psi4/basis/cc-pvdz.gbs

         ---------------------------------------------------------
                                   SCF
               by Justin Turney, Rob Parrish, Andy Simmonett
                          and Daniel G. A. Smith
                              RHF Reference
                        1 Threads,    500 MiB Core
         ---------------------------------------------------------

  ==> Geometry <==

    Molecular point group: c1
    Full point group: C1

    Geometry (in Angstrom), charge = 0, multiplicity = 1:

       Center              X                  Y                   Z               Mass
    ------------   -----------------  -----------------  -----------------  -----------------
         C           -1.899197898189     0.665312603734     1.710763237337    12.000000000000
         C           -1.035197898189     1.274312603734     2.799763237337    12.000000000000
         H           -2.748197898189     0.148312603734     2.158763237337     1.007825032230
         H           -2.270197898189     1.449312603734     1.048763237337     1.007825032230
         H           -1.326197898189    -0.048687396266     1.126763237337     1.007825032230
         H           -0.244197898189     1.840312603734     2.308763237337     1.007825032230
         H           -0.586519398189     0.473872603734     3.406373237337     1.007825032230
         H           -1.637027398189     1.968672603734     3.404463237337     1.007825032230
         C            0.632802101811    -0.204687396266    -0.980236762663    12.000000000000
         C            1.782802101811     0.250312603734    -1.887236762663    12.000000000000
         C           -0.507197898189    -0.790687396266    -1.810236762663    12.000000000000
         C            1.115802101811    -1.219687396266     0.038763237337    12.000000000000
         H            0.248802101811     0.661312603734    -0.441236762663     1.007825032230
         H            2.116802101811    -0.621687396266    -2.444236762663     1.007825032230
         H           -0.136197898189    -1.612687396266    -2.425236762663     1.007825032230
         H           -1.287197898189    -1.166687396266    -1.146236762663     1.007825032230
         H           -0.954197898189    -0.031687396266    -2.450236762663     1.007825032230
         H            1.767802101811    -0.742687396266     0.768763237337     1.007825032230
         H            0.270802101811    -1.650687396266     0.575763237337     1.007825032230
         H            1.651802101811    -2.027687396266    -0.460236762663     1.007825032230
         H            2.618703101811     0.649732603734    -1.294166762663     1.007825032230
         H            1.445835101811     1.010122603734    -2.607746762663     1.007825032230

  Running in c1 symmetry.

  Rotational constants: A =      0.14441  B =      0.03773  C =      0.03544 [cm^-1]
  Rotational constants: A =   4329.36093  B =   1131.05814  C =   1062.38059 [MHz]
  Nuclear repulsion =  249.806205552993447

  Charge       = 0
  Multiplicity = 1
  Electrons    = 52
  Nalpha       = 26
  Nbeta        = 26

  ==> Algorithm <==

  SCF Algorithm Type is PK.
  DIIS enabled.
  MOM disabled.
  Fractional occupation disabled.
  Guess Type is SAD.
  Energy threshold   = 1.00e-06
  Density threshold  = 1.00e-10
  Integral threshold = 0.00e+00

  ==> Primary Basis <==

  Basis Set: CC-PVDZ
    Blend: CC-PVDZ
    Number of shells: 84
    Number of basis function: 164
    Number of Cartesian functions: 170
    Spherical Harmonics?: true
    Max angular momentum: 2

  ==> Pre-Iterations <==

   -------------------------------------------------------
    Irrep   Nso     Nmo     Nalpha   Nbeta   Ndocc  Nsocc
   -------------------------------------------------------
     A        164     164       0       0       0       0
   -------------------------------------------------------
    Total     164     164      26      26      26       0
   -------------------------------------------------------

  ==> Integral Setup <==

  Using integral reordering PK algorithm.
  Sizing the integral batches needed.
  Building batch lookup table.
   Calculation information:
      Number of atoms:                  22
      Number of AO shells:              84
      Number of primitives:            212
      Number of atomic orbitals:       170
      Number of basis functions:       164

      Integral cutoff                 1.00e-12
      Number of threads:                 1

	Batch   1 pq = [       0,    9405] index = [             0,44231715] size =     44231715
	Batch   2 pq = [    9405,   13530] index = [      44231715,91537215] size =     47305500
  Task number: 9
  Buffer size: 11059200
  Buffer per thread: 2
  We computed 6008609 shell quartets total.
  Whereas there are 6374235 unique shell quartets.

  ==> DiskJK: Disk-Based J/K Matrices <==

    J tasked:                  Yes
    K tasked:                  Yes
    wK tasked:                  No
    Memory [MiB]:              375
    Schwarz Cutoff:          1E-12

    OpenMP threads:              1

  Minimum eigenvalue in the overlap matrix is 4.4895947201E-03.
  Using Symmetric Orthogonalization.

  SCF Guess: Superposition of Atomic Densities via on-the-fly atomic UHF.

  ==> Iterations <==

                        Total Energy        Delta E     RMS |[F,P]|

   @RHF iter SAD:  -235.48449871584575   -2.35484e+02   0.00000e+00
   @RHF iter   1:  -236.31041738446493   -8.25919e-01   3.54995e-03 DIIS
   @RHF iter   2:  -236.50240250233421   -1.91985e-01   1.54294e-03 DIIS
   @RHF iter   3:  -236.53674279043864   -3.43403e-02   3.15708e-04 DIIS
   @RHF iter   4:  -236.53939509303515   -2.65230e-03   7.09573e-05 DIIS
   @RHF iter   5:  -236.53948359090975   -8.84979e-05   1.58031e-05 DIIS
   @RHF iter   6:  -236.53948925681090   -5.66590e-06   2.59067e-06 DIIS
   @RHF iter   7:  -236.53948942870778   -1.71897e-07   6.50233e-07 DIIS
   @RHF iter   8:  -236.53948944001166   -1.13039e-08   1.56064e-07 DIIS
   @RHF iter   9:  -236.53948944071746   -7.05796e-10   4.21837e-08 DIIS
   @RHF iter  10:  -236.53948944077644   -5.89750e-11   9.68884e-09 DIIS
   @RHF iter  11:  -236.53948944077939   -2.95586e-12   1.95591e-09 DIIS
   @RHF iter  12:  -236.53948944077976   -3.69482e-13   4.16170e-10 DIIS
   @RHF iter  13:  -236.53948944077928    4.83169e-13   1.01579e-10 DIIS
   @RHF iter  14:  -236.53948944077865    6.25278e-13   2.25283e-11 DIIS
  Energy and wave function converged.

  ==> Post-Iterations <==

    Orbital Energies [Eh]
    ---------------------

    Doubly Occupied:

       1A    -11.222379     2A    -11.218953     3A    -11.216186
       4A    -11.214757     5A    -11.213185     6A    -11.213148
       7A     -1.084349     8A     -1.022110     9A     -0.927734
      10A     -0.925868    11A     -0.834983    12A     -0.764618
      13A     -0.635937    14A     -0.603857    15A     -0.599681
      16A     -0.588686    17A     -0.586624    18A     -0.538079
      19A     -0.531941    20A     -0.507948    21A     -0.500126
      22A     -0.487738    23A     -0.483103    24A     -0.460464
      25A     -0.457553    26A     -0.456998

    Virtual:

      27A      0.164812    28A      0.195413    29A      0.214554
      30A      0.216725    31A      0.236243    32A      0.246052
      33A      0.251116    34A      0.263151    35A      0.268472
      36A      0.269734    37A      0.281268    38A      0.305535
      39A      0.309056    40A      0.319007    41A      0.326120
      42A      0.350008    43A      0.373100    44A      0.395153
      45A      0.412669    46A      0.427989    47A      0.547139
      48A      0.562483    49A      0.599155    50A      0.608579
      51A      0.612655    52A      0.617889    53A      0.634437
      54A      0.668872    55A      0.693331    56A      0.749259
      57A      0.760833    58A      0.783970    59A      0.790294
      60A      0.828749    61A      0.854632    62A      0.864425
      63A      0.878394    64A      0.883275    65A      0.891605
      66A      0.893312    67A      0.901423    68A      0.902328
      69A      0.910937    70A      0.913692    71A      0.918590
      72A      0.923542    73A      0.942542    74A      0.946906
      75A      0.956796    76A      0.963512    77A      0.987689
      78A      1.000136    79A      1.019056    80A      1.063454
      81A      1.129348    82A      1.132389    83A      1.135796
      84A      1.138248    85A      1.168420    86A      1.310761
      87A      1.377064    88A      1.406046    89A      1.409614
      90A      1.479856    91A      1.495457    92A      1.546375
      93A      1.556686    94A      1.587909    95A      1.645929
      96A      1.655451    97A      1.674492    98A      1.682994
      99A      1.689713   100A      1.700616   101A      1.720153
     102A      1.731093   103A      1.752269   104A      1.831386
     105A      1.842008   106A      1.858249   107A      1.865346
     108A      1.885129   109A      1.901157   110A      1.924714
     111A      1.932573   112A      1.943926   113A      1.947375
     114A      1.958509   115A      1.961898   116A      1.970892
     117A      1.974788   118A      1.982301   119A      1.993251
     120A      2.009203   121A      2.012222   122A      2.033227
     123A      2.058400   124A      2.093232   125A      2.097174
     126A      2.123044   127A      2.131656   128A      2.143929
     129A      2.154896   130A      2.249730   131A      2.264902
     132A      2.290416   133A      2.306425   134A      2.314265
     135A      2.322543   136A      2.335940   137A      2.365438
     138A      2.377900   139A      2.458755   140A      2.477566
     141A      2.486352   142A      2.566241   143A      2.570854
     144A      2.593131   145A      2.601360   146A      2.637808
     147A      2.707077   148A      2.726201   149A      2.753810
     150A      2.769324   151A      2.791032   152A      2.801483
     153A      2.802701   154A      2.817182   155A      2.827885
     156A      2.843482   157A      2.850241   158A      2.853661
     159A      2.869533   160A      2.961150   161A      2.995714
     162A      3.021657   163A      3.033031   164A      3.136094

    Final Occupation by Irrep:
              A
    DOCC [    26 ]

  @RHF Final Energy:  -236.53948944077865

   => Energetics <=

    Nuclear Repulsion Energy =            249.8062055529934469
    One-Electron Energy =                -812.0973789692113769
    Two-Electron Energy =                 325.7516839754392777
    Total Energy =                       -236.5394894407786524

Computation Completed

Properties will be evaluated at   0.000000,   0.000000,   0.000000 [a0]

Properties computed using the SCF density matrix

  Nuclear Dipole Moment: [e a0]
     X:    -1.0025      Y:     0.2804      Z:     1.4335

  Electronic Dipole Moment: [e a0]
     X:     0.9858      Y:    -0.2532      Z:    -1.4241

  Dipole Moment: [e a0]
     X:    -0.0168      Y:     0.0272      Z:     0.0093     Total:     0.0333

  Dipole Moment: [D]
     X:    -0.0426      Y:     0.0692      Z:     0.0237     Total:     0.0846

*** tstop() called on ds3 at Mon Apr 27 12:10:56 2020
Module time:
	user time   =      31.08 seconds =       0.52 minutes
	system time =      10.52 seconds =       0.18 minutes
	total time  =        118 seconds =       1.97 minutes
Total time:
	user time   =      31.08 seconds =       0.52 minutes
	system time =      10.52 seconds =       0.18 minutes
	total time  =        118 seconds =       1.97 minutes
                                     G D M A

                                 by Anthony Stone

                           version 2.2.06, 22 June 2011

               Distributed Multipoles from Gaussian wavefunctions

Starting at 12:10:56 on 27 Apr 2020

Using SCF density matrix from file ./SSI/SSI-060LEU-120VAL-1-dimer.test.3272.fchk

                         Distributed Multipole Analysis

Standard DMA

Positions and radii in angstrom
Multipole moments in atomic units, ea_0^k for rank k

C          x = -1.899198  y =  0.665313  z =  1.710763 angstrom
           Maximum rank =  0   Radius =  0.650 angstrom
                   Q00  =  -0.246406

C          x = -1.035198  y =  1.274313  z =  2.799763 angstrom
           Maximum rank =  0   Radius =  0.650 angstrom
                   Q00  =  -0.222799

H          x = -2.748198  y =  0.148313  z =  2.158763 angstrom
           Maximum rank =  0   Radius =  0.325 angstrom
                   Q00  =   0.075905

H          x = -2.270198  y =  1.449313  z =  1.048763 angstrom
           Maximum rank =  0   Radius =  0.325 angstrom
                   Q00  =   0.076188

H          x = -1.326198  y = -0.048687  z =  1.126763 angstrom
           Maximum rank =  0   Radius =  0.325 angstrom
                   Q00  =   0.080137

H          x = -0.244198  y =  1.840313  z =  2.308763 angstrom
           Maximum rank =  0   Radius =  0.325 angstrom
                   Q00  =   0.074619

H          x = -0.586519  y =  0.473873  z =  3.406373 angstrom
           Maximum rank =  0   Radius =  0.325 angstrom
                   Q00  =   0.079144

H          x = -1.637027  y =  1.968673  z =  3.404463 angstrom
           Maximum rank =  0   Radius =  0.325 angstrom
                   Q00  =   0.080164

C          x =  0.632802  y = -0.204687  z = -0.980237 angstrom
           Maximum rank =  0   Radius =  0.650 angstrom
                   Q00  =  -0.008918

C          x =  1.782802  y =  0.250313  z = -1.887237 angstrom
           Maximum rank =  0   Radius =  0.650 angstrom
                   Q00  =  -0.223156

C          x = -0.507198  y = -0.790687  z = -1.810237 angstrom
           Maximum rank =  0   Radius =  0.650 angstrom
                   Q00  =  -0.247685

C          x =  1.115802  y = -1.219687  z =  0.038763 angstrom
           Maximum rank =  0   Radius =  0.650 angstrom
                   Q00  =  -0.241270

H          x =  0.248802  y =  0.661313  z = -0.441237 angstrom
           Maximum rank =  0   Radius =  0.325 angstrom
                   Q00  =   0.013995

H          x =  2.116802  y = -0.621687  z = -2.444237 angstrom
           Maximum rank =  0   Radius =  0.325 angstrom
                   Q00  =   0.074220

H          x = -0.136198  y = -1.612687  z = -2.425237 angstrom
           Maximum rank =  0   Radius =  0.325 angstrom
                   Q00  =   0.074435

H          x = -1.287198  y = -1.166687  z = -1.146237 angstrom
           Maximum rank =  0   Radius =  0.325 angstrom
                   Q00  =   0.080203

H          x = -0.954198  y = -0.031687  z = -2.450237 angstrom
           Maximum rank =  0   Radius =  0.325 angstrom
                   Q00  =   0.082684

H          x =  1.767802  y = -0.742687  z =  0.768763 angstrom
           Maximum rank =  0   Radius =  0.325 angstrom
                   Q00  =   0.081696

H          x =  0.270802  y = -1.650687  z =  0.575763 angstrom
           Maximum rank =  0   Radius =  0.325 angstrom
                   Q00  =   0.077392

H          x =  1.651802  y = -2.027687  z = -0.460237 angstrom
           Maximum rank =  0   Radius =  0.325 angstrom
                   Q00  =   0.075475

H          x =  2.618703  y =  0.649733  z = -1.294167 angstrom
           Maximum rank =  0   Radius =  0.325 angstrom
                   Q00  =   0.081763

H          x =  1.445835  y =  1.010123  z = -2.607747 angstrom
           Maximum rank =  0   Radius =  0.325 angstrom
                   Q00  =   0.082213

Total multipoles referred to origin at
           x =   0.000000,  y =    0.000000,  z =    0.000000 angstrom
                   Q00  =  -0.000000

Finished at 12:10:56 on 27 Apr 2020

  DMA results are available in the Python driver through the
	  variable('DMA DISTRIBUTED MULTIPOLES')
  and
	  variable('DMA TOTAL MULTIPOLES')
  commands.

    Psi4 stopped on: Monday, 27 April 2020 12:10PM
    Psi4 wall time for execution: 0:01:57.32

*** Psi4 exiting successfully. Buy a developer a beer!
