                               Psi4 1.3.2 release

  ==> Input File <==

--------------------------------------------------------------------------
import numpy as np
set {scf_type pk
basis cc-pvdz
d_convergence 10
gdma_switch   0
gdma_limit    0
gdma_origin   [ 0.0,  0.0,  0.0 ]
}
molecule test {
    units Angstrom
    0 1
    --
    0 1
    C               -1.144645250171214    -0.008798059164592     0.736068668313936
    C               -0.264645250171214     0.808201940835408     1.728068668313936
    C               -0.176645250171214    -2.515798059164592     1.510068668313936
    S               -0.319645250171214    -1.458798059164592     0.037068668313936
    H               -2.057645250171213    -0.330798059164592     1.238068668313936
    H               -1.427645250171214     0.642201940835408    -0.092931331686064
    H                0.712354749828786     0.987201940835408     1.280068668313936
    H               -0.120645250171214     0.228201940835408     2.639068668313936
    H               -1.148645250171214    -2.613798059164592     1.992068668313936
    H                0.174354749828786    -3.504798059164592     1.222068668313936
    H                0.532354749828786    -2.075798059164592     2.210068668313935
    H               -0.733945250171214     1.773321940835408     1.969527668313936
    C                1.297354749828786     2.145201940835408    -1.344931331686064
    C                0.922354749828786     2.661201940835408    -2.741931331686064
    H                0.426354749828786     2.163201940835409    -0.697931331686064
    H                1.637354749828786     1.112201940835408    -1.424931331686065
    H                2.091354749828786     2.755201940835409    -0.912931331686064
    H                0.063354749828786     2.101201940835408    -3.109931331686064
    H                0.688224749828786     3.735321940835409    -2.703750331686064
    H                1.756954749828787     2.513581940835408    -3.443109331686064

}
e, wfn = energy('scf', return_wfn=True)
gdma(wfn)
dmavals = variable('DMA DISTRIBUTED MULTIPOLES')
charges = np.array(dmavals)
print(charges)
np.save('SSI-160MET-169LEU-1-dimer.npy', np.array(charges))--------------------------------------------------------------------------

*** tstart() called on ds3
*** at Mon Apr 27 06:43:57 2020

   => Loading Basis Set <=

    Name: CC-PVDZ
    Role: ORBITAL
    Keyword: BASIS
    atoms 1-3, 13-14  entry C          line   138 file /theoryfs2/ds/metcalf/miniconda2/envs/tf2gpu/share/psi4/basis/cc-pvdz.gbs
    atoms 4           entry S          line   598 file /theoryfs2/ds/metcalf/miniconda2/envs/tf2gpu/share/psi4/basis/cc-pvdz.gbs
    atoms 5-12, 15-20 entry H          line    22 file /theoryfs2/ds/metcalf/miniconda2/envs/tf2gpu/share/psi4/basis/cc-pvdz.gbs

         ---------------------------------------------------------
                                   SCF
               by Justin Turney, Rob Parrish, Andy Simmonett
                          and Daniel G. A. Smith
                              RHF Reference
                        1 Threads,    500 MiB Core
         ---------------------------------------------------------

  ==> Geometry <==

    Molecular point group: c1
    Full point group: C1

    Geometry (in Angstrom), charge = 0, multiplicity = 1:

       Center              X                  Y                   Z               Mass
    ------------   -----------------  -----------------  -----------------  -----------------
         C           -1.144645250171    -0.008798059165     0.736068668314    12.000000000000
         C           -0.264645250171     0.808201940835     1.728068668314    12.000000000000
         C           -0.176645250171    -2.515798059165     1.510068668314    12.000000000000
         S           -0.319645250171    -1.458798059165     0.037068668314    31.972071174400
         H           -2.057645250171    -0.330798059165     1.238068668314     1.007825032230
         H           -1.427645250171     0.642201940835    -0.092931331686     1.007825032230
         H            0.712354749829     0.987201940835     1.280068668314     1.007825032230
         H           -0.120645250171     0.228201940835     2.639068668314     1.007825032230
         H           -1.148645250171    -2.613798059165     1.992068668314     1.007825032230
         H            0.174354749829    -3.504798059165     1.222068668314     1.007825032230
         H            0.532354749829    -2.075798059165     2.210068668314     1.007825032230
         H           -0.733945250171     1.773321940835     1.969527668314     1.007825032230
         C            1.297354749829     2.145201940835    -1.344931331686    12.000000000000
         C            0.922354749829     2.661201940835    -2.741931331686    12.000000000000
         H            0.426354749829     2.163201940835    -0.697931331686     1.007825032230
         H            1.637354749829     1.112201940835    -1.424931331686     1.007825032230
         H            2.091354749829     2.755201940835    -0.912931331686     1.007825032230
         H            0.063354749829     2.101201940835    -3.109931331686     1.007825032230
         H            0.688224749829     3.735321940835    -2.703750331686     1.007825032230
         H            1.756954749829     2.513581940835    -3.443109331686     1.007825032230

  Running in c1 symmetry.

  Rotational constants: A =      0.12886  B =      0.02961  C =      0.02650 [cm^-1]
  Rotational constants: A =   3863.05419  B =    887.80375  C =    794.54134 [MHz]
  Nuclear repulsion =  297.272846691283007

  Charge       = 0
  Multiplicity = 1
  Electrons    = 60
  Nalpha       = 30
  Nbeta        = 30

  ==> Algorithm <==

  SCF Algorithm Type is PK.
  DIIS enabled.
  MOM disabled.
  Fractional occupation disabled.
  Guess Type is SAD.
  Energy threshold   = 1.00e-06
  Density threshold  = 1.00e-10
  Integral threshold = 0.00e+00

  ==> Primary Basis <==

  Basis Set: CC-PVDZ
    Blend: CC-PVDZ
    Number of shells: 80
    Number of basis function: 158
    Number of Cartesian functions: 164
    Spherical Harmonics?: true
    Max angular momentum: 2

  ==> Pre-Iterations <==

   -------------------------------------------------------
    Irrep   Nso     Nmo     Nalpha   Nbeta   Ndocc  Nsocc
   -------------------------------------------------------
     A        158     158       0       0       0       0
   -------------------------------------------------------
    Total     158     158      30      30      30       0
   -------------------------------------------------------

  ==> Integral Setup <==

  Using integral reordering PK algorithm.
  Sizing the integral batches needed.
  Building batch lookup table.
   Calculation information:
      Number of atoms:                  20
      Number of AO shells:              80
      Number of primitives:            230
      Number of atomic orbitals:       164
      Number of basis functions:       158

      Integral cutoff                 1.00e-12
      Number of threads:                 1

	Batch   1 pq = [       0,    9405] index = [             0,44231715] size =     44231715
	Batch   2 pq = [    9405,   12561] index = [      44231715,78895641] size =     34663926
  Task number: 8
  Buffer size: 11059200
  Buffer per thread: 2
  We computed 4467412 shell quartets total.
  Whereas there are 5250420 unique shell quartets.

  ==> DiskJK: Disk-Based J/K Matrices <==

    J tasked:                  Yes
    K tasked:                  Yes
    wK tasked:                  No
    Memory [MiB]:              375
    Schwarz Cutoff:          1E-12

    OpenMP threads:              1

  Minimum eigenvalue in the overlap matrix is 6.8591967303E-03.
  Using Symmetric Orthogonalization.

  SCF Guess: Superposition of Atomic Densities via on-the-fly atomic UHF.

  ==> Iterations <==

                        Total Energy        Delta E     RMS |[F,P]|

   @RHF iter SAD:  -593.82774711794048   -5.93828e+02   0.00000e+00
   @RHF iter   1:  -594.85218279213211   -1.02444e+00   3.14914e-03 DIIS
   @RHF iter   2:  -595.00131033740672   -1.49128e-01   1.26725e-03 DIIS
   @RHF iter   3:  -595.02367917803679   -2.23688e-02   2.96756e-04 DIIS
   @RHF iter   4:  -595.02595371547102   -2.27454e-03   5.28082e-05 DIIS
   @RHF iter   5:  -595.02601009166381   -5.63762e-05   1.56364e-05 DIIS
   @RHF iter   6:  -595.02601475543759   -4.66377e-06   3.37116e-06 DIIS
   @RHF iter   7:  -595.02601502458265   -2.69145e-07   7.97765e-07 DIIS
   @RHF iter   8:  -595.02601504250799   -1.79253e-08   2.65981e-07 DIIS
   @RHF iter   9:  -595.02601504463576   -2.12776e-09   8.33417e-08 DIIS
   @RHF iter  10:  -595.02601504488644   -2.50679e-10   2.27153e-08 DIIS
   @RHF iter  11:  -595.02601504490917   -2.27374e-11   5.96762e-09 DIIS
   @RHF iter  12:  -595.02601504491167   -2.50111e-12   2.14072e-09 DIIS
   @RHF iter  13:  -595.02601504491111    5.68434e-13   7.37248e-10 DIIS
   @RHF iter  14:  -595.02601504491133   -2.27374e-13   1.99162e-10 DIIS
   @RHF iter  15:  -595.02601504491213   -7.95808e-13   6.34851e-11 DIIS
  Energy and wave function converged.

  ==> Post-Iterations <==

    Orbital Energies [Eh]
    ---------------------

    Doubly Occupied:

       1A    -91.934632     2A    -11.259756     3A    -11.256250
       4A    -11.229077     5A    -11.217241     6A    -11.213681
       7A     -8.938151     8A     -6.620166     9A     -6.618624
      10A     -6.616441    11A     -1.074954    12A     -1.014145
      13A     -0.990335    14A     -0.887686    15A     -0.835355
      16A     -0.785106    17A     -0.631216    18A     -0.602403
      19A     -0.595919    20A     -0.592279    21A     -0.581525
      22A     -0.559570    23A     -0.527179    24A     -0.513114
      25A     -0.493770    26A     -0.486393    27A     -0.482175
      28A     -0.477875    29A     -0.419921    30A     -0.330851

    Virtual:

      31A      0.169822    32A      0.176678    33A      0.203610
      34A      0.215241    35A      0.224832    36A      0.241107
      37A      0.245620    38A      0.249867    39A      0.261680
      40A      0.262824    41A      0.280778    42A      0.289297
      43A      0.291313    44A      0.304308    45A      0.319269
      46A      0.337480    47A      0.371259    48A      0.418644
      49A      0.534460    50A      0.563708    51A      0.584959
      52A      0.595336    53A      0.599461    54A      0.611074
      55A      0.620954    56A      0.628786    57A      0.659855
      58A      0.677811    59A      0.698791    60A      0.711727
      61A      0.753537    62A      0.769532    63A      0.801037
      64A      0.816148    65A      0.817172    66A      0.840166
      67A      0.860587    68A      0.870929    69A      0.877706
      70A      0.886222    71A      0.891822    72A      0.895245
      73A      0.897731    74A      0.903600    75A      0.908523
      76A      0.920488    77A      0.928331    78A      0.938246
      79A      0.963231    80A      0.972459    81A      0.990743
      82A      0.997821    83A      1.018222    84A      1.024449
      85A      1.129809    86A      1.145881    87A      1.159493
      88A      1.223031    89A      1.249599    90A      1.257969
      91A      1.297252    92A      1.325825    93A      1.361839
      94A      1.403029    95A      1.461107    96A      1.480448
      97A      1.492466    98A      1.497660    99A      1.580144
     100A      1.617411   101A      1.640926   102A      1.681090
     103A      1.687191   104A      1.701294   105A      1.709506
     106A      1.856396   107A      1.857566   108A      1.869129
     109A      1.871280   110A      1.879424   111A      1.890182
     112A      1.912770   113A      1.913226   114A      1.929075
     115A      1.939939   116A      1.945990   117A      1.950212
     118A      1.953835   119A      1.959462   120A      1.976715
     121A      1.988797   122A      2.000131   123A      2.018439
     124A      2.033494   125A      2.049997   126A      2.057124
     127A      2.111955   128A      2.116436   129A      2.136928
     130A      2.213349   131A      2.237002   132A      2.291695
     133A      2.301959   134A      2.306391   135A      2.334857
     136A      2.416778   137A      2.442945   138A      2.457995
     139A      2.463032   140A      2.468492   141A      2.550640
     142A      2.561635   143A      2.572970   144A      2.579865
     145A      2.755472   146A      2.760328   147A      2.773066
     148A      2.786393   149A      2.792124   150A      2.798445
     151A      2.820267   152A      2.839137   153A      2.854952
     154A      2.860208   155A      2.893777   156A      2.941113
     157A      2.977010   158A      2.985467

    Final Occupation by Irrep:
              A
    DOCC [    30 ]

  @RHF Final Energy:  -595.02601504491213

   => Energetics <=

    Nuclear Repulsion Energy =            297.2728466912830072
    One-Electron Energy =               -1405.0261470640473362
    Two-Electron Energy =                 512.7272853278523144
    Total Energy =                       -595.0260150449121284

Computation Completed

Properties will be evaluated at   0.000000,   0.000000,   0.000000 [a0]

Properties computed using the SCF density matrix

  Nuclear Dipole Moment: [e a0]
     X:     2.4235      Y:     8.8548      Z:     0.1561

  Electronic Dipole Moment: [e a0]
     X:    -2.5937      Y:    -8.7607      Z:     0.4920

  Dipole Moment: [e a0]
     X:    -0.1702      Y:     0.0941      Z:     0.6480     Total:     0.6766

  Dipole Moment: [D]
     X:    -0.4326      Y:     0.2391      Z:     1.6472     Total:     1.7197

*** tstop() called on ds3 at Mon Apr 27 06:44:39 2020
Module time:
	user time   =      32.51 seconds =       0.54 minutes
	system time =      10.83 seconds =       0.18 minutes
	total time  =         42 seconds =       0.70 minutes
Total time:
	user time   =      32.51 seconds =       0.54 minutes
	system time =      10.83 seconds =       0.18 minutes
	total time  =         42 seconds =       0.70 minutes
                                     G D M A

                                 by Anthony Stone

                           version 2.2.06, 22 June 2011

               Distributed Multipoles from Gaussian wavefunctions

Starting at 6:44:40 on 27 Apr 2020

Using SCF density matrix from file ./SSI/SSI-160MET-169LEU-1-dimer.test.3763.fchk

                         Distributed Multipole Analysis

Standard DMA

Positions and radii in angstrom
Multipole moments in atomic units, ea_0^k for rank k

C          x = -1.144645  y = -0.008798  z =  0.736069 angstrom
           Maximum rank =  0   Radius =  0.650 angstrom
                   Q00  =  -0.211161

C          x = -0.264645  y =  0.808202  z =  1.728069 angstrom
           Maximum rank =  0   Radius =  0.650 angstrom
                   Q00  =  -0.257696

C          x = -0.176645  y = -2.515798  z =  1.510069 angstrom
           Maximum rank =  0   Radius =  0.650 angstrom
                   Q00  =  -0.360232

S          x = -0.319645  y = -1.458798  z =  0.037069 angstrom
           Maximum rank =  0   Radius =  0.650 angstrom
                   Q00  =   0.104548

H          x = -2.057645  y = -0.330798  z =  1.238069 angstrom
           Maximum rank =  0   Radius =  0.325 angstrom
                   Q00  =   0.062521

H          x = -1.427645  y =  0.642202  z = -0.092931 angstrom
           Maximum rank =  0   Radius =  0.325 angstrom
                   Q00  =   0.089696

H          x =  0.712355  y =  0.987202  z =  1.280069 angstrom
           Maximum rank =  0   Radius =  0.325 angstrom
                   Q00  =   0.097548

H          x = -0.120645  y =  0.228202  z =  2.639069 angstrom
           Maximum rank =  0   Radius =  0.325 angstrom
                   Q00  =   0.083463

H          x = -1.148645  y = -2.613798  z =  1.992069 angstrom
           Maximum rank =  0   Radius =  0.325 angstrom
                   Q00  =   0.089824

H          x =  0.174355  y = -3.504798  z =  1.222069 angstrom
           Maximum rank =  0   Radius =  0.325 angstrom
                   Q00  =   0.123435

H          x =  0.532355  y = -2.075798  z =  2.210069 angstrom
           Maximum rank =  0   Radius =  0.325 angstrom
                   Q00  =   0.089304

H          x = -0.733945  y =  1.773322  z =  1.969528 angstrom
           Maximum rank =  0   Radius =  0.325 angstrom
                   Q00  =   0.089999

C          x =  1.297355  y =  2.145202  z = -1.344931 angstrom
           Maximum rank =  0   Radius =  0.650 angstrom
                   Q00  =  -0.241804

C          x =  0.922355  y =  2.661202  z = -2.741931 angstrom
           Maximum rank =  0   Radius =  0.650 angstrom
                   Q00  =  -0.237145

H          x =  0.426355  y =  2.163202  z = -0.697931 angstrom
           Maximum rank =  0   Radius =  0.325 angstrom
                   Q00  =   0.072957

H          x =  1.637355  y =  1.112202  z = -1.424931 angstrom
           Maximum rank =  0   Radius =  0.325 angstrom
                   Q00  =   0.088245

H          x =  2.091355  y =  2.755202  z = -0.912931 angstrom
           Maximum rank =  0   Radius =  0.325 angstrom
                   Q00  =   0.078868

H          x =  0.063355  y =  2.101202  z = -3.109931 angstrom
           Maximum rank =  0   Radius =  0.325 angstrom
                   Q00  =   0.080634

H          x =  0.688225  y =  3.735322  z = -2.703750 angstrom
           Maximum rank =  0   Radius =  0.325 angstrom
                   Q00  =   0.076691

H          x =  1.756955  y =  2.513582  z = -3.443109 angstrom
           Maximum rank =  0   Radius =  0.325 angstrom
                   Q00  =   0.080305

Total multipoles referred to origin at
           x =   0.000000,  y =    0.000000,  z =    0.000000 angstrom
                   Q00  =  -0.000000

Finished at 6:44:40 on 27 Apr 2020

  DMA results are available in the Python driver through the
	  variable('DMA DISTRIBUTED MULTIPOLES')
  and
	  variable('DMA TOTAL MULTIPOLES')
  commands.

    Psi4 stopped on: Monday, 27 April 2020 06:44AM
    Psi4 wall time for execution: 0:00:42.82

*** Psi4 exiting successfully. Buy a developer a beer!
