                               Psi4 1.3.2 release

  ==> Input File <==

--------------------------------------------------------------------------
import numpy as np
set {scf_type pk
basis cc-pvdz
d_convergence 10
gdma_switch   0
gdma_limit    0
gdma_origin   [ 0.0,  0.0,  0.0 ]
}
molecule test {
    units Angstrom
    0 1
    --
    0 1
    C                0.769237978182732     0.966579616443653    -1.320572690087539
    C                1.157237978182732    -0.207420383556347    -2.204572690087539
    H                1.037237978182732     1.908579616443653    -1.799572690087539
    H               -0.305762021817267     0.967579616442653    -1.153572690087539
    H                1.271237978182733     0.890579616443653    -0.354572690087539
    H                0.760237978182732    -0.028420383557347    -3.201572690087539
    H                2.249837978182732    -0.318340383556347    -2.267233690087539
    H                0.705617978182732    -1.136020383557347    -1.825446690087539
    C               -0.371762021817267    -0.872420383557347     1.772427309912461
    C               -1.553762021817268     0.109579616443653     1.756427309912461
    H               -0.349762021817268    -1.448420383556347     0.858427309912461
    H                0.567237978182732    -0.328420383556347     1.869427309912461
    H               -0.476762021817268    -1.570420383556347     2.599427309912461
    H               -1.419762021817267     0.762579616443653     0.900427309912461
    H               -2.528442021817267    -0.393160383557347     1.671205309912461
    H               -1.522252021817267     0.737719616443653     2.658891309912461

}
e, wfn = energy('scf', return_wfn=True)
gdma(wfn)
dmavals = variable('DMA DISTRIBUTED MULTIPOLES')
charges = np.array(dmavals)
print(charges)
np.save('SSI-004LEU-180LEU-2-dimer.npy', np.array(charges))--------------------------------------------------------------------------

*** tstart() called on ds3
*** at Tue Apr 28 13:22:53 2020

   => Loading Basis Set <=

    Name: CC-PVDZ
    Role: ORBITAL
    Keyword: BASIS
    atoms 1-2, 9-10  entry C          line   138 file /theoryfs2/ds/metcalf/miniconda2/envs/tf2gpu/share/psi4/basis/cc-pvdz.gbs
    atoms 3-8, 11-16 entry H          line    22 file /theoryfs2/ds/metcalf/miniconda2/envs/tf2gpu/share/psi4/basis/cc-pvdz.gbs

         ---------------------------------------------------------
                                   SCF
               by Justin Turney, Rob Parrish, Andy Simmonett
                          and Daniel G. A. Smith
                              RHF Reference
                        1 Threads,    500 MiB Core
         ---------------------------------------------------------

  ==> Geometry <==

    Molecular point group: c1
    Full point group: C1

    Geometry (in Angstrom), charge = 0, multiplicity = 1:

       Center              X                  Y                   Z               Mass
    ------------   -----------------  -----------------  -----------------  -----------------
         C            0.769237978183     0.966579616444    -1.320572690088    12.000000000000
         C            1.157237978183    -0.207420383556    -2.204572690088    12.000000000000
         H            1.037237978183     1.908579616444    -1.799572690088     1.007825032230
         H           -0.305762021817     0.967579616443    -1.153572690088     1.007825032230
         H            1.271237978183     0.890579616444    -0.354572690088     1.007825032230
         H            0.760237978183    -0.028420383557    -3.201572690088     1.007825032230
         H            2.249837978183    -0.318340383556    -2.267233690088     1.007825032230
         H            0.705617978183    -1.136020383557    -1.825446690088     1.007825032230
         C           -0.371762021817    -0.872420383557     1.772427309912    12.000000000000
         C           -1.553762021817     0.109579616444     1.756427309912    12.000000000000
         H           -0.349762021817    -1.448420383556     0.858427309912     1.007825032230
         H            0.567237978183    -0.328420383556     1.869427309912     1.007825032230
         H           -0.476762021817    -1.570420383556     2.599427309912     1.007825032230
         H           -1.419762021817     0.762579616444     0.900427309912     1.007825032230
         H           -2.528442021817    -0.393160383557     1.671205309912     1.007825032230
         H           -1.522252021817     0.737719616444     2.658891309912     1.007825032230

  Running in c1 symmetry.

  Rotational constants: A =      0.38010  B =      0.06136  C =      0.05697 [cm^-1]
  Rotational constants: A =  11395.02745  B =   1839.48723  C =   1707.87715 [MHz]
  Nuclear repulsion =  125.511594403570300

  Charge       = 0
  Multiplicity = 1
  Electrons    = 36
  Nalpha       = 18
  Nbeta        = 18

  ==> Algorithm <==

  SCF Algorithm Type is PK.
  DIIS enabled.
  MOM disabled.
  Fractional occupation disabled.
  Guess Type is SAD.
  Energy threshold   = 1.00e-06
  Density threshold  = 1.00e-10
  Integral threshold = 0.00e+00

  ==> Primary Basis <==

  Basis Set: CC-PVDZ
    Blend: CC-PVDZ
    Number of shells: 60
    Number of basis function: 116
    Number of Cartesian functions: 120
    Spherical Harmonics?: true
    Max angular momentum: 2

  ==> Pre-Iterations <==

   -------------------------------------------------------
    Irrep   Nso     Nmo     Nalpha   Nbeta   Ndocc  Nsocc
   -------------------------------------------------------
     A        116     116       0       0       0       0
   -------------------------------------------------------
    Total     116     116      18      18      18       0
   -------------------------------------------------------

  ==> Integral Setup <==

  Using integral reordering PK algorithm.
  Sizing the integral batches needed.
  Building batch lookup table.
   Calculation information:
      Number of atoms:                  16
      Number of AO shells:              60
      Number of primitives:            148
      Number of atomic orbitals:       120
      Number of basis functions:       116

      Integral cutoff                 1.00e-12
      Number of threads:                 1

	Batch   1 pq = [       0,    6786] index = [             0,23028291] size =     23028291
  Task number: 3
  Buffer size: 11059200
  Buffer per thread: 2
  We computed 1556028 shell quartets total.
  Whereas there are 1675365 unique shell quartets.

  ==> DiskJK: Disk-Based J/K Matrices <==

    J tasked:                  Yes
    K tasked:                  Yes
    wK tasked:                  No
    Memory [MiB]:              375
    Schwarz Cutoff:          1E-12

    OpenMP threads:              1

  Minimum eigenvalue in the overlap matrix is 7.4498941901E-03.
  Using Symmetric Orthogonalization.

  SCF Guess: Superposition of Atomic Densities via on-the-fly atomic UHF.

  ==> Iterations <==

                        Total Energy        Delta E     RMS |[F,P]|

   @RHF iter SAD:  -157.36419704831650   -1.57364e+02   0.00000e+00
   @RHF iter   1:  -158.30684999297915   -9.42653e-01   4.21995e-03 DIIS
   @RHF iter   2:  -158.44052143181580   -1.33671e-01   1.80244e-03 DIIS
   @RHF iter   3:  -158.46407797675926   -2.35565e-02   3.49840e-04 DIIS
   @RHF iter   4:  -158.46590129568074   -1.82332e-03   3.83692e-05 DIIS
   @RHF iter   5:  -158.46592428617998   -2.29905e-05   6.38625e-06 DIIS
   @RHF iter   6:  -158.46592489034731   -6.04167e-07   1.07250e-06 DIIS
   @RHF iter   7:  -158.46592490173762   -1.13903e-08   3.25531e-07 DIIS
   @RHF iter   8:  -158.46592490269788   -9.60256e-10   4.40014e-08 DIIS
   @RHF iter   9:  -158.46592490272798   -3.00986e-11   1.01530e-08 DIIS
   @RHF iter  10:  -158.46592490272965   -1.67688e-12   2.65809e-09 DIIS
   @RHF iter  11:  -158.46592490272985   -1.98952e-13   5.52060e-10 DIIS
   @RHF iter  12:  -158.46592490272985    0.00000e+00   1.61932e-10 DIIS
   @RHF iter  13:  -158.46592490272960    2.55795e-13   2.90956e-11 DIIS
  Energy and wave function converged.

  ==> Post-Iterations <==

    Orbital Energies [Eh]
    ---------------------

    Doubly Occupied:

       1A    -11.218869     2A    -11.218711     3A    -11.216501
       4A    -11.216298     5A     -1.021574     6A     -1.016045
       7A     -0.839122     8A     -0.836961     9A     -0.605869
      10A     -0.600939    11A     -0.597142    12A     -0.589450
      13A     -0.504012    14A     -0.500227    15A     -0.491053
      16A     -0.489281    17A     -0.483142    18A     -0.478927

    Virtual:

      19A      0.168265    20A      0.204874    21A      0.222602
      22A      0.226252    23A      0.243723    24A      0.253540
      25A      0.264343    26A      0.276075    27A      0.281952
      28A      0.324546    29A      0.339731    30A      0.355752
      31A      0.396604    32A      0.407750    33A      0.562052
      34A      0.593187    35A      0.595771    36A      0.605177
      37A      0.612597    38A      0.629338    39A      0.682947
      40A      0.691672    41A      0.695430    42A      0.799427
      43A      0.842436    44A      0.847975    45A      0.871777
      46A      0.891128    47A      0.893528    48A      0.895825
      49A      0.903436    50A      0.915700    51A      0.923760
      52A      0.940910    53A      0.950446    54A      0.969823
      55A      0.984592    56A      1.007272    57A      1.121469
      58A      1.130146    59A      1.131607    60A      1.157972
      61A      1.221592    62A      1.274641    63A      1.459623
      64A      1.476290    65A      1.482445    66A      1.486865
      67A      1.549891    68A      1.604968    69A      1.682848
      70A      1.687054    71A      1.700412    72A      1.707759
      73A      1.857326    74A      1.861016    75A      1.866233
      76A      1.882418    77A      1.900640    78A      1.909371
      79A      1.934057    80A      1.938873    81A      1.947661
      82A      1.949377    83A      1.949925    84A      1.955489
      85A      1.965448    86A      1.970532    87A      1.977036
      88A      2.038145    89A      2.097076    90A      2.114331
      91A      2.127325    92A      2.143521    93A      2.296988
      94A      2.306564    95A      2.314749    96A      2.327033
      97A      2.437414    98A      2.454581    99A      2.468371
     100A      2.472833   101A      2.557003   102A      2.565748
     103A      2.583003   104A      2.586423   105A      2.765328
     106A      2.769086   107A      2.790796   108A      2.803634
     109A      2.850964   110A      2.855691   111A      2.863493
     112A      2.876345   113A      2.946441   114A      2.955827
     115A      2.971795   116A      2.991702

    Final Occupation by Irrep:
              A
    DOCC [    18 ]

  @RHF Final Energy:  -158.46592490272960

   => Energetics <=

    Nuclear Repulsion Energy =            125.5115944035702995
    One-Electron Energy =                -460.1067942572109359
    Two-Electron Energy =                 176.1292749509110251
    Total Energy =                       -158.4659249027295971

Computation Completed

Properties will be evaluated at   0.000000,   0.000000,   0.000000 [a0]

Properties computed using the SCF density matrix

  Nuclear Dipole Moment: [e a0]
     X:    -0.0106      Y:     0.0411      Z:    -0.0414

  Electronic Dipole Moment: [e a0]
     X:     0.0142      Y:    -0.0318      Z:     0.0230

  Dipole Moment: [e a0]
     X:     0.0036      Y:     0.0093      Z:    -0.0184     Total:     0.0209

  Dipole Moment: [D]
     X:     0.0092      Y:     0.0237      Z:    -0.0467     Total:     0.0532

*** tstop() called on ds3 at Tue Apr 28 13:23:08 2020
Module time:
	user time   =       8.54 seconds =       0.14 minutes
	system time =       2.96 seconds =       0.05 minutes
	total time  =         15 seconds =       0.25 minutes
Total time:
	user time   =       8.54 seconds =       0.14 minutes
	system time =       2.96 seconds =       0.05 minutes
	total time  =         15 seconds =       0.25 minutes
                                     G D M A

                                 by Anthony Stone

                           version 2.2.06, 22 June 2011

               Distributed Multipoles from Gaussian wavefunctions

Starting at 13:23:8 on 28 Apr 2020

Using SCF density matrix from file ./SSI/SSI-004LEU-180LEU-2-dimer.test.15977.fchk

                         Distributed Multipole Analysis

Standard DMA

Positions and radii in angstrom
Multipole moments in atomic units, ea_0^k for rank k

C          x =  0.769238  y =  0.966580  z = -1.320573 angstrom
           Maximum rank =  0   Radius =  0.650 angstrom
                   Q00  =  -0.236355

C          x =  1.157238  y = -0.207420  z = -2.204573 angstrom
           Maximum rank =  0   Radius =  0.650 angstrom
                   Q00  =  -0.234979

H          x =  1.037238  y =  1.908580  z = -1.799573 angstrom
           Maximum rank =  0   Radius =  0.325 angstrom
                   Q00  =   0.078917

H          x = -0.305762  y =  0.967580  z = -1.153573 angstrom
           Maximum rank =  0   Radius =  0.325 angstrom
                   Q00  =   0.078967

H          x =  1.271238  y =  0.890580  z = -0.354573 angstrom
           Maximum rank =  0   Radius =  0.325 angstrom
                   Q00  =   0.078612

H          x =  0.760238  y = -0.028420  z = -3.201573 angstrom
           Maximum rank =  0   Radius =  0.325 angstrom
                   Q00  =   0.076976

H          x =  2.249838  y = -0.318340  z = -2.267234 angstrom
           Maximum rank =  0   Radius =  0.325 angstrom
                   Q00  =   0.079781

H          x =  0.705618  y = -1.136020  z = -1.825447 angstrom
           Maximum rank =  0   Radius =  0.325 angstrom
                   Q00  =   0.077792

C          x = -0.371762  y = -0.872420  z =  1.772427 angstrom
           Maximum rank =  0   Radius =  0.650 angstrom
                   Q00  =  -0.241452

C          x = -1.553762  y =  0.109580  z =  1.756427 angstrom
           Maximum rank =  0   Radius =  0.650 angstrom
                   Q00  =  -0.241510

H          x = -0.349762  y = -1.448420  z =  0.858427 angstrom
           Maximum rank =  0   Radius =  0.325 angstrom
                   Q00  =   0.080305

H          x =  0.567238  y = -0.328420  z =  1.869427 angstrom
           Maximum rank =  0   Radius =  0.325 angstrom
                   Q00  =   0.081814

H          x = -0.476762  y = -1.570420  z =  2.599427 angstrom
           Maximum rank =  0   Radius =  0.325 angstrom
                   Q00  =   0.079369

H          x = -1.419762  y =  0.762580  z =  0.900427 angstrom
           Maximum rank =  0   Radius =  0.325 angstrom
                   Q00  =   0.080944

H          x = -2.528442  y = -0.393160  z =  1.671205 angstrom
           Maximum rank =  0   Radius =  0.325 angstrom
                   Q00  =   0.082255

H          x = -1.522252  y =  0.737720  z =  2.658891 angstrom
           Maximum rank =  0   Radius =  0.325 angstrom
                   Q00  =   0.078564

Total multipoles referred to origin at
           x =   0.000000,  y =    0.000000,  z =    0.000000 angstrom
                   Q00  =  -0.000000

Finished at 13:23:8 on 28 Apr 2020

  DMA results are available in the Python driver through the
	  variable('DMA DISTRIBUTED MULTIPOLES')
  and
	  variable('DMA TOTAL MULTIPOLES')
  commands.

    Psi4 stopped on: Tuesday, 28 April 2020 01:23PM
    Psi4 wall time for execution: 0:00:14.62

*** Psi4 exiting successfully. Buy a developer a beer!
