                               Psi4 1.3.2 release

  ==> Input File <==

--------------------------------------------------------------------------
import numpy as np
set {scf_type pk
basis cc-pvdz
d_convergence 10
gdma_switch   0
gdma_limit    0
gdma_origin   [ 0.0,  0.0,  0.0 ]
}
molecule test {
    units Angstrom
    0 1
    --
    0 1
    C                0.599963576148352     2.331195025735469     1.815500499988834
    C               -0.650036423851648     1.644195025735469     1.292500499988834
    O               -1.290036423851648     2.101195025735469     0.345500499988834
    N               -1.017036423851648     0.533195025735469     1.914500499988834
    H                1.376963576148352     1.576195025735469     1.931500499988834
    H                0.393963576148352     2.733195025735469     2.802500499988834
    H               -1.820036423851648     0.039195025735469     1.554500499988835
    H               -0.436036423851648     0.136195025735469     2.628500499988834
    H                0.977553576148352     3.109445025735469     1.135970499988834
    C                0.820963576148352    -2.239804974264531     0.927500499988834
    C                0.525963576148352    -1.547804974264531    -0.372499500011166
    C               -0.409036423851648    -1.828804974264531    -1.319499500011166
    C                0.718963576148352    -0.054804974264531    -1.976499500011166
    N                1.218963576148352    -0.435804974264531    -0.805499500011166
    N               -0.266036423851648    -0.881804974264531    -2.310499500011166
    H               -0.069036423851648    -2.144804974264531     1.548500499988834
    H                1.635963576148352    -1.732804974264531     1.437500499988834
    H               -1.127036423851648    -2.638804974264531    -1.289499500011166
    H                1.059963576148352     0.790195025735469    -2.566499500011166
    H               -0.816036423851648    -0.815804974264531    -3.161499500011166
    H                1.056673576148352    -3.308798974264531     0.819380499988834

}
e, wfn = energy('scf', return_wfn=True)
gdma(wfn)
dmavals = variable('DMA DISTRIBUTED MULTIPOLES')
charges = np.array(dmavals)
print(charges)
np.save('SSI-099GLN-148HIE-1-dimer.npy', np.array(charges))--------------------------------------------------------------------------

*** tstart() called on ds3
*** at Mon Apr 27 07:19:56 2020

   => Loading Basis Set <=

    Name: CC-PVDZ
    Role: ORBITAL
    Keyword: BASIS
    atoms 1-2, 10-13 entry C          line   138 file /theoryfs2/ds/metcalf/miniconda2/envs/tf2gpu/share/psi4/basis/cc-pvdz.gbs
    atoms 3          entry O          line   198 file /theoryfs2/ds/metcalf/miniconda2/envs/tf2gpu/share/psi4/basis/cc-pvdz.gbs
    atoms 4, 14-15   entry N          line   168 file /theoryfs2/ds/metcalf/miniconda2/envs/tf2gpu/share/psi4/basis/cc-pvdz.gbs
    atoms 5-9, 16-21 entry H          line    22 file /theoryfs2/ds/metcalf/miniconda2/envs/tf2gpu/share/psi4/basis/cc-pvdz.gbs

         ---------------------------------------------------------
                                   SCF
               by Justin Turney, Rob Parrish, Andy Simmonett
                          and Daniel G. A. Smith
                              RHF Reference
                        1 Threads,    500 MiB Core
         ---------------------------------------------------------

  ==> Geometry <==

    Molecular point group: c1
    Full point group: C1

    Geometry (in Angstrom), charge = 0, multiplicity = 1:

       Center              X                  Y                   Z               Mass
    ------------   -----------------  -----------------  -----------------  -----------------
         C            0.599963576148     2.331195025735     1.815500499989    12.000000000000
         C           -0.650036423852     1.644195025735     1.292500499989    12.000000000000
         O           -1.290036423852     2.101195025735     0.345500499989    15.994914619570
         N           -1.017036423852     0.533195025735     1.914500499989    14.003074004430
         H            1.376963576148     1.576195025735     1.931500499989     1.007825032230
         H            0.393963576148     2.733195025735     2.802500499989     1.007825032230
         H           -1.820036423852     0.039195025735     1.554500499989     1.007825032230
         H           -0.436036423852     0.136195025735     2.628500499989     1.007825032230
         H            0.977553576148     3.109445025735     1.135970499989     1.007825032230
         C            0.820963576148    -2.239804974265     0.927500499989    12.000000000000
         C            0.525963576148    -1.547804974265    -0.372499500011    12.000000000000
         C           -0.409036423852    -1.828804974265    -1.319499500011    12.000000000000
         C            0.718963576148    -0.054804974265    -1.976499500011    12.000000000000
         N            1.218963576148    -0.435804974265    -0.805499500011    14.003074004430
         N           -0.266036423852    -0.881804974265    -2.310499500011    14.003074004430
         H           -0.069036423852    -2.144804974265     1.548500499989     1.007825032230
         H            1.635963576148    -1.732804974265     1.437500499989     1.007825032230
         H           -1.127036423852    -2.638804974265    -1.289499500011     1.007825032230
         H            1.059963576148     0.790195025735    -2.566499500011     1.007825032230
         H           -0.816036423852    -0.815804974265    -3.161499500011     1.007825032230
         H            1.056673576148    -3.308798974265     0.819380499989     1.007825032230

  Running in c1 symmetry.

  Rotational constants: A =      0.06149  B =      0.02797  C =      0.02401 [cm^-1]
  Rotational constants: A =   1843.29836  B =    838.60549  C =    719.75560 [MHz]
  Nuclear repulsion =  523.369930147392552

  Charge       = 0
  Multiplicity = 1
  Electrons    = 76
  Nalpha       = 38
  Nbeta        = 38

  ==> Algorithm <==

  SCF Algorithm Type is PK.
  DIIS enabled.
  MOM disabled.
  Fractional occupation disabled.
  Guess Type is SAD.
  Energy threshold   = 1.00e-06
  Density threshold  = 1.00e-10
  Integral threshold = 0.00e+00

  ==> Primary Basis <==

  Basis Set: CC-PVDZ
    Blend: CC-PVDZ
    Number of shells: 93
    Number of basis function: 195
    Number of Cartesian functions: 205
    Spherical Harmonics?: true
    Max angular momentum: 2

  ==> Pre-Iterations <==

   -------------------------------------------------------
    Irrep   Nso     Nmo     Nalpha   Nbeta   Ndocc  Nsocc
   -------------------------------------------------------
     A        195     195       0       0       0       0
   -------------------------------------------------------
    Total     195     195      38      38      38       0
   -------------------------------------------------------

  ==> Integral Setup <==

  Using integral reordering PK algorithm.
  Sizing the integral batches needed.
  Building batch lookup table.
   Calculation information:
      Number of atoms:                  21
      Number of AO shells:              93
      Number of primitives:            275
      Number of atomic orbitals:       205
      Number of basis functions:       195

      Integral cutoff                 1.00e-12
      Number of threads:                 1

	Batch   1 pq = [       0,    9405] index = [             0,44231715] size =     44231715
	Batch   2 pq = [    9405,   13301] index = [      44231715,88464951] size =     44233236
	Batch   3 pq = [   13301,   16290] index = [      88464951,132690195] size =     44225244
	Batch   4 pq = [   16290,   18810] index = [     132690195,176917455] size =     44227260
	Batch   5 pq = [   18810,   19110] index = [     176917455,182605605] size =      5688150
  Task number: 17
  Buffer size: 11059200
  Buffer per thread: 2
  We computed 8979029 shell quartets total.
  Whereas there are 9555006 unique shell quartets.

  ==> DiskJK: Disk-Based J/K Matrices <==

    J tasked:                  Yes
    K tasked:                  Yes
    wK tasked:                  No
    Memory [MiB]:              375
    Schwarz Cutoff:          1E-12

    OpenMP threads:              1

  Minimum eigenvalue in the overlap matrix is 1.2235955705E-03.
  Using Symmetric Orthogonalization.

  SCF Guess: Superposition of Atomic Densities via on-the-fly atomic UHF.

  ==> Iterations <==

                        Total Energy        Delta E     RMS |[F,P]|

   @RHF iter SAD:  -470.78350908061850   -4.70784e+02   0.00000e+00
   @RHF iter   1:  -471.58157983663222   -7.98071e-01   3.64115e-03 DIIS
   @RHF iter   2:  -471.79711318666244   -2.15533e-01   2.06168e-03 DIIS
   @RHF iter   3:  -471.86080622141691   -6.36930e-02   4.28903e-04 DIIS
   @RHF iter   4:  -471.86511669631068   -4.31047e-03   1.61399e-04 DIIS
   @RHF iter   5:  -471.86575598989225   -6.39294e-04   2.98818e-05 DIIS
   @RHF iter   6:  -471.86579713527806   -4.11454e-05   1.46416e-05 DIIS
   @RHF iter   7:  -471.86580534827630   -8.21300e-06   5.42725e-06 DIIS
   @RHF iter   8:  -471.86580700944666   -1.66117e-06   1.87161e-06 DIIS
   @RHF iter   9:  -471.86580721820769   -2.08761e-07   8.24783e-07 DIIS
   @RHF iter  10:  -471.86580724109427   -2.28866e-08   2.29294e-07 DIIS
   @RHF iter  11:  -471.86580724399619   -2.90191e-09   9.15201e-08 DIIS
   @RHF iter  12:  -471.86580724433890   -3.42709e-10   3.86890e-08 DIIS
   @RHF iter  13:  -471.86580724441114   -7.22480e-11   1.30499e-08 DIIS
   @RHF iter  14:  -471.86580724442217   -1.10276e-11   5.85569e-09 DIIS
   @RHF iter  15:  -471.86580724442467   -2.50111e-12   2.37993e-09 DIIS
   @RHF iter  16:  -471.86580724442393    7.38964e-13   6.87999e-10 DIIS
   @RHF iter  17:  -471.86580724442871   -4.77485e-12   2.73356e-10 DIIS
   @RHF iter  18:  -471.86580724442922   -5.11591e-13   6.88149e-11 DIIS
  Energy and wave function converged.

  ==> Post-Iterations <==

    Orbital Energies [Eh]
    ---------------------

    Doubly Occupied:

       1A    -20.490639     2A    -15.619002     3A    -15.575380
       4A    -15.527724     5A    -11.334827     6A    -11.290795
       7A    -11.248959     8A    -11.242719     9A    -11.230546
      10A    -11.227579    11A     -1.353297    12A     -1.338420
      13A     -1.205519    14A     -1.151505    15A     -1.031438
      16A     -0.985768    17A     -0.944282    18A     -0.815375
      19A     -0.786860    20A     -0.760316    21A     -0.739879
      22A     -0.718196    23A     -0.640026    24A     -0.610115
      25A     -0.607123    26A     -0.595970    27A     -0.594081
      28A     -0.558412    29A     -0.555932    30A     -0.545057
      31A     -0.543184    32A     -0.526074    33A     -0.507575
      34A     -0.410716    35A     -0.396589    36A     -0.391466
      37A     -0.377505    38A     -0.306623

    Virtual:

      39A      0.162907    40A      0.180138    41A      0.181933
      42A      0.205263    43A      0.213822    44A      0.226808
      45A      0.230748    46A      0.235534    47A      0.241785
      48A      0.258684    49A      0.263257    50A      0.277700
      51A      0.302491    52A      0.323993    53A      0.368443
      54A      0.390932    55A      0.396535    56A      0.416063
      57A      0.445160    58A      0.482632    59A      0.500584
      60A      0.556343    61A      0.605663    62A      0.632237
      63A      0.636587    64A      0.644351    65A      0.661012
      66A      0.663764    67A      0.693219    68A      0.702498
      69A      0.717355    70A      0.738289    71A      0.742636
      72A      0.760525    73A      0.771995    74A      0.788575
      75A      0.800880    76A      0.815667    77A      0.842185
      78A      0.863460    79A      0.877966    80A      0.885029
      81A      0.892055    82A      0.905994    83A      0.913354
      84A      0.922459    85A      0.941616    86A      0.946386
      87A      0.956247    88A      0.968706    89A      0.976538
      90A      1.020921    91A      1.028694    92A      1.054840
      93A      1.078131    94A      1.101832    95A      1.108101
      96A      1.112696    97A      1.126342    98A      1.140880
      99A      1.157737   100A      1.173480   101A      1.218268
     102A      1.249821   103A      1.269336   104A      1.299655
     105A      1.321004   106A      1.329371   107A      1.342841
     108A      1.366664   109A      1.390307   110A      1.396263
     111A      1.414944   112A      1.439674   113A      1.462559
     114A      1.477036   115A      1.484800   116A      1.525039
     117A      1.534468   118A      1.571878   119A      1.622510
     120A      1.652658   121A      1.673826   122A      1.679531
     123A      1.691423   124A      1.709308   125A      1.774162
     126A      1.784464   127A      1.805749   128A      1.822305
     129A      1.838301   130A      1.859734   131A      1.870814
     132A      1.898338   133A      1.916025   134A      1.919604
     135A      1.931535   136A      1.935758   137A      1.941777
     138A      1.948564   139A      1.965069   140A      1.967594
     141A      1.991159   142A      2.010700   143A      2.038603
     144A      2.055847   145A      2.073171   146A      2.084244
     147A      2.111874   148A      2.151177   149A      2.160182
     150A      2.205404   151A      2.235345   152A      2.254266
     153A      2.264380   154A      2.280015   155A      2.308258
     156A      2.366513   157A      2.374703   158A      2.396172
     159A      2.447281   160A      2.459174   161A      2.468373
     162A      2.478044   163A      2.511951   164A      2.578779
     165A      2.580326   166A      2.605977   167A      2.612759
     168A      2.633633   169A      2.677877   170A      2.727261
     171A      2.743416   172A      2.764686   173A      2.777030
     174A      2.782819   175A      2.807717   176A      2.817115
     177A      2.820393   178A      2.872758   179A      2.873333
     180A      2.896292   181A      2.932358   182A      2.972521
     183A      3.006122   184A      3.068758   185A      3.104368
     186A      3.149480   187A      3.152648   188A      3.231461
     189A      3.318323   190A      3.464376   191A      3.516330
     192A      3.549953   193A      3.793952   194A      3.872926
     195A      3.914873

    Final Occupation by Irrep:
              A
    DOCC [    38 ]

  @RHF Final Energy:  -471.86580724442922

   => Energetics <=

    Nuclear Repulsion Energy =            523.3699301473925516
    One-Electron Energy =               -1680.9005278626314066
    Two-Electron Energy =                 685.6647904708096348
    Total Energy =                       -471.8658072444292202

Computation Completed

Properties will be evaluated at   0.000000,   0.000000,   0.000000 [a0]

Properties computed using the SCF density matrix

  Nuclear Dipole Moment: [e a0]
     X:     2.0873      Y:    -2.1031      Z:     6.4182

  Electronic Dipole Moment: [e a0]
     X:    -2.2912      Y:     0.9826      Z:    -6.2954

  Dipole Moment: [e a0]
     X:    -0.2039      Y:    -1.1205      Z:     0.1228     Total:     1.1455

  Dipole Moment: [D]
     X:    -0.5184      Y:    -2.8480      Z:     0.3122     Total:     2.9116

*** tstop() called on ds3 at Mon Apr 27 07:21:40 2020
Module time:
	user time   =      75.97 seconds =       1.27 minutes
	system time =      31.85 seconds =       0.53 minutes
	total time  =        104 seconds =       1.73 minutes
Total time:
	user time   =      75.97 seconds =       1.27 minutes
	system time =      31.85 seconds =       0.53 minutes
	total time  =        104 seconds =       1.73 minutes
                                     G D M A

                                 by Anthony Stone

                           version 2.2.06, 22 June 2011

               Distributed Multipoles from Gaussian wavefunctions

Starting at 7:21:40 on 27 Apr 2020

Using SCF density matrix from file ./SSI/SSI-099GLN-148HIE-1-dimer.test.28138.fchk

                         Distributed Multipole Analysis

Standard DMA

Positions and radii in angstrom
Multipole moments in atomic units, ea_0^k for rank k

C          x =  0.599964  y =  2.331195  z =  1.815501 angstrom
           Maximum rank =  0   Radius =  0.650 angstrom
                   Q00  =  -0.261356

C          x = -0.650036  y =  1.644195  z =  1.292500 angstrom
           Maximum rank =  0   Radius =  0.650 angstrom
                   Q00  =   0.829284

O          x = -1.290036  y =  2.101195  z =  0.345501 angstrom
           Maximum rank =  0   Radius =  0.650 angstrom
                   Q00  =  -0.800258

N          x = -1.017036  y =  0.533195  z =  1.914501 angstrom
           Maximum rank =  0   Radius =  0.650 angstrom
                   Q00  =  -0.518928

H          x =  1.376964  y =  1.576195  z =  1.931501 angstrom
           Maximum rank =  0   Radius =  0.325 angstrom
                   Q00  =   0.101253

H          x =  0.393964  y =  2.733195  z =  2.802501 angstrom
           Maximum rank =  0   Radius =  0.325 angstrom
                   Q00  =   0.106429

H          x = -1.820036  y =  0.039195  z =  1.554501 angstrom
           Maximum rank =  0   Radius =  0.325 angstrom
                   Q00  =   0.219610

H          x = -0.436036  y =  0.136195  z =  2.628501 angstrom
           Maximum rank =  0   Radius =  0.325 angstrom
                   Q00  =   0.201865

H          x =  0.977554  y =  3.109445  z =  1.135970 angstrom
           Maximum rank =  0   Radius =  0.325 angstrom
                   Q00  =   0.129037

C          x =  0.820964  y = -2.239805  z =  0.927501 angstrom
           Maximum rank =  0   Radius =  0.650 angstrom
                   Q00  =  -0.198440

C          x =  0.525964  y = -1.547805  z = -0.372500 angstrom
           Maximum rank =  0   Radius =  0.650 angstrom
                   Q00  =   0.233780

C          x = -0.409036  y = -1.828805  z = -1.319500 angstrom
           Maximum rank =  0   Radius =  0.650 angstrom
                   Q00  =  -0.005264

C          x =  0.718964  y = -0.054805  z = -1.976500 angstrom
           Maximum rank =  0   Radius =  0.650 angstrom
                   Q00  =   0.468120

N          x =  1.218964  y = -0.435805  z = -0.805500 angstrom
           Maximum rank =  0   Radius =  0.650 angstrom
                   Q00  =  -0.779709

N          x = -0.266036  y = -0.881805  z = -2.310500 angstrom
           Maximum rank =  0   Radius =  0.650 angstrom
                   Q00  =  -0.473071

H          x = -0.069036  y = -2.144805  z =  1.548501 angstrom
           Maximum rank =  0   Radius =  0.325 angstrom
                   Q00  =   0.077105

H          x =  1.635964  y = -1.732805  z =  1.437501 angstrom
           Maximum rank =  0   Radius =  0.325 angstrom
                   Q00  =   0.119057

H          x = -1.127036  y = -2.638805  z = -1.289499 angstrom
           Maximum rank =  0   Radius =  0.325 angstrom
                   Q00  =   0.096427

H          x =  1.059964  y =  0.790195  z = -2.566500 angstrom
           Maximum rank =  0   Radius =  0.325 angstrom
                   Q00  =   0.128776

H          x = -0.816036  y = -0.815805  z = -3.161500 angstrom
           Maximum rank =  0   Radius =  0.325 angstrom
                   Q00  =   0.222935

H          x =  1.056674  y = -3.308799  z =  0.819381 angstrom
           Maximum rank =  0   Radius =  0.325 angstrom
                   Q00  =   0.103347

Total multipoles referred to origin at
           x =   0.000000,  y =    0.000000,  z =    0.000000 angstrom
                   Q00  =  -0.000000

Finished at 7:21:40 on 27 Apr 2020

  DMA results are available in the Python driver through the
	  variable('DMA DISTRIBUTED MULTIPOLES')
  and
	  variable('DMA TOTAL MULTIPOLES')
  commands.

    Psi4 stopped on: Monday, 27 April 2020 07:21AM
    Psi4 wall time for execution: 0:01:44.59

*** Psi4 exiting successfully. Buy a developer a beer!
