                               Psi4 1.3.2 release

  ==> Input File <==

--------------------------------------------------------------------------
import numpy as np
set {scf_type pk
basis cc-pvdz
d_convergence 10
gdma_switch   0
gdma_limit    0
gdma_origin   [ 0.0,  0.0,  0.0 ]
}
molecule test {
    units Angstrom
    0 1
    --
    0 1
    C                2.263410394446408     2.458984329891099    -0.725578079826649
    C                2.140410394446408     1.090984329891098    -0.077578079826649
    O                1.197410394446409     0.826984329891098     0.662421920173351
    N                3.086410394446408     0.208984329891099    -0.352578079826649
    H                1.380410394446408     2.570984329891099    -1.348578079826649
    H                3.136410394446408     2.502984329891099    -1.377578079826649
    H                3.016410394446408    -0.698015670108902     0.081421920173351
    H                3.900410394446408     0.455984329891098    -0.901578079826649
    H                2.326761394446408     3.262384329891098     0.023110920173351
    C               -2.596589605553592    -0.123015670108901    -0.832578079826649
    C               -2.122589605553592    -1.160015670108901     0.158421920173351
    O               -0.925589605553592    -1.312015670108901     0.388421920173351
    N               -3.050589605553592    -1.890015670108901     0.760421920173351
    H               -2.105589605553592    -0.326015670108901    -1.772578079826649
    H               -2.253589605553592     0.828984329891098    -0.431578079826649
    H               -2.742589605553592    -2.600015670108901     1.409421920173351
    H               -4.029589605553591    -1.785015670108901     0.547421920173351
    H               -3.685825605553592    -0.149655670108901    -0.983761079826649

}
e, wfn = energy('scf', return_wfn=True)
gdma(wfn)
dmavals = variable('DMA DISTRIBUTED MULTIPOLES')
charges = np.array(dmavals)
print(charges)
np.save('SSI-022GLN-028GLN-1-dimer.npy', np.array(charges))--------------------------------------------------------------------------

*** tstart() called on ds3
*** at Sun Apr 26 20:40:40 2020

   => Loading Basis Set <=

    Name: CC-PVDZ
    Role: ORBITAL
    Keyword: BASIS
    atoms 1-2, 10-11 entry C          line   138 file /theoryfs2/ds/metcalf/miniconda2/envs/tf2gpu/share/psi4/basis/cc-pvdz.gbs
    atoms 3, 12      entry O          line   198 file /theoryfs2/ds/metcalf/miniconda2/envs/tf2gpu/share/psi4/basis/cc-pvdz.gbs
    atoms 4, 13      entry N          line   168 file /theoryfs2/ds/metcalf/miniconda2/envs/tf2gpu/share/psi4/basis/cc-pvdz.gbs
    atoms 5-9, 14-18 entry H          line    22 file /theoryfs2/ds/metcalf/miniconda2/envs/tf2gpu/share/psi4/basis/cc-pvdz.gbs

         ---------------------------------------------------------
                                   SCF
               by Justin Turney, Rob Parrish, Andy Simmonett
                          and Daniel G. A. Smith
                              RHF Reference
                        1 Threads,    500 MiB Core
         ---------------------------------------------------------

  ==> Geometry <==

    Molecular point group: c1
    Full point group: C1

    Geometry (in Angstrom), charge = 0, multiplicity = 1:

       Center              X                  Y                   Z               Mass
    ------------   -----------------  -----------------  -----------------  -----------------
         C            2.263410394446     2.458984329891    -0.725578079827    12.000000000000
         C            2.140410394446     1.090984329891    -0.077578079827    12.000000000000
         O            1.197410394446     0.826984329891     0.662421920173    15.994914619570
         N            3.086410394446     0.208984329891    -0.352578079827    14.003074004430
         H            1.380410394446     2.570984329891    -1.348578079827     1.007825032230
         H            3.136410394446     2.502984329891    -1.377578079827     1.007825032230
         H            3.016410394446    -0.698015670109     0.081421920173     1.007825032230
         H            3.900410394446     0.455984329891    -0.901578079827     1.007825032230
         H            2.326761394446     3.262384329891     0.023110920173     1.007825032230
         C           -2.596589605554    -0.123015670109    -0.832578079827    12.000000000000
         C           -2.122589605554    -1.160015670109     0.158421920173    12.000000000000
         O           -0.925589605554    -1.312015670109     0.388421920173    15.994914619570
         N           -3.050589605554    -1.890015670109     0.760421920173    14.003074004430
         H           -2.105589605554    -0.326015670109    -1.772578079827     1.007825032230
         H           -2.253589605554     0.828984329891    -0.431578079827     1.007825032230
         H           -2.742589605554    -2.600015670109     1.409421920173     1.007825032230
         H           -4.029589605554    -1.785015670109     0.547421920173     1.007825032230
         H           -3.685825605554    -0.149655670109    -0.983761079827     1.007825032230

  Running in c1 symmetry.

  Rotational constants: A =      0.13958  B =      0.02059  C =      0.01898 [cm^-1]
  Rotational constants: A =   4184.49208  B =    617.34801  C =    569.00228 [MHz]
  Nuclear repulsion =  353.541975602894240

  Charge       = 0
  Multiplicity = 1
  Electrons    = 64
  Nalpha       = 32
  Nbeta        = 32

  ==> Algorithm <==

  SCF Algorithm Type is PK.
  DIIS enabled.
  MOM disabled.
  Fractional occupation disabled.
  Guess Type is SAD.
  Energy threshold   = 1.00e-06
  Density threshold  = 1.00e-10
  Integral threshold = 0.00e+00

  ==> Primary Basis <==

  Basis Set: CC-PVDZ
    Blend: CC-PVDZ
    Number of shells: 78
    Number of basis function: 162
    Number of Cartesian functions: 170
    Spherical Harmonics?: true
    Max angular momentum: 2

  ==> Pre-Iterations <==

   -------------------------------------------------------
    Irrep   Nso     Nmo     Nalpha   Nbeta   Ndocc  Nsocc
   -------------------------------------------------------
     A        162     162       0       0       0       0
   -------------------------------------------------------
    Total     162     162      32      32      32       0
   -------------------------------------------------------

  ==> Integral Setup <==

  Using integral reordering PK algorithm.
  Sizing the integral batches needed.
  Building batch lookup table.
   Calculation information:
      Number of atoms:                  18
      Number of AO shells:              78
      Number of primitives:            226
      Number of atomic orbitals:       170
      Number of basis functions:       162

      Integral cutoff                 1.00e-12
      Number of threads:                 1

	Batch   1 pq = [       0,    9405] index = [             0,44231715] size =     44231715
	Batch   2 pq = [    9405,   13203] index = [      44231715,87166206] size =     42934491
  Task number: 8
  Buffer size: 11059200
  Buffer per thread: 2
  We computed 3150060 shell quartets total.
  Whereas there are 4747821 unique shell quartets.

  ==> DiskJK: Disk-Based J/K Matrices <==

    J tasked:                  Yes
    K tasked:                  Yes
    wK tasked:                  No
    Memory [MiB]:              375
    Schwarz Cutoff:          1E-12

    OpenMP threads:              1

  Minimum eigenvalue in the overlap matrix is 4.5693002991E-03.
  Using Symmetric Orthogonalization.

  SCF Guess: Superposition of Atomic Densities via on-the-fly atomic UHF.

  ==> Iterations <==

                        Total Energy        Delta E     RMS |[F,P]|

   @RHF iter SAD:  -414.53457235218048   -4.14535e+02   0.00000e+00
   @RHF iter   1:  -415.67041559003042   -1.13584e+00   4.80917e-03 DIIS
   @RHF iter   2:  -415.88898957686666   -2.18574e-01   3.01670e-03 DIIS
   @RHF iter   3:  -415.97456352380914   -8.55739e-02   5.57914e-04 DIIS
   @RHF iter   4:  -415.97930442226698   -4.74090e-03   2.04115e-04 DIIS
   @RHF iter   5:  -415.98011074157557   -8.06319e-04   3.86728e-05 DIIS
   @RHF iter   6:  -415.98016600204647   -5.52605e-05   1.93855e-05 DIIS
   @RHF iter   7:  -415.98017641380738   -1.04118e-05   7.41876e-06 DIIS
   @RHF iter   8:  -415.98017843403989   -2.02023e-06   2.28193e-06 DIIS
   @RHF iter   9:  -415.98017864112592   -2.07086e-07   5.39678e-07 DIIS
   @RHF iter  10:  -415.98017864957075   -8.44483e-09   2.73496e-07 DIIS
   @RHF iter  11:  -415.98017865072734   -1.15659e-09   4.94651e-08 DIIS
   @RHF iter  12:  -415.98017865079692   -6.95763e-11   1.37640e-08 DIIS
   @RHF iter  13:  -415.98017865080328   -6.36646e-12   3.81966e-09 DIIS
   @RHF iter  14:  -415.98017865080476   -1.47793e-12   1.44405e-09 DIIS
   @RHF iter  15:  -415.98017865080362    1.13687e-12   4.82916e-10 DIIS
   @RHF iter  16:  -415.98017865080169    1.93268e-12   1.81087e-10 DIIS
   @RHF iter  17:  -415.98017865080254   -8.52651e-13   7.60636e-11 DIIS
  Energy and wave function converged.

  ==> Post-Iterations <==

    Orbital Energies [Eh]
    ---------------------

    Doubly Occupied:

       1A    -20.481939     2A    -20.481795     3A    -15.574388
       4A    -15.573043     5A    -11.328760     6A    -11.328447
       7A    -11.231314     8A    -11.226646     9A     -1.348906
      10A     -1.347743    11A     -1.200851    12A     -1.200140
      13A     -0.987694    14A     -0.987211    15A     -0.784936
      16A     -0.783684    17A     -0.713190    18A     -0.712139
      19A     -0.638495    20A     -0.635736    21A     -0.601030
      22A     -0.599580    23A     -0.553221    24A     -0.546688
      25A     -0.543670    26A     -0.543267    27A     -0.509117
      28A     -0.506648    29A     -0.392635    30A     -0.388603
      31A     -0.385519    32A     -0.379744

    Virtual:

      33A      0.172790    34A      0.179317    35A      0.210766
      36A      0.221790    37A      0.223018    38A      0.231907
      39A      0.238297    40A      0.243880    41A      0.282806
      42A      0.286497    43A      0.296232    44A      0.304853
      45A      0.390476    46A      0.392235    47A      0.459994
      48A      0.500722    49A      0.581856    50A      0.586226
      51A      0.639706    52A      0.645156    53A      0.685602
      54A      0.689942    55A      0.704988    56A      0.706500
      57A      0.720758    58A      0.731238    59A      0.750171
      60A      0.753504    61A      0.760160    62A      0.763222
      63A      0.842922    64A      0.857945    65A      0.863315
      66A      0.874716    67A      0.896110    68A      0.916520
      69A      0.927276    70A      0.936754    71A      0.947928
      72A      0.952718    73A      1.012988    74A      1.018676
      75A      1.019561    76A      1.020335    77A      1.044933
      78A      1.063910    79A      1.100411    80A      1.135419
      81A      1.141143    82A      1.188575    83A      1.326734
      84A      1.341808    85A      1.349443    86A      1.379463
      87A      1.387920    88A      1.400162    89A      1.415032
      90A      1.440218    91A      1.449658    92A      1.455735
      93A      1.463122    94A      1.497933    95A      1.507574
      96A      1.553802    97A      1.649987    98A      1.662017
      99A      1.669626   100A      1.679705   101A      1.713019
     102A      1.729367   103A      1.837828   104A      1.842600
     105A      1.848669   106A      1.856537   107A      1.891222
     108A      1.896093   109A      1.908554   110A      1.915884
     111A      1.928566   112A      1.933406   113A      1.942749
     114A      1.944927   115A      1.989375   116A      1.998162
     117A      2.079752   118A      2.086089   119A      2.094766
     120A      2.095758   121A      2.119971   122A      2.128638
     123A      2.221646   124A      2.235143   125A      2.323790
     126A      2.354624   127A      2.429039   128A      2.433767
     129A      2.435301   130A      2.444495   131A      2.474343
     132A      2.485604   133A      2.548940   134A      2.556356
     135A      2.578245   136A      2.583502   137A      2.651620
     138A      2.657642   139A      2.758654   140A      2.769346
     141A      2.788024   142A      2.789100   143A      2.813084
     144A      2.824846   145A      2.851981   146A      2.865440
     147A      2.985099   148A      2.986367   149A      3.109457
     150A      3.110437   151A      3.149171   152A      3.151379
     153A      3.289638   154A      3.291955   155A      3.519998
     156A      3.523437   157A      3.542266   158A      3.545141
     159A      3.890589   160A      3.891889   161A      3.922034
     162A      3.958110

    Final Occupation by Irrep:
              A
    DOCC [    32 ]

  @RHF Final Energy:  -415.98017865080254

   => Energetics <=

    Nuclear Repulsion Energy =            353.5419756028942402
    One-Electron Energy =               -1270.0107558423246701
    Two-Electron Energy =                 500.4886015886278869
    Total Energy =                       -415.9801786508025430

Computation Completed

Properties will be evaluated at   0.000000,   0.000000,   0.000000 [a0]

Properties computed using the SCF density matrix

  Nuclear Dipole Moment: [e a0]
     X:    -0.9895      Y:     3.8111      Z:    -4.4531

  Electronic Dipole Moment: [e a0]
     X:     0.7647      Y:    -3.8162      Z:     3.4872

  Dipole Moment: [e a0]
     X:    -0.2248      Y:    -0.0051      Z:    -0.9659     Total:     0.9917

  Dipole Moment: [D]
     X:    -0.5714      Y:    -0.0128      Z:    -2.4550     Total:     2.5207

*** tstop() called on ds3 at Sun Apr 26 20:41:24 2020
Module time:
	user time   =      28.24 seconds =       0.47 minutes
	system time =      16.74 seconds =       0.28 minutes
	total time  =         44 seconds =       0.73 minutes
Total time:
	user time   =      28.24 seconds =       0.47 minutes
	system time =      16.74 seconds =       0.28 minutes
	total time  =         44 seconds =       0.73 minutes
                                     G D M A

                                 by Anthony Stone

                           version 2.2.06, 22 June 2011

               Distributed Multipoles from Gaussian wavefunctions

Starting at 20:41:24 on 26 Apr 2020

Using SCF density matrix from file ./SSI/SSI-022GLN-028GLN-1-dimer.test.9710.fchk

                         Distributed Multipole Analysis

Standard DMA

Positions and radii in angstrom
Multipole moments in atomic units, ea_0^k for rank k

C          x =  2.263410  y =  2.458984  z = -0.725578 angstrom
           Maximum rank =  0   Radius =  0.650 angstrom
                   Q00  =  -0.260160

C          x =  2.140410  y =  1.090984  z = -0.077578 angstrom
           Maximum rank =  0   Radius =  0.650 angstrom
                   Q00  =   0.804249

O          x =  1.197410  y =  0.826984  z =  0.662422 angstrom
           Maximum rank =  0   Radius =  0.650 angstrom
                   Q00  =  -0.774131

N          x =  3.086410  y =  0.208984  z = -0.352578 angstrom
           Maximum rank =  0   Radius =  0.650 angstrom
                   Q00  =  -0.520249

H          x =  1.380410  y =  2.570984  z = -1.348578 angstrom
           Maximum rank =  0   Radius =  0.325 angstrom
                   Q00  =   0.127964

H          x =  3.136410  y =  2.502984  z = -1.377578 angstrom
           Maximum rank =  0   Radius =  0.325 angstrom
                   Q00  =   0.068243

H          x =  3.016410  y = -0.698016  z =  0.081422 angstrom
           Maximum rank =  0   Radius =  0.325 angstrom
                   Q00  =   0.223053

H          x =  3.900410  y =  0.455984  z = -0.901578 angstrom
           Maximum rank =  0   Radius =  0.325 angstrom
                   Q00  =   0.201960

H          x =  2.326761  y =  3.262384  z =  0.023111 angstrom
           Maximum rank =  0   Radius =  0.325 angstrom
                   Q00  =   0.129514

C          x = -2.596590  y = -0.123016  z = -0.832578 angstrom
           Maximum rank =  0   Radius =  0.650 angstrom
                   Q00  =  -0.260669

C          x = -2.122590  y = -1.160016  z =  0.158422 angstrom
           Maximum rank =  0   Radius =  0.650 angstrom
                   Q00  =   0.808489

O          x = -0.925590  y = -1.312016  z =  0.388422 angstrom
           Maximum rank =  0   Radius =  0.650 angstrom
                   Q00  =  -0.781563

N          x = -3.050590  y = -1.890016  z =  0.760422 angstrom
           Maximum rank =  0   Radius =  0.650 angstrom
                   Q00  =  -0.518180

H          x = -2.105590  y = -0.326016  z = -1.772578 angstrom
           Maximum rank =  0   Radius =  0.325 angstrom
                   Q00  =   0.129286

H          x = -2.253590  y =  0.828984  z = -0.431578 angstrom
           Maximum rank =  0   Radius =  0.325 angstrom
                   Q00  =   0.140266

H          x = -2.742590  y = -2.600016  z =  1.409422 angstrom
           Maximum rank =  0   Radius =  0.325 angstrom
                   Q00  =   0.213538

H          x = -4.029590  y = -1.785016  z =  0.547422 angstrom
           Maximum rank =  0   Radius =  0.325 angstrom
                   Q00  =   0.200857

H          x = -3.685826  y = -0.149656  z = -0.983761 angstrom
           Maximum rank =  0   Radius =  0.325 angstrom
                   Q00  =   0.067534

Total multipoles referred to origin at
           x =   0.000000,  y =    0.000000,  z =    0.000000 angstrom
                   Q00  =  -0.000000

Finished at 20:41:24 on 26 Apr 2020

  DMA results are available in the Python driver through the
	  variable('DMA DISTRIBUTED MULTIPOLES')
  and
	  variable('DMA TOTAL MULTIPOLES')
  commands.

    Psi4 stopped on: Sunday, 26 April 2020 08:41PM
    Psi4 wall time for execution: 0:00:43.39

*** Psi4 exiting successfully. Buy a developer a beer!
