                               Psi4 1.3.2 release

  ==> Input File <==

--------------------------------------------------------------------------
import numpy as np
set {scf_type pk
basis cc-pvdz
d_convergence 10
gdma_switch   0
gdma_limit    0
gdma_origin   [ 0.0,  0.0,  0.0 ]
}
molecule test {
    units Angstrom
    0 1
    --
    0 1
    C               -0.041185955872277     2.151359590869744     2.398946939482233
    O                0.228814044127723     1.812359590869744     1.053946939482233
    H                0.487814044127723     2.623359590869744     0.592946939482233
    H               -0.624185955872277     1.354359590869744     2.861946939482233
    H               -0.625185955872277     3.072359590869744     2.438946939482233
    H                0.901144044127723     2.285769590869744     2.950256939482233
    C                0.597814044127723    -0.105640409130256    -1.759053060517767
    C               -0.111185955872277    -1.148640409130256    -0.932053060517767
    O               -0.553185955872277    -2.167640409130255    -1.454053060517767
    N               -0.149185955872277    -0.951640409130256     0.369946939482233
    H               -0.731185955872277    -1.562640409130256     0.931946939482233
    H                0.189814044127723    -0.069640409130256     0.748946939482233
    H                1.665814044127723    -0.156640409130256    -1.546053060517767
    H                0.230814044127723     0.874359590869744    -1.454053060517767
    H                0.422214044127723    -0.241660409130256    -2.836394060517767

}
e, wfn = energy('scf', return_wfn=True)
gdma(wfn)
dmavals = variable('DMA DISTRIBUTED MULTIPOLES')
charges = np.array(dmavals)
print(charges)
np.save('SSI-007SER-100ASN-1-dimer.npy', np.array(charges))--------------------------------------------------------------------------

*** tstart() called on ds3
*** at Mon Apr 27 18:01:42 2020

   => Loading Basis Set <=

    Name: CC-PVDZ
    Role: ORBITAL
    Keyword: BASIS
    atoms 1, 7-8     entry C          line   138 file /theoryfs2/ds/metcalf/miniconda2/envs/tf2gpu/share/psi4/basis/cc-pvdz.gbs
    atoms 2, 9       entry O          line   198 file /theoryfs2/ds/metcalf/miniconda2/envs/tf2gpu/share/psi4/basis/cc-pvdz.gbs
    atoms 3-6, 11-15 entry H          line    22 file /theoryfs2/ds/metcalf/miniconda2/envs/tf2gpu/share/psi4/basis/cc-pvdz.gbs
    atoms 10         entry N          line   168 file /theoryfs2/ds/metcalf/miniconda2/envs/tf2gpu/share/psi4/basis/cc-pvdz.gbs

         ---------------------------------------------------------
                                   SCF
               by Justin Turney, Rob Parrish, Andy Simmonett
                          and Daniel G. A. Smith
                              RHF Reference
                        1 Threads,    500 MiB Core
         ---------------------------------------------------------

  ==> Geometry <==

    Molecular point group: c1
    Full point group: C1

    Geometry (in Angstrom), charge = 0, multiplicity = 1:

       Center              X                  Y                   Z               Mass
    ------------   -----------------  -----------------  -----------------  -----------------
         C           -0.041185955872     2.151359590870     2.398946939482    12.000000000000
         O            0.228814044128     1.812359590870     1.053946939482    15.994914619570
         H            0.487814044128     2.623359590870     0.592946939482     1.007825032230
         H           -0.624185955872     1.354359590870     2.861946939482     1.007825032230
         H           -0.625185955872     3.072359590870     2.438946939482     1.007825032230
         H            0.901144044128     2.285769590870     2.950256939482     1.007825032230
         C            0.597814044128    -0.105640409130    -1.759053060518    12.000000000000
         C           -0.111185955872    -1.148640409130    -0.932053060518    12.000000000000
         O           -0.553185955872    -2.167640409130    -1.454053060518    15.994914619570
         N           -0.149185955872    -0.951640409130     0.369946939482    14.003074004430
         H           -0.731185955872    -1.562640409130     0.931946939482     1.007825032230
         H            0.189814044128    -0.069640409130     0.748946939482     1.007825032230
         H            1.665814044128    -0.156640409130    -1.546053060518     1.007825032230
         H            0.230814044128     0.874359590870    -1.454053060518     1.007825032230
         H            0.422214044128    -0.241660409130    -2.836394060518     1.007825032230

  Running in c1 symmetry.

  Rotational constants: A =      0.25419  B =      0.04199  C =      0.03690 [cm^-1]
  Rotational constants: A =   7620.27521  B =   1258.92518  C =   1106.26173 [MHz]
  Nuclear repulsion =  239.078808660275087

  Charge       = 0
  Multiplicity = 1
  Electrons    = 50
  Nalpha       = 25
  Nbeta        = 25

  ==> Algorithm <==

  SCF Algorithm Type is PK.
  DIIS enabled.
  MOM disabled.
  Fractional occupation disabled.
  Guess Type is SAD.
  Energy threshold   = 1.00e-06
  Density threshold  = 1.00e-10
  Integral threshold = 0.00e+00

  ==> Primary Basis <==

  Basis Set: CC-PVDZ
    Blend: CC-PVDZ
    Number of shells: 63
    Number of basis function: 129
    Number of Cartesian functions: 135
    Spherical Harmonics?: true
    Max angular momentum: 2

  ==> Pre-Iterations <==

   -------------------------------------------------------
    Irrep   Nso     Nmo     Nalpha   Nbeta   Ndocc  Nsocc
   -------------------------------------------------------
     A        129     129       0       0       0       0
   -------------------------------------------------------
    Total     129     129      25      25      25       0
   -------------------------------------------------------

  ==> Integral Setup <==

  Using integral reordering PK algorithm.
  Sizing the integral batches needed.
  Building batch lookup table.
   Calculation information:
      Number of atoms:                  15
      Number of AO shells:              63
      Number of primitives:            177
      Number of atomic orbitals:       135
      Number of basis functions:       129

      Integral cutoff                 1.00e-12
      Number of threads:                 1

	Batch   1 pq = [       0,    8385] index = [             0,35158305] size =     35158305
  Task number: 4
  Buffer size: 11059200
  Buffer per thread: 2
  We computed 1807936 shell quartets total.
  Whereas there are 2033136 unique shell quartets.

  ==> DiskJK: Disk-Based J/K Matrices <==

    J tasked:                  Yes
    K tasked:                  Yes
    wK tasked:                  No
    Memory [MiB]:              375
    Schwarz Cutoff:          1E-12

    OpenMP threads:              1

  Minimum eigenvalue in the overlap matrix is 4.5994672679E-03.
  Using Symmetric Orthogonalization.

  SCF Guess: Superposition of Atomic Densities via on-the-fly atomic UHF.

  ==> Iterations <==

                        Total Energy        Delta E     RMS |[F,P]|

   @RHF iter SAD:  -321.76926661303827   -3.21769e+02   0.00000e+00
   @RHF iter   1:  -322.84106663007958   -1.07180e+00   4.91100e-03 DIIS
   @RHF iter   2:  -322.99778690470686   -1.56720e-01   2.76078e-03 DIIS
   @RHF iter   3:  -323.04299298844046   -4.52061e-02   5.37380e-04 DIIS
   @RHF iter   4:  -323.04588813944235   -2.89515e-03   2.17289e-04 DIIS
   @RHF iter   5:  -323.04637320158486   -4.85062e-04   4.37330e-05 DIIS
   @RHF iter   6:  -323.04640646256888   -3.32610e-05   2.06666e-05 DIIS
   @RHF iter   7:  -323.04641352819050   -7.06562e-06   7.53155e-06 DIIS
   @RHF iter   8:  -323.04641489430793   -1.36612e-06   2.54266e-06 DIIS
   @RHF iter   9:  -323.04641504227482   -1.47967e-07   8.19084e-07 DIIS
   @RHF iter  10:  -323.04641505468970   -1.24149e-08   2.58223e-07 DIIS
   @RHF iter  11:  -323.04641505593150   -1.24180e-09   4.55306e-08 DIIS
   @RHF iter  12:  -323.04641505597709   -4.55884e-11   1.17124e-08 DIIS
   @RHF iter  13:  -323.04641505598016   -3.06954e-12   3.43579e-09 DIIS
   @RHF iter  14:  -323.04641505597959    5.68434e-13   1.53526e-09 DIIS
   @RHF iter  15:  -323.04641505598141   -1.81899e-12   6.30785e-10 DIIS
   @RHF iter  16:  -323.04641505598124    1.70530e-13   2.62556e-10 DIIS
   @RHF iter  17:  -323.04641505598028    9.66338e-13   1.11983e-10 DIIS
   @RHF iter  18:  -323.04641505597942    8.52651e-13   2.94900e-11 DIIS
  Energy and wave function converged.

  ==> Post-Iterations <==

    Orbital Energies [Eh]
    ---------------------

    Doubly Occupied:

       1A    -20.589359     2A    -20.480751     3A    -15.557620
       4A    -11.323394     5A    -11.302736     6A    -11.224077
       7A     -1.391284     8A     -1.347246     9A     -1.192439
      10A     -0.982705    11A     -0.949569    12A     -0.776127
      13A     -0.728910    14A     -0.693284    15A     -0.648283
      16A     -0.634777    17A     -0.623515    18A     -0.595961
      19A     -0.550757    20A     -0.542051    21A     -0.521974
      22A     -0.501801    23A     -0.477116    24A     -0.388408
      25A     -0.379721

    Virtual:

      26A      0.152478    27A      0.187414    28A      0.206322
      29A      0.214725    30A      0.242374    31A      0.249971
      32A      0.260470    33A      0.281720    34A      0.300172
      35A      0.319705    36A      0.371990    37A      0.409021
      38A      0.482313    39A      0.572478    40A      0.599403
      41A      0.616098    42A      0.646601    43A      0.651527
      44A      0.720285    45A      0.736500    46A      0.749012
      47A      0.755409    48A      0.779021    49A      0.797203
      50A      0.835747    51A      0.865110    52A      0.879660
      53A      0.889917    54A      0.891203    55A      0.906151
      56A      0.937069    57A      0.965248    58A      1.034526
      59A      1.038390    60A      1.111515    61A      1.116882
      62A      1.129230    63A      1.135626    64A      1.153775
      65A      1.190269    66A      1.296565    67A      1.305877
      68A      1.342586    69A      1.376043    70A      1.391979
      71A      1.421438    72A      1.444652    73A      1.482222
      74A      1.528476    75A      1.571945    76A      1.619218
      77A      1.636976    78A      1.653201    79A      1.682849
      80A      1.696488    81A      1.729679    82A      1.828687
      83A      1.837395    84A      1.879211    85A      1.888380
      86A      1.902532    87A      1.917522    88A      1.921130
      89A      1.946608    90A      1.969051    91A      1.994434
      92A      2.011845    93A      2.049553    94A      2.054607
      95A      2.112508    96A      2.122319    97A      2.195572
      98A      2.256233    99A      2.270816   100A      2.284118
     101A      2.351685   102A      2.358667   103A      2.420830
     104A      2.474517   105A      2.476759   106A      2.546974
     107A      2.564081   108A      2.671301   109A      2.685024
     110A      2.735369   111A      2.741800   112A      2.750893
     113A      2.763410   114A      2.777947   115A      2.821786
     116A      2.905372   117A      3.024964   118A      3.113418
     119A      3.167329   120A      3.264153   121A      3.319454
     122A      3.353652   123A      3.437545   124A      3.502213
     125A      3.557374   126A      3.595841   127A      3.888243
     128A      3.928781   129A      4.077417

    Final Occupation by Irrep:
              A
    DOCC [    25 ]

  @RHF Final Energy:  -323.04641505597942

   => Energetics <=

    Nuclear Repulsion Energy =            239.0788086602750866
    One-Electron Energy =                -915.4427149456380448
    Two-Electron Energy =                 353.3174912293835632
    Total Energy =                       -323.0464150559794234

Computation Completed

Properties will be evaluated at   0.000000,   0.000000,   0.000000 [a0]

Properties computed using the SCF density matrix

  Nuclear Dipole Moment: [e a0]
     X:     1.7961      Y:     7.6692      Z:     4.3923

  Electronic Dipole Moment: [e a0]
     X:    -1.3389      Y:    -5.3576      Z:    -2.9062

  Dipole Moment: [e a0]
     X:     0.4572      Y:     2.3116      Z:     1.4861     Total:     2.7858

  Dipole Moment: [D]
     X:     1.1621      Y:     5.8754      Z:     3.7773     Total:     7.0809

*** tstop() called on ds3 at Mon Apr 27 18:02:03 2020
Module time:
	user time   =      14.81 seconds =       0.25 minutes
	system time =       6.82 seconds =       0.11 minutes
	total time  =         21 seconds =       0.35 minutes
Total time:
	user time   =      14.81 seconds =       0.25 minutes
	system time =       6.82 seconds =       0.11 minutes
	total time  =         21 seconds =       0.35 minutes
                                     G D M A

                                 by Anthony Stone

                           version 2.2.06, 22 June 2011

               Distributed Multipoles from Gaussian wavefunctions

Starting at 18:2:3 on 27 Apr 2020

Using SCF density matrix from file ./SSI/SSI-007SER-100ASN-1-dimer.test.18680.fchk

                         Distributed Multipole Analysis

Standard DMA

Positions and radii in angstrom
Multipole moments in atomic units, ea_0^k for rank k

C          x = -0.041186  y =  2.151360  z =  2.398947 angstrom
           Maximum rank =  0   Radius =  0.650 angstrom
                   Q00  =  -0.061336

O          x =  0.228814  y =  1.812360  z =  1.053947 angstrom
           Maximum rank =  0   Radius =  0.650 angstrom
                   Q00  =  -0.586305

H          x =  0.487814  y =  2.623360  z =  0.592947 angstrom
           Maximum rank =  0   Radius =  0.325 angstrom
                   Q00  =   0.400763

H          x = -0.624186  y =  1.354360  z =  2.861947 angstrom
           Maximum rank =  0   Radius =  0.325 angstrom
                   Q00  =   0.112562

H          x = -0.625186  y =  3.072360  z =  2.438947 angstrom
           Maximum rank =  0   Radius =  0.325 angstrom
                   Q00  =   0.089150

H          x =  0.901144  y =  2.285770  z =  2.950257 angstrom
           Maximum rank =  0   Radius =  0.325 angstrom
                   Q00  =   0.080341

C          x =  0.597814  y = -0.105640  z = -1.759053 angstrom
           Maximum rank =  0   Radius =  0.650 angstrom
                   Q00  =  -0.265332

C          x = -0.111186  y = -1.148640  z = -0.932053 angstrom
           Maximum rank =  0   Radius =  0.650 angstrom
                   Q00  =   0.841717

O          x = -0.553186  y = -2.167640  z = -1.454053 angstrom
           Maximum rank =  0   Radius =  0.650 angstrom
                   Q00  =  -0.819354

N          x = -0.149186  y = -0.951640  z =  0.369947 angstrom
           Maximum rank =  0   Radius =  0.650 angstrom
                   Q00  =  -0.555510

H          x = -0.731186  y = -1.562640  z =  0.931947 angstrom
           Maximum rank =  0   Radius =  0.325 angstrom
                   Q00  =   0.206330

H          x =  0.189814  y = -0.069640  z =  0.748947 angstrom
           Maximum rank =  0   Radius =  0.325 angstrom
                   Q00  =   0.231441

H          x =  1.665814  y = -0.156640  z = -1.546053 angstrom
           Maximum rank =  0   Radius =  0.325 angstrom
                   Q00  =   0.114757

H          x =  0.230814  y =  0.874360  z = -1.454053 angstrom
           Maximum rank =  0   Radius =  0.325 angstrom
                   Q00  =   0.090082

H          x =  0.422214  y = -0.241660  z = -2.836394 angstrom
           Maximum rank =  0   Radius =  0.325 angstrom
                   Q00  =   0.120695

Total multipoles referred to origin at
           x =   0.000000,  y =    0.000000,  z =    0.000000 angstrom
                   Q00  =  -0.000000

Finished at 18:2:3 on 27 Apr 2020

  DMA results are available in the Python driver through the
	  variable('DMA DISTRIBUTED MULTIPOLES')
  and
	  variable('DMA TOTAL MULTIPOLES')
  commands.

    Psi4 stopped on: Monday, 27 April 2020 06:02PM
    Psi4 wall time for execution: 0:00:21.30

*** Psi4 exiting successfully. Buy a developer a beer!
