                               Psi4 1.3.2 release

  ==> Input File <==

--------------------------------------------------------------------------
import numpy as np
set {scf_type pk
basis cc-pvdz
d_convergence 10
gdma_switch   0
gdma_limit    0
gdma_origin   [ 0.0,  0.0,  0.0 ]
}
molecule test {
    units Angstrom
    1 1
    --
    1 1
    C                3.115474888491893     2.406928580584020     2.158749578306391
    C               -0.823525111508107     1.730928580584020     0.548749578306390
    C                0.101474888491893     2.499928580584020    -0.164250421693610
    C               -0.465525111508107     1.191928580584020     1.785749578306391
    C                1.380474888491893     2.723928580584019     0.363749578306390
    C                0.809474888491893     1.419928580584020     2.305749578306390
    C                1.740474888491893     2.181928580584020     1.599749578306391
    H               -1.807525111508107     1.548928580584020     0.138749578306391
    H               -0.171525111508107     2.922928580584020    -1.121250421693609
    H               -1.143525111508107     0.590928580584020     2.362749578306390
    H                2.092474888491893     3.318928580584020    -0.188250421693610
    H                1.064474888491893     1.019928580584019     3.273749578306390
    H                3.092474888491893     2.295928580584019     3.244749578306390
    H                3.399474888491893     3.433928580584019     1.935749578306391
    H                3.886254888491893     1.747596580584019     1.733095658306391
    C                0.273474888491893    -1.255071419415980    -1.495250421693610
    C                0.574474888491893    -0.172071419415980    -2.521250421693610
    C               -1.574525111508107    -2.801071419415980    -0.953250421693610
    N               -1.069525111508107    -1.815071419415980    -1.679250421693609
    N               -0.864525111508107    -3.342071419415980     0.020749578306390
    N               -2.785525111508107    -3.259071419415981    -1.205250421693610
    H                1.018474888491893    -2.045071419415980    -1.608250421693610
    H                0.357474888491893    -0.821071419415980    -0.495250421693609
    H               -0.149525111508107     0.635928580584020    -2.420250421693610
    H                0.498474888491893    -0.598071419415980    -3.521250421693610
    H               -1.633525111508107    -1.447071419415980    -2.432250421693610
    H                0.074474888491893    -3.003071419415980     0.222749578306390
    H               -1.196525111508107    -4.183071419415980     0.467749578306390
    H               -3.322525111508107    -2.879071419415980    -1.969250421693610
    H               -3.173525111508107    -4.029071419415980    -0.680250421693609
    H                1.586724888491893     0.225883580584020    -2.357003421693610

}
e, wfn = energy('scf', return_wfn=True)
gdma(wfn)
dmavals = variable('DMA DISTRIBUTED MULTIPOLES')
charges = np.array(dmavals)
print(charges)
np.save('SSI-051PHE-091ARG-1-dimer.npy', np.array(charges))--------------------------------------------------------------------------

*** tstart() called on ds3
*** at Mon Apr 27 23:08:18 2020

   => Loading Basis Set <=

    Name: CC-PVDZ
    Role: ORBITAL
    Keyword: BASIS
    atoms 1-7, 16-18  entry C          line   138 file /theoryfs2/ds/metcalf/miniconda2/envs/tf2gpu/share/psi4/basis/cc-pvdz.gbs
    atoms 8-15, 22-31 entry H          line    22 file /theoryfs2/ds/metcalf/miniconda2/envs/tf2gpu/share/psi4/basis/cc-pvdz.gbs
    atoms 19-21       entry N          line   168 file /theoryfs2/ds/metcalf/miniconda2/envs/tf2gpu/share/psi4/basis/cc-pvdz.gbs

         ---------------------------------------------------------
                                   SCF
               by Justin Turney, Rob Parrish, Andy Simmonett
                          and Daniel G. A. Smith
                              RHF Reference
                        1 Threads,    500 MiB Core
         ---------------------------------------------------------

  ==> Geometry <==

    Molecular point group: c1
    Full point group: C1

    Geometry (in Angstrom), charge = 1, multiplicity = 1:

       Center              X                  Y                   Z               Mass
    ------------   -----------------  -----------------  -----------------  -----------------
         C            3.115474888492     2.406928580584     2.158749578306    12.000000000000
         C           -0.823525111508     1.730928580584     0.548749578306    12.000000000000
         C            0.101474888492     2.499928580584    -0.164250421694    12.000000000000
         C           -0.465525111508     1.191928580584     1.785749578306    12.000000000000
         C            1.380474888492     2.723928580584     0.363749578306    12.000000000000
         C            0.809474888492     1.419928580584     2.305749578306    12.000000000000
         C            1.740474888492     2.181928580584     1.599749578306    12.000000000000
         H           -1.807525111508     1.548928580584     0.138749578306     1.007825032230
         H           -0.171525111508     2.922928580584    -1.121250421694     1.007825032230
         H           -1.143525111508     0.590928580584     2.362749578306     1.007825032230
         H            2.092474888492     3.318928580584    -0.188250421694     1.007825032230
         H            1.064474888492     1.019928580584     3.273749578306     1.007825032230
         H            3.092474888492     2.295928580584     3.244749578306     1.007825032230
         H            3.399474888492     3.433928580584     1.935749578306     1.007825032230
         H            3.886254888492     1.747596580584     1.733095658306     1.007825032230
         C            0.273474888492    -1.255071419416    -1.495250421694    12.000000000000
         C            0.574474888492    -0.172071419416    -2.521250421694    12.000000000000
         C           -1.574525111508    -2.801071419416    -0.953250421694    12.000000000000
         N           -1.069525111508    -1.815071419416    -1.679250421694    14.003074004430
         N           -0.864525111508    -3.342071419416     0.020749578306    14.003074004430
         N           -2.785525111508    -3.259071419416    -1.205250421694    14.003074004430
         H            1.018474888492    -2.045071419416    -1.608250421694     1.007825032230
         H            0.357474888492    -0.821071419416    -0.495250421694     1.007825032230
         H           -0.149525111508     0.635928580584    -2.420250421694     1.007825032230
         H            0.498474888492    -0.598071419416    -3.521250421694     1.007825032230
         H           -1.633525111508    -1.447071419416    -2.432250421694     1.007825032230
         H            0.074474888492    -3.003071419416     0.222749578306     1.007825032230
         H           -1.196525111508    -4.183071419416     0.467749578306     1.007825032230
         H           -3.322525111508    -2.879071419416    -1.969250421694     1.007825032230
         H           -3.173525111508    -4.029071419416    -0.680250421694     1.007825032230
         H            1.586724888492     0.225883580584    -2.357003421694     1.007825032230

  Running in c1 symmetry.

  Rotational constants: A =      0.04225  B =      0.01073  C =      0.01014 [cm^-1]
  Rotational constants: A =   1266.53709  B =    321.64297  C =    303.91339 [MHz]
  Nuclear repulsion =  765.941239510181731

  Charge       = 1
  Multiplicity = 1
  Electrons    = 98
  Nalpha       = 49
  Nbeta        = 49

  ==> Algorithm <==

  SCF Algorithm Type is PK.
  DIIS enabled.
  MOM disabled.
  Fractional occupation disabled.
  Guess Type is SAD.
  Energy threshold   = 1.00e-06
  Density threshold  = 1.00e-10
  Integral threshold = 0.00e+00

  ==> Primary Basis <==

  Basis Set: CC-PVDZ
    Blend: CC-PVDZ
    Number of shells: 132
    Number of basis function: 272
    Number of Cartesian functions: 285
    Spherical Harmonics?: true
    Max angular momentum: 2

  ==> Pre-Iterations <==

   -------------------------------------------------------
    Irrep   Nso     Nmo     Nalpha   Nbeta   Ndocc  Nsocc
   -------------------------------------------------------
     A        272     272       0       0       0       0
   -------------------------------------------------------
    Total     272     272      49      49      49       0
   -------------------------------------------------------

  ==> Integral Setup <==

  Using integral reordering PK algorithm.
  Sizing the integral batches needed.
  Building batch lookup table.
   Calculation information:
      Number of atoms:                  31
      Number of AO shells:             132
      Number of primitives:            376
      Number of atomic orbitals:       285
      Number of basis functions:       272

      Integral cutoff                 1.00e-12
      Number of threads:                 1

	Batch   1 pq = [       0,    9405] index = [             0,44231715] size =     44231715
	Batch   2 pq = [    9405,   13301] index = [      44231715,88464951] size =     44233236
	Batch   3 pq = [   13301,   16290] index = [      88464951,132690195] size =     44225244
	Batch   4 pq = [   16290,   18810] index = [     132690195,176917455] size =     44227260
	Batch   5 pq = [   18810,   21030] index = [     176917455,221140965] size =     44223510
	Batch   6 pq = [   21030,   23037] index = [     221140965,265363203] size =     44222238
	Batch   7 pq = [   23037,   24883] index = [     265363203,309594286] size =     44231083
	Batch   8 pq = [   24883,   26601] index = [     309594286,353819901] size =     44225615
	Batch   9 pq = [   26601,   28214] index = [     353819901,398029005] size =     44209104
	Batch  10 pq = [   28214,   29740] index = [     398029005,442248670] size =     44219665
	Batch  11 pq = [   29740,   31191] index = [     442248670,486454836] size =     44206166
	Batch  12 pq = [   31191,   32578] index = [     486454836,530679331] size =     44224495
	Batch  13 pq = [   32578,   33908] index = [     530679331,574893186] size =     44213855
	Batch  14 pq = [   33908,   35188] index = [     574893186,619115266] size =     44222080
	Batch  15 pq = [   35188,   36423] index = [     619115266,663335676] size =     44220410
	Batch  16 pq = [   36423,   37128] index = [     663335676,689262756] size =     25927080
  Task number: 63
  Buffer size: 11059200
  Buffer per thread: 2
  We computed 36496524 shell quartets total.
  Whereas there are 38531031 unique shell quartets.

  ==> DiskJK: Disk-Based J/K Matrices <==

    J tasked:                  Yes
    K tasked:                  Yes
    wK tasked:                  No
    Memory [MiB]:              375
    Schwarz Cutoff:          1E-12

    OpenMP threads:              1

  Minimum eigenvalue in the overlap matrix is 3.1965415174E-04.
  Using Symmetric Orthogonalization.

  SCF Guess: Superposition of Atomic Densities via on-the-fly atomic UHF.

  ==> Iterations <==

                        Total Energy        Delta E     RMS |[F,P]|

   @RHF iter SAD:  -551.61167578014215   -5.51612e+02   0.00000e+00
   @RHF iter   1:  -552.09239846366972   -4.80723e-01   2.49044e-03 DIIS
   @RHF iter   2:  -552.34939669078506   -2.56998e-01   9.80351e-04 DIIS
   @RHF iter   3:  -552.38577639554035   -3.63797e-02   2.43150e-04 DIIS
   @RHF iter   4:  -552.38927909047311   -3.50269e-03   5.39639e-05 DIIS
   @RHF iter   5:  -552.38942262412615   -1.43534e-04   1.83137e-05 DIIS
   @RHF iter   6:  -552.38944084002139   -1.82159e-05   6.02474e-06 DIIS
   @RHF iter   7:  -552.38944284165461   -2.00163e-06   1.65916e-06 DIIS
   @RHF iter   8:  -552.38944307250188   -2.30847e-07   4.22319e-07 DIIS
   @RHF iter   9:  -552.38944308722091   -1.47190e-08   1.18493e-07 DIIS
   @RHF iter  10:  -552.38944308890655   -1.68563e-09   5.71105e-08 DIIS
   @RHF iter  11:  -552.38944308939608   -4.89536e-10   2.57890e-08 DIIS
   @RHF iter  12:  -552.38944308954615   -1.50067e-10   1.12515e-08 DIIS
   @RHF iter  13:  -552.38944308957502   -2.88765e-11   4.84656e-09 DIIS
   @RHF iter  14:  -552.38944308958366   -8.64020e-12   1.31882e-09 DIIS
   @RHF iter  15:  -552.38944308957923    4.43379e-12   5.11158e-10 DIIS
   @RHF iter  16:  -552.38944308958412   -4.88853e-12   2.09822e-10 DIIS
   @RHF iter  17:  -552.38944308957684    7.27596e-12   7.60801e-11 DIIS
  Energy and wave function converged.

  ==> Post-Iterations <==

    Orbital Energies [Eh]
    ---------------------

    Doubly Occupied:

       1A    -15.782190     2A    -15.782000     3A    -15.774036
       4A    -11.581883     5A    -11.423165     6A    -11.360705
       7A    -11.330685     8A    -11.329715     9A    -11.329662
      10A    -11.327874    11A    -11.321533    12A    -11.320411
      13A    -11.306334    14A     -1.537672    15A     -1.395268
      16A     -1.383790    17A     -1.241792    18A     -1.178581
      19A     -1.132583    20A     -1.101986    21A     -1.046425
      22A     -1.015433    23A     -1.007854    24A     -0.965852
      25A     -0.926242    26A     -0.915754    27A     -0.885598
      28A     -0.849876    29A     -0.848523    30A     -0.822509
      31A     -0.784105    32A     -0.781533    33A     -0.757445
      34A     -0.722697    35A     -0.718746    36A     -0.676730
      37A     -0.673915    38A     -0.658049    39A     -0.653833
      40A     -0.652853    41A     -0.649765    42A     -0.616721
      43A     -0.611564    44A     -0.578189    45A     -0.574575
      46A     -0.571512    47A     -0.568919    48A     -0.423262
      49A     -0.413044

    Virtual:

      50A     -0.002554    51A      0.029657    52A      0.033555
      53A      0.041509    54A      0.046563    55A      0.047704
      56A      0.065782    57A      0.077054    58A      0.094951
      59A      0.117340    60A      0.121803    61A      0.130340
      62A      0.142087    63A      0.146358    64A      0.151281
      65A      0.164035    66A      0.171113    67A      0.178760
      68A      0.196247    69A      0.205104    70A      0.216045
      71A      0.219987    72A      0.250379    73A      0.275101
      74A      0.293472    75A      0.296179    76A      0.346462
      77A      0.352348    78A      0.361939    79A      0.371287
      80A      0.392836    81A      0.405612    82A      0.445548
      83A      0.455563    84A      0.468945    85A      0.481747
      86A      0.501157    87A      0.515382    88A      0.536111
      89A      0.539218    90A      0.542682    91A      0.553346
      92A      0.565599    93A      0.572569    94A      0.584953
      95A      0.592498    96A      0.602817    97A      0.616696
      98A      0.633127    99A      0.652833   100A      0.655671
     101A      0.667963   102A      0.673379   103A      0.686913
     104A      0.695553   105A      0.701163   106A      0.706979
     107A      0.726607   108A      0.736173   109A      0.745476
     110A      0.750519   111A      0.761461   112A      0.766007
     113A      0.776160   114A      0.787791   115A      0.789642
     116A      0.799542   117A      0.802624   118A      0.808552
     119A      0.809330   120A      0.813916   121A      0.821187
     122A      0.844932   123A      0.846875   124A      0.848854
     125A      0.861313   126A      0.870174   127A      0.881744
     128A      0.892099   129A      0.899308   130A      0.922292
     131A      0.935812   132A      0.951366   133A      0.970634
     134A      0.982715   135A      0.987584   136A      1.026981
     137A      1.052183   138A      1.055338   139A      1.062983
     140A      1.074276   141A      1.094864   142A      1.113442
     143A      1.136800   144A      1.137255   145A      1.141337
     146A      1.150678   147A      1.164357   148A      1.171031
     149A      1.183341   150A      1.205827   151A      1.211776
     152A      1.216529   153A      1.224976   154A      1.232899
     155A      1.235533   156A      1.262260   157A      1.326511
     158A      1.351597   159A      1.356461   160A      1.415872
     161A      1.428090   162A      1.436938   163A      1.472322
     164A      1.499616   165A      1.515505   166A      1.525409
     167A      1.540549   168A      1.543410   169A      1.560020
     170A      1.567098   171A      1.597016   172A      1.608786
     173A      1.619032   174A      1.649648   175A      1.659217
     176A      1.667794   177A      1.689629   178A      1.705571
     179A      1.712221   180A      1.722824   181A      1.731691
     182A      1.735957   183A      1.751301   184A      1.762331
     185A      1.781733   186A      1.792938   187A      1.797222
     188A      1.802854   189A      1.810819   190A      1.817399
     191A      1.824683   192A      1.833329   193A      1.836163
     194A      1.843508   195A      1.851536   196A      1.853415
     197A      1.866051   198A      1.869728   199A      1.882792
     200A      1.896690   201A      1.903857   202A      1.924363
     203A      1.948839   204A      1.960831   205A      1.962512
     206A      1.978653   207A      1.986117   208A      2.014184
     209A      2.021022   210A      2.039158   211A      2.055262
     212A      2.059378   213A      2.061866   214A      2.070567
     215A      2.080503   216A      2.089034   217A      2.099291
     218A      2.128261   219A      2.162846   220A      2.183877
     221A      2.194945   222A      2.206401   223A      2.215635
     224A      2.234992   225A      2.240328   226A      2.246520
     227A      2.253779   228A      2.267461   229A      2.307442
     230A      2.338690   231A      2.362849   232A      2.364626
     233A      2.378940   234A      2.382367   235A      2.390294
     236A      2.412700   237A      2.415006   238A      2.452070
     239A      2.466816   240A      2.492839   241A      2.533829
     242A      2.551302   243A      2.633149   244A      2.645500
     245A      2.653095   246A      2.661712   247A      2.669491
     248A      2.679904   249A      2.690825   250A      2.700119
     251A      2.720348   252A      2.727959   253A      2.768582
     254A      2.777320   255A      2.787824   256A      2.824362
     257A      2.854683   258A      2.859023   259A      2.884854
     260A      2.894438   261A      2.915077   262A      2.924126
     263A      2.940534   264A      3.062526   265A      3.063739
     266A      3.088707   267A      3.110264   268A      3.151663
     269A      3.200389   270A      3.589013   271A      3.658702
     272A      3.869406

    Final Occupation by Irrep:
              A
    DOCC [    49 ]

  @RHF Final Energy:  -552.38944308957684

   => Energetics <=

    Nuclear Repulsion Energy =            765.9412395101817310
    One-Electron Energy =               -2254.0345921309376536
    Two-Electron Energy =                 935.7039095311790788
    Total Energy =                       -552.3894430895768437

Computation Completed

Properties will be evaluated at   0.000000,   0.000000,   0.000000 [a0]

Properties computed using the SCF density matrix

  Nuclear Dipole Moment: [e a0]
     X:     4.2066      Y:    -1.1611      Z:    -3.1921

  Electronic Dipole Moment: [e a0]
     X:    -6.3330      Y:    -3.4602      Z:     1.4205

  Dipole Moment: [e a0]
     X:    -2.1263      Y:    -4.6213      Z:    -1.7716     Total:     5.3867

  Dipole Moment: [D]
     X:    -5.4046      Y:   -11.7461      Z:    -4.5029     Total:    13.6915

*** tstop() called on ds3 at Mon Apr 27 23:14:59 2020
Module time:
	user time   =     295.46 seconds =       4.92 minutes
	system time =     120.77 seconds =       2.01 minutes
	total time  =        401 seconds =       6.68 minutes
Total time:
	user time   =     295.46 seconds =       4.92 minutes
	system time =     120.77 seconds =       2.01 minutes
	total time  =        401 seconds =       6.68 minutes
                                     G D M A

                                 by Anthony Stone

                           version 2.2.06, 22 June 2011

               Distributed Multipoles from Gaussian wavefunctions

Starting at 23:14:59 on 27 Apr 2020

Using SCF density matrix from file ./SSI/SSI-051PHE-091ARG-1-dimer.test.1244.fchk

                         Distributed Multipole Analysis

Standard DMA

Positions and radii in angstrom
Multipole moments in atomic units, ea_0^k for rank k

C          x =  3.115475  y =  2.406929  z =  2.158750 angstrom
           Maximum rank =  0   Radius =  0.650 angstrom
                   Q00  =  -0.195237

C          x = -0.823525  y =  1.730929  z =  0.548750 angstrom
           Maximum rank =  0   Radius =  0.650 angstrom
                   Q00  =  -0.105169

C          x =  0.101475  y =  2.499929  z = -0.164250 angstrom
           Maximum rank =  0   Radius =  0.650 angstrom
                   Q00  =  -0.086968

C          x = -0.465525  y =  1.191929  z =  1.785750 angstrom
           Maximum rank =  0   Radius =  0.650 angstrom
                   Q00  =  -0.094342

C          x =  1.380475  y =  2.723929  z =  0.363750 angstrom
           Maximum rank =  0   Radius =  0.650 angstrom
                   Q00  =  -0.063851

C          x =  0.809475  y =  1.419929  z =  2.305750 angstrom
           Maximum rank =  0   Radius =  0.650 angstrom
                   Q00  =  -0.009747

C          x =  1.740475  y =  2.181929  z =  1.599750 angstrom
           Maximum rank =  0   Radius =  0.650 angstrom
                   Q00  =  -0.097819

H          x = -1.807525  y =  1.548929  z =  0.138750 angstrom
           Maximum rank =  0   Radius =  0.325 angstrom
                   Q00  =   0.052880

H          x = -0.171525  y =  2.922929  z = -1.121250 angstrom
           Maximum rank =  0   Radius =  0.325 angstrom
                   Q00  =   0.071824

H          x = -1.143525  y =  0.590929  z =  2.362750 angstrom
           Maximum rank =  0   Radius =  0.325 angstrom
                   Q00  =   0.063916

H          x =  2.092475  y =  3.318929  z = -0.188250 angstrom
           Maximum rank =  0   Radius =  0.325 angstrom
                   Q00  =   0.072173

H          x =  1.064475  y =  1.019929  z =  3.273750 angstrom
           Maximum rank =  0   Radius =  0.325 angstrom
                   Q00  =   0.069577

H          x =  3.092475  y =  2.295929  z =  3.244750 angstrom
           Maximum rank =  0   Radius =  0.325 angstrom
                   Q00  =   0.107681

H          x =  3.399475  y =  3.433929  z =  1.935750 angstrom
           Maximum rank =  0   Radius =  0.325 angstrom
                   Q00  =   0.110407

H          x =  3.886255  y =  1.747597  z =  1.733096 angstrom
           Maximum rank =  0   Radius =  0.325 angstrom
                   Q00  =   0.106248

C          x =  0.273475  y = -1.255071  z = -1.495250 angstrom
           Maximum rank =  0   Radius =  0.650 angstrom
                   Q00  =  -0.044116

C          x =  0.574475  y = -0.172071  z = -2.521250 angstrom
           Maximum rank =  0   Radius =  0.650 angstrom
                   Q00  =  -0.190663

C          x = -1.574525  y = -2.801071  z = -0.953250 angstrom
           Maximum rank =  0   Radius =  0.650 angstrom
                   Q00  =   1.091039

N          x = -1.069525  y = -1.815071  z = -1.679250 angstrom
           Maximum rank =  0   Radius =  0.650 angstrom
                   Q00  =  -0.494332

N          x = -0.864525  y = -3.342071  z =  0.020750 angstrom
           Maximum rank =  0   Radius =  0.650 angstrom
                   Q00  =  -0.586603

N          x = -2.785525  y = -3.259071  z = -1.205250 angstrom
           Maximum rank =  0   Radius =  0.650 angstrom
                   Q00  =  -0.600459

H          x =  1.018475  y = -2.045071  z = -1.608250 angstrom
           Maximum rank =  0   Radius =  0.325 angstrom
                   Q00  =   0.083512

H          x =  0.357475  y = -0.821071  z = -0.495250 angstrom
           Maximum rank =  0   Radius =  0.325 angstrom
                   Q00  =   0.109253

H          x = -0.149525  y =  0.635929  z = -2.420250 angstrom
           Maximum rank =  0   Radius =  0.325 angstrom
                   Q00  =   0.098987

H          x =  0.498475  y = -0.598071  z = -3.521250 angstrom
           Maximum rank =  0   Radius =  0.325 angstrom
                   Q00  =   0.090497

H          x = -1.633525  y = -1.447071  z = -2.432250 angstrom
           Maximum rank =  0   Radius =  0.325 angstrom
                   Q00  =   0.227882

H          x =  0.074475  y = -3.003071  z =  0.222750 angstrom
           Maximum rank =  0   Radius =  0.325 angstrom
                   Q00  =   0.281313

H          x = -1.196525  y = -4.183071  z =  0.467750 angstrom
           Maximum rank =  0   Radius =  0.325 angstrom
                   Q00  =   0.261865

H          x = -3.322525  y = -2.879071  z = -1.969250 angstrom
           Maximum rank =  0   Radius =  0.325 angstrom
                   Q00  =   0.263024

H          x = -3.173525  y = -4.029071  z = -0.680250 angstrom
           Maximum rank =  0   Radius =  0.325 angstrom
                   Q00  =   0.265339

H          x =  1.586725  y =  0.225884  z = -2.357003 angstrom
           Maximum rank =  0   Radius =  0.325 angstrom
                   Q00  =   0.141890

Total multipoles referred to origin at
           x =   0.000000,  y =    0.000000,  z =    0.000000 angstrom
                   Q00  =   1.000000

Finished at 23:14:59 on 27 Apr 2020

  DMA results are available in the Python driver through the
	  variable('DMA DISTRIBUTED MULTIPOLES')
  and
	  variable('DMA TOTAL MULTIPOLES')
  commands.

    Psi4 stopped on: Monday, 27 April 2020 11:14PM
    Psi4 wall time for execution: 0:06:40.32

*** Psi4 exiting successfully. Buy a developer a beer!
