                               Psi4 1.3.2 release

  ==> Input File <==

--------------------------------------------------------------------------
import numpy as np
set {scf_type pk
basis cc-pvdz
d_convergence 10
gdma_switch   0
gdma_limit    0
gdma_origin   [ 0.0,  0.0,  0.0 ]
}
molecule test {
    units Angstrom
    -1 1
    --
    -1 1
    C                1.762378877992638     0.073219226990933    -2.301451567986391
    C                0.966378877992638     0.506219226990933    -1.094451567986391
    O                0.041378877992638     1.331219226990933    -1.229451567986391
    O                1.304378877992638     0.026219226990933     0.016548432013609
    H                1.747378877992638    -1.014780773009067    -2.387451567986391
    H                2.803378877992638     0.357219226990933    -2.130451567986391
    H                1.450908877992638     0.540423226990933    -3.247341567986391
    C               -1.536621122007362    -0.083780773009067     1.602548432013609
    C               -2.155621122007362    -1.046780773009067     0.603548432013609
    C               -0.429621122007362    -0.776780773009067     2.425548432013609
    H               -1.112621122007362     0.775219226990933     1.084548432013609
    H               -2.312621122007362     0.278219226990933     2.279548432013609
    H               -2.692621122007362    -1.824780773009067     1.147548432013609
    H               -1.365621122007362    -1.509780773009067     0.010548432013609
    H                0.429378877992638    -0.953780773009067     1.775548432013609
    H               -0.105621122007362    -0.091780773009067     3.213548432013609
    H               -2.867761122007363    -0.553591773009067    -0.074401567986391
    H               -0.744861122007362    -1.734994773009067     2.864238432013610

}
e, wfn = energy('scf', return_wfn=True)
gdma(wfn)
dmavals = variable('DMA DISTRIBUTED MULTIPOLES')
charges = np.array(dmavals)
print(charges)
np.save('SSI-061ASP-065LYS-1-dimer.npy', np.array(charges))--------------------------------------------------------------------------

*** tstart() called on ds3
*** at Tue Apr 28 13:21:48 2020

   => Loading Basis Set <=

    Name: CC-PVDZ
    Role: ORBITAL
    Keyword: BASIS
    atoms 1-2, 8-10  entry C          line   138 file /theoryfs2/ds/metcalf/miniconda2/envs/tf2gpu/share/psi4/basis/cc-pvdz.gbs
    atoms 3-4        entry O          line   198 file /theoryfs2/ds/metcalf/miniconda2/envs/tf2gpu/share/psi4/basis/cc-pvdz.gbs
    atoms 5-7, 11-18 entry H          line    22 file /theoryfs2/ds/metcalf/miniconda2/envs/tf2gpu/share/psi4/basis/cc-pvdz.gbs

         ---------------------------------------------------------
                                   SCF
               by Justin Turney, Rob Parrish, Andy Simmonett
                          and Daniel G. A. Smith
                              RHF Reference
                        1 Threads,    500 MiB Core
         ---------------------------------------------------------

  ==> Geometry <==

    Molecular point group: c1
    Full point group: C1

    Geometry (in Angstrom), charge = -1, multiplicity = 1:

       Center              X                  Y                   Z               Mass
    ------------   -----------------  -----------------  -----------------  -----------------
         C            1.762378877993     0.073219226991    -2.301451567986    12.000000000000
         C            0.966378877993     0.506219226991    -1.094451567986    12.000000000000
         O            0.041378877993     1.331219226991    -1.229451567986    15.994914619570
         O            1.304378877993     0.026219226991     0.016548432014    15.994914619570
         H            1.747378877993    -1.014780773009    -2.387451567986     1.007825032230
         H            2.803378877993     0.357219226991    -2.130451567986     1.007825032230
         H            1.450908877993     0.540423226991    -3.247341567986     1.007825032230
         C           -1.536621122007    -0.083780773009     1.602548432014    12.000000000000
         C           -2.155621122007    -1.046780773009     0.603548432014    12.000000000000
         C           -0.429621122007    -0.776780773009     2.425548432014    12.000000000000
         H           -1.112621122007     0.775219226991     1.084548432014     1.007825032230
         H           -2.312621122007     0.278219226991     2.279548432014     1.007825032230
         H           -2.692621122007    -1.824780773009     1.147548432014     1.007825032230
         H           -1.365621122007    -1.509780773009     0.010548432014     1.007825032230
         H            0.429378877993    -0.953780773009     1.775548432014     1.007825032230
         H           -0.105621122007    -0.091780773009     3.213548432014     1.007825032230
         H           -2.867761122007    -0.553591773009    -0.074401567986     1.007825032230
         H           -0.744861122007    -1.734994773009     2.864238432014     1.007825032230

  Running in c1 symmetry.

  Rotational constants: A =      0.13899  B =      0.03831  C =      0.03486 [cm^-1]
  Rotational constants: A =   4166.79993  B =   1148.36153  C =   1044.92884 [MHz]
  Nuclear repulsion =  301.975599702640920

  Charge       = -1
  Multiplicity = 1
  Electrons    = 58
  Nalpha       = 29
  Nbeta        = 29

  ==> Algorithm <==

  SCF Algorithm Type is PK.
  DIIS enabled.
  MOM disabled.
  Fractional occupation disabled.
  Guess Type is SAD.
  Energy threshold   = 1.00e-06
  Density threshold  = 1.00e-10
  Integral threshold = 0.00e+00

  ==> Primary Basis <==

  Basis Set: CC-PVDZ
    Blend: CC-PVDZ
    Number of shells: 75
    Number of basis function: 153
    Number of Cartesian functions: 160
    Spherical Harmonics?: true
    Max angular momentum: 2

  ==> Pre-Iterations <==

   -------------------------------------------------------
    Irrep   Nso     Nmo     Nalpha   Nbeta   Ndocc  Nsocc
   -------------------------------------------------------
     A        153     153       0       0       0       0
   -------------------------------------------------------
    Total     153     153      29      29      29       0
   -------------------------------------------------------

  ==> Integral Setup <==

  Using integral reordering PK algorithm.
  Sizing the integral batches needed.
  Building batch lookup table.
   Calculation information:
      Number of atoms:                  18
      Number of AO shells:              75
      Number of primitives:            209
      Number of atomic orbitals:       160
      Number of basis functions:       153

      Integral cutoff                 1.00e-12
      Number of threads:                 1

	Batch   1 pq = [       0,    9405] index = [             0,44231715] size =     44231715
	Batch   2 pq = [    9405,   11781] index = [      44231715,69401871] size =     25170156
  Task number: 7
  Buffer size: 11059200
  Buffer per thread: 2
  We computed 3704885 shell quartets total.
  Whereas there are 4062675 unique shell quartets.

  ==> DiskJK: Disk-Based J/K Matrices <==

    J tasked:                  Yes
    K tasked:                  Yes
    wK tasked:                  No
    Memory [MiB]:              375
    Schwarz Cutoff:          1E-12

    OpenMP threads:              1

  Minimum eigenvalue in the overlap matrix is 4.9759743849E-03.
  Using Symmetric Orthogonalization.

  SCF Guess: Superposition of Atomic Densities via on-the-fly atomic UHF.

  ==> Iterations <==

                        Total Energy        Delta E     RMS |[F,P]|

   @RHF iter SAD:  -343.89222902261434   -3.43892e+02   0.00000e+00
   @RHF iter   1:  -345.21767142196239   -1.32544e+00   4.96889e-03 DIIS
   @RHF iter   2:  -345.44780965628132   -2.30138e-01   2.76402e-03 DIIS
   @RHF iter   3:  -345.51597466084507   -6.81650e-02   4.25843e-04 DIIS
   @RHF iter   4:  -345.51893958433686   -2.96492e-03   1.61045e-04 DIIS
   @RHF iter   5:  -345.51935439947243   -4.14815e-04   2.44643e-05 DIIS
   @RHF iter   6:  -345.51936643075038   -1.20313e-05   6.31732e-06 DIIS
   @RHF iter   7:  -345.51936724133583   -8.10585e-07   1.71930e-06 DIIS
   @RHF iter   8:  -345.51936731357080   -7.22350e-08   5.25243e-07 DIIS
   @RHF iter   9:  -345.51936732503367   -1.14629e-08   2.34699e-07 DIIS
   @RHF iter  10:  -345.51936732709908   -2.06541e-09   9.40731e-08 DIIS
   @RHF iter  11:  -345.51936732738153   -2.82455e-10   4.19084e-08 DIIS
   @RHF iter  12:  -345.51936732742382   -4.22915e-11   6.91970e-09 DIIS
   @RHF iter  13:  -345.51936732742359    2.27374e-13   2.10909e-09 DIIS
   @RHF iter  14:  -345.51936732742530   -1.70530e-12   6.11934e-10 DIIS
   @RHF iter  15:  -345.51936732742445    8.52651e-13   1.68116e-10 DIIS
   @RHF iter  16:  -345.51936732742541   -9.66338e-13   6.12956e-11 DIIS
  Energy and wave function converged.

  ==> Post-Iterations <==

    Orbital Energies [Eh]
    ---------------------

    Doubly Occupied:

       1A    -20.269889     2A    -20.265367     3A    -11.123373
       4A    -11.073898     5A    -11.064472     6A    -11.060568
       7A    -11.056196     8A     -1.157523     9A     -1.044028
      10A     -0.900286    11A     -0.804470    12A     -0.773569
      13A     -0.646685    14A     -0.512611    15A     -0.470401
      16A     -0.447346    17A     -0.418629    18A     -0.413830
      19A     -0.413244    20A     -0.399913    21A     -0.379208
      22A     -0.348222    23A     -0.325709    24A     -0.316976
      25A     -0.312582    26A     -0.305684    27A     -0.190816
      28A     -0.180294    29A     -0.169529

    Virtual:

      30A      0.323849    31A      0.345704    32A      0.366102
      33A      0.372149    34A      0.384653    35A      0.391814
      36A      0.407241    37A      0.422185    38A      0.434698
      39A      0.466102    40A      0.476454    41A      0.493804
      42A      0.528227    43A      0.567683    44A      0.576717
      45A      0.688699    46A      0.704079    47A      0.727081
      48A      0.760576    49A      0.769434    50A      0.780455
      51A      0.809699    52A      0.822462    53A      0.881262
      54A      0.944430    55A      0.948557    56A      0.962703
      57A      0.980589    58A      1.000329    59A      1.022117
      60A      1.023278    61A      1.027248    62A      1.030228
      63A      1.042937    64A      1.046812    65A      1.052172
      66A      1.062507    67A      1.070388    68A      1.100494
      69A      1.118052    70A      1.129691    71A      1.140278
      72A      1.168999    73A      1.225636    74A      1.269660
      75A      1.281631    76A      1.340627    77A      1.353449
      78A      1.363220    79A      1.459830    80A      1.512428
      81A      1.535884    82A      1.555119    83A      1.579989
      84A      1.599439    85A      1.619161    86A      1.651145
      87A      1.680314    88A      1.694391    89A      1.718783
      90A      1.741663    91A      1.787515    92A      1.830896
      93A      1.839932    94A      1.846896    95A      1.866813
      96A      1.885347    97A      2.006703    98A      2.010470
      99A      2.036408   100A      2.041122   101A      2.070390
     102A      2.079970   103A      2.094275   104A      2.099230
     105A      2.108527   106A      2.118051   107A      2.127198
     108A      2.134530   109A      2.141251   110A      2.160813
     111A      2.170444   112A      2.220617   113A      2.229222
     114A      2.276075   115A      2.286363   116A      2.309585
     117A      2.321640   118A      2.428308   119A      2.436256
     120A      2.458444   121A      2.471086   122A      2.491503
     123A      2.510083   124A      2.611257   125A      2.638023
     126A      2.652105   127A      2.685727   128A      2.721873
     129A      2.728027   130A      2.763474   131A      2.774000
     132A      2.787565   133A      2.895600   134A      2.905800
     135A      2.927468   136A      2.952389   137A      2.959058
     138A      2.979222   139A      2.991172   140A      3.071093
     141A      3.123126   142A      3.135685   143A      3.201013
     144A      3.242189   145A      3.271689   146A      3.296486
     147A      3.358124   148A      3.627172   149A      3.795169
     150A      3.826668   151A      4.065751   152A      4.092530
     153A      4.207765

    Final Occupation by Irrep:
              A
    DOCC [    29 ]

  @RHF Final Energy:  -345.51936732742541

   => Energetics <=

    Nuclear Repulsion Energy =            301.9755997026409204
    One-Electron Energy =               -1081.2992969543952313
    Two-Electron Energy =                 433.8043299243288971
    Total Energy =                       -345.5193673274254138

Computation Completed

Properties will be evaluated at   0.000000,   0.000000,   0.000000 [a0]

Properties computed using the SCF density matrix

  Nuclear Dipole Moment: [e a0]
     X:    -4.4659      Y:    -5.3674      Z:     4.2464

  Electronic Dipole Moment: [e a0]
     X:     3.8899      Y:     4.3713      Z:    -3.9101

  Dipole Moment: [e a0]
     X:    -0.5760      Y:    -0.9961      Z:     0.3364     Total:     1.1989

  Dipole Moment: [D]
     X:    -1.4641      Y:    -2.5319      Z:     0.8550     Total:     3.0472

*** tstop() called on ds3 at Tue Apr 28 13:22:27 2020
Module time:
	user time   =      26.24 seconds =       0.44 minutes
	system time =      11.42 seconds =       0.19 minutes
	total time  =         39 seconds =       0.65 minutes
Total time:
	user time   =      26.24 seconds =       0.44 minutes
	system time =      11.42 seconds =       0.19 minutes
	total time  =         39 seconds =       0.65 minutes
                                     G D M A

                                 by Anthony Stone

                           version 2.2.06, 22 June 2011

               Distributed Multipoles from Gaussian wavefunctions

Starting at 13:22:27 on 28 Apr 2020

Using SCF density matrix from file ./SSI/SSI-061ASP-065LYS-1-dimer.test.15945.fchk

                         Distributed Multipole Analysis

Standard DMA

Positions and radii in angstrom
Multipole moments in atomic units, ea_0^k for rank k

C          x =  1.762379  y =  0.073219  z = -2.301452 angstrom
           Maximum rank =  0   Radius =  0.650 angstrom
                   Q00  =  -0.254962

C          x =  0.966379  y =  0.506219  z = -1.094452 angstrom
           Maximum rank =  0   Radius =  0.650 angstrom
                   Q00  =   0.916142

O          x =  0.041379  y =  1.331219  z = -1.229452 angstrom
           Maximum rank =  0   Radius =  0.650 angstrom
                   Q00  =  -0.897030

O          x =  1.304379  y =  0.026219  z =  0.016548 angstrom
           Maximum rank =  0   Radius =  0.650 angstrom
                   Q00  =  -0.913886

H          x =  1.747379  y = -1.014781  z = -2.387452 angstrom
           Maximum rank =  0   Radius =  0.325 angstrom
                   Q00  =   0.067864

H          x =  2.803379  y =  0.357219  z = -2.130452 angstrom
           Maximum rank =  0   Radius =  0.325 angstrom
                   Q00  =   0.069976

H          x =  1.450909  y =  0.540423  z = -3.247342 angstrom
           Maximum rank =  0   Radius =  0.325 angstrom
                   Q00  =   0.048277

C          x = -1.536621  y = -0.083781  z =  1.602548 angstrom
           Maximum rank =  0   Radius =  0.650 angstrom
                   Q00  =  -0.020695

C          x = -2.155621  y = -1.046781  z =  0.603548 angstrom
           Maximum rank =  0   Radius =  0.650 angstrom
                   Q00  =  -0.227485

C          x = -0.429621  y = -0.776781  z =  2.425548 angstrom
           Maximum rank =  0   Radius =  0.650 angstrom
                   Q00  =  -0.243375

H          x = -1.112621  y =  0.775219  z =  1.084548 angstrom
           Maximum rank =  0   Radius =  0.325 angstrom
                   Q00  =   0.101156

H          x = -2.312621  y =  0.278219  z =  2.279548 angstrom
           Maximum rank =  0   Radius =  0.325 angstrom
                   Q00  =  -0.024881

H          x = -2.692621  y = -1.824781  z =  1.147548 angstrom
           Maximum rank =  0   Radius =  0.325 angstrom
                   Q00  =   0.018482

H          x = -1.365621  y = -1.509781  z =  0.010548 angstrom
           Maximum rank =  0   Radius =  0.325 angstrom
                   Q00  =   0.095169

H          x =  0.429379  y = -0.953781  z =  1.775548 angstrom
           Maximum rank =  0   Radius =  0.325 angstrom
                   Q00  =   0.136100

H          x = -0.105621  y = -0.091781  z =  3.213548 angstrom
           Maximum rank =  0   Radius =  0.325 angstrom
                   Q00  =   0.049459

H          x = -2.867761  y = -0.553592  z = -0.074402 angstrom
           Maximum rank =  0   Radius =  0.325 angstrom
                   Q00  =   0.066534

H          x = -0.744861  y = -1.734995  z =  2.864238 angstrom
           Maximum rank =  0   Radius =  0.325 angstrom
                   Q00  =   0.013156

Total multipoles referred to origin at
           x =   0.000000,  y =    0.000000,  z =    0.000000 angstrom
                   Q00  =  -1.000000

Finished at 13:22:28 on 28 Apr 2020

  DMA results are available in the Python driver through the
	  variable('DMA DISTRIBUTED MULTIPOLES')
  and
	  variable('DMA TOTAL MULTIPOLES')
  commands.

    Psi4 stopped on: Tuesday, 28 April 2020 01:22PM
    Psi4 wall time for execution: 0:00:39.80

*** Psi4 exiting successfully. Buy a developer a beer!
