                               Psi4 1.3.2 release

  ==> Input File <==

--------------------------------------------------------------------------
import numpy as np
set {scf_type pk
basis cc-pvdz
d_convergence 10
gdma_switch   0
gdma_limit    0
gdma_origin   [ 0.0,  0.0,  0.0 ]
}
molecule test {
    units Angstrom
    -1 1
    --
    -1 1
    C               -2.280556285604511    -0.518885291114290     0.883121343907918
    O               -1.669556285604512     0.464114708885710     1.703121343907918
    H               -0.741556285604512     0.465114708885710     1.396121343907918
    H               -1.563556285604512    -1.317885291114290     0.692121343907918
    H               -3.150589285604511    -0.935114291114290     1.412078343907918
    H               -2.583855285604512    -0.092394291114290    -0.084408656092082
    C                1.384443714395488     1.215114708885710    -1.401878656092082
    C                1.037443714395488    -0.062885291114290    -0.662878656092082
    O                0.853443714395488     0.027114708885710     0.569121343907918
    O                0.937443714395488    -1.137885291114290    -1.302878656092082
    H                2.453443714395489     1.397114708885710    -1.282878656092082
    H                0.837443714395488     2.060114708885711    -0.975878656092082
    H                1.140250714395488     1.144827708885710    -2.472128656092083

}
e, wfn = energy('scf', return_wfn=True)
gdma(wfn)
dmavals = variable('DMA DISTRIBUTED MULTIPOLES')
charges = np.array(dmavals)
print(charges)
np.save('SSI-115THR-142GLU-2-dimer.npy', np.array(charges))--------------------------------------------------------------------------

*** tstart() called on ds3
*** at Tue Apr 28 14:13:23 2020

   => Loading Basis Set <=

    Name: CC-PVDZ
    Role: ORBITAL
    Keyword: BASIS
    atoms 1, 7-8     entry C          line   138 file /theoryfs2/ds/metcalf/miniconda2/envs/tf2gpu/share/psi4/basis/cc-pvdz.gbs
    atoms 2, 9-10    entry O          line   198 file /theoryfs2/ds/metcalf/miniconda2/envs/tf2gpu/share/psi4/basis/cc-pvdz.gbs
    atoms 3-6, 11-13 entry H          line    22 file /theoryfs2/ds/metcalf/miniconda2/envs/tf2gpu/share/psi4/basis/cc-pvdz.gbs

         ---------------------------------------------------------
                                   SCF
               by Justin Turney, Rob Parrish, Andy Simmonett
                          and Daniel G. A. Smith
                              RHF Reference
                        1 Threads,    500 MiB Core
         ---------------------------------------------------------

  ==> Geometry <==

    Molecular point group: c1
    Full point group: C1

    Geometry (in Angstrom), charge = -1, multiplicity = 1:

       Center              X                  Y                   Z               Mass
    ------------   -----------------  -----------------  -----------------  -----------------
         C           -2.280556285605    -0.518885291114     0.883121343908    12.000000000000
         O           -1.669556285605     0.464114708886     1.703121343908    15.994914619570
         H           -0.741556285605     0.465114708886     1.396121343908     1.007825032230
         H           -1.563556285605    -1.317885291114     0.692121343908     1.007825032230
         H           -3.150589285605    -0.935114291114     1.412078343908     1.007825032230
         H           -2.583855285605    -0.092394291114    -0.084408656092     1.007825032230
         C            1.384443714395     1.215114708886    -1.401878656092    12.000000000000
         C            1.037443714395    -0.062885291114    -0.662878656092    12.000000000000
         O            0.853443714395     0.027114708886     0.569121343908    15.994914619570
         O            0.937443714395    -1.137885291114    -1.302878656092    15.994914619570
         H            2.453443714395     1.397114708886    -1.282878656092     1.007825032230
         H            0.837443714395     2.060114708886    -0.975878656092     1.007825032230
         H            1.140250714395     1.144827708886    -2.472128656092     1.007825032230

  Running in c1 symmetry.

  Rotational constants: A =      0.19170  B =      0.05237  C =      0.04754 [cm^-1]
  Rotational constants: A =   5746.98749  B =   1570.12531  C =   1425.06398 [MHz]
  Nuclear repulsion =  232.410018801347917

  Charge       = -1
  Multiplicity = 1
  Electrons    = 50
  Nalpha       = 25
  Nbeta        = 25

  ==> Algorithm <==

  SCF Algorithm Type is PK.
  DIIS enabled.
  MOM disabled.
  Fractional occupation disabled.
  Guess Type is SAD.
  Energy threshold   = 1.00e-06
  Density threshold  = 1.00e-10
  Integral threshold = 0.00e+00

  ==> Primary Basis <==

  Basis Set: CC-PVDZ
    Blend: CC-PVDZ
    Number of shells: 57
    Number of basis function: 119
    Number of Cartesian functions: 125
    Spherical Harmonics?: true
    Max angular momentum: 2

  ==> Pre-Iterations <==

   -------------------------------------------------------
    Irrep   Nso     Nmo     Nalpha   Nbeta   Ndocc  Nsocc
   -------------------------------------------------------
     A        119     119       0       0       0       0
   -------------------------------------------------------
    Total     119     119      25      25      25       0
   -------------------------------------------------------

  ==> Integral Setup <==

  Using integral reordering PK algorithm.
  Sizing the integral batches needed.
  Building batch lookup table.
   Calculation information:
      Number of atoms:                  13
      Number of AO shells:              57
      Number of primitives:            167
      Number of atomic orbitals:       125
      Number of basis functions:       119

      Integral cutoff                 1.00e-12
      Number of threads:                 1

	Batch   1 pq = [       0,    7140] index = [             0,25493370] size =     25493370
  Task number: 3
  Buffer size: 11059200
  Buffer per thread: 2
  We computed 1218576 shell quartets total.
  Whereas there are 1367031 unique shell quartets.

  ==> DiskJK: Disk-Based J/K Matrices <==

    J tasked:                  Yes
    K tasked:                  Yes
    wK tasked:                  No
    Memory [MiB]:              375
    Schwarz Cutoff:          1E-12

    OpenMP threads:              1

  Minimum eigenvalue in the overlap matrix is 5.3100590176E-03.
  Using Symmetric Orthogonalization.

  SCF Guess: Superposition of Atomic Densities via on-the-fly atomic UHF.

  ==> Iterations <==

                        Total Energy        Delta E     RMS |[F,P]|

   @RHF iter SAD:  -340.64998537053873   -3.40650e+02   0.00000e+00
   @RHF iter   1:  -342.08324310042372   -1.43326e+00   5.97224e-03 DIIS
   @RHF iter   2:  -342.25493841592515   -1.71695e-01   3.42008e-03 DIIS
   @RHF iter   3:  -342.31243150532663   -5.74931e-02   4.73435e-04 DIIS
   @RHF iter   4:  -342.31451536261534   -2.08386e-03   1.74259e-04 DIIS
   @RHF iter   5:  -342.31480794025805   -2.92578e-04   3.76099e-05 DIIS
   @RHF iter   6:  -342.31482048023412   -1.25400e-05   1.61317e-05 DIIS
   @RHF iter   7:  -342.31482246047835   -1.98024e-06   3.18963e-06 DIIS
   @RHF iter   8:  -342.31482263312319   -1.72645e-07   1.46753e-06 DIIS
   @RHF iter   9:  -342.31482265813605   -2.50129e-08   6.01130e-07 DIIS
   @RHF iter  10:  -342.31482266611323   -7.97718e-09   1.99053e-07 DIIS
   @RHF iter  11:  -342.31482266707957   -9.66338e-10   4.28849e-08 DIIS
   @RHF iter  12:  -342.31482266711680   -3.72324e-11   1.32591e-08 DIIS
   @RHF iter  13:  -342.31482266711868   -1.87583e-12   3.60803e-09 DIIS
   @RHF iter  14:  -342.31482266711816    5.11591e-13   1.15484e-09 DIIS
   @RHF iter  15:  -342.31482266711680    1.36424e-12   4.48079e-10 DIIS
   @RHF iter  16:  -342.31482266711839   -1.59162e-12   1.45330e-10 DIIS
   @RHF iter  17:  -342.31482266712015   -1.76215e-12   6.61773e-11 DIIS
  Energy and wave function converged.

  ==> Post-Iterations <==

    Orbital Energies [Eh]
    ---------------------

    Doubly Occupied:

       1A    -20.370058     2A    -20.283795     3A    -20.277336
       4A    -11.135877     5A    -11.118199     6A    -11.061573
       7A     -1.176655     8A     -1.167507     9A     -1.057238
      10A     -0.809526    11A     -0.755692    12A     -0.530904
      13A     -0.503728    14A     -0.453973    15A     -0.426693
      16A     -0.425610    17A     -0.420780    18A     -0.416764
      19A     -0.359861    20A     -0.332745    21A     -0.319615
      22A     -0.272463    23A     -0.203690    24A     -0.192406
      25A     -0.183510

    Virtual:

      26A      0.333525    27A      0.353306    28A      0.381720
      29A      0.398964    30A      0.408880    31A      0.433234
      32A      0.462970    33A      0.475338    34A      0.556448
      35A      0.569344    36A      0.675772    37A      0.721241
      38A      0.782868    39A      0.805263    40A      0.815900
      41A      0.853421    42A      0.883503    43A      0.952337
      44A      0.957069    45A      1.000814    46A      1.008544
      47A      1.022376    48A      1.023815    49A      1.033716
      50A      1.057802    51A      1.078800    52A      1.094764
      53A      1.123896    54A      1.210811    55A      1.268471
      56A      1.301041    57A      1.307938    58A      1.330107
      59A      1.349568    60A      1.400902    61A      1.490088
      62A      1.511203    63A      1.545401    64A      1.565752
      65A      1.575497    66A      1.603636    67A      1.641743
      68A      1.653266    69A      1.730637    70A      1.752881
      71A      1.812658    72A      1.828609    73A      1.832022
      74A      1.837078    75A      1.893201    76A      2.011819
      77A      2.038628    78A      2.055328    79A      2.063040
      80A      2.090101    81A      2.109649    82A      2.116146
      83A      2.127554    84A      2.198975    85A      2.227201
      86A      2.240326    87A      2.299438    88A      2.365606
      89A      2.416103    90A      2.434760    91A      2.480824
      92A      2.545237    93A      2.557450    94A      2.580883
      95A      2.664979    96A      2.701940    97A      2.727471
      98A      2.841217    99A      2.902306   100A      2.912931
     101A      2.930677   102A      2.935461   103A      2.959036
     104A      2.975786   105A      3.222676   106A      3.269693
     107A      3.281600   108A      3.359036   109A      3.500058
     110A      3.544563   111A      3.610659   112A      3.642379
     113A      3.748357   114A      3.774447   115A      3.815805
     116A      4.046037   117A      4.077812   118A      4.174049
     119A      4.292046

    Final Occupation by Irrep:
              A
    DOCC [    25 ]

  @RHF Final Energy:  -342.31482266712015

   => Energetics <=

    Nuclear Repulsion Energy =            232.4100188013479169
    One-Electron Energy =                -940.9372832209344324
    Two-Electron Energy =                 366.2124417524664182
    Total Energy =                       -342.3148226671201542

Computation Completed

Properties will be evaluated at   0.000000,   0.000000,   0.000000 [a0]

Properties computed using the SCF density matrix

  Nuclear Dipole Moment: [e a0]
     X:    -3.3822      Y:     2.5485      Z:    -1.2281

  Electronic Dipole Moment: [e a0]
     X:     2.7454      Y:    -1.7428      Z:     0.9627

  Dipole Moment: [e a0]
     X:    -0.6368      Y:     0.8057      Z:    -0.2654     Total:     1.0607

  Dipole Moment: [D]
     X:    -1.6185      Y:     2.0478      Z:    -0.6746     Total:     2.6960

*** tstop() called on ds3 at Tue Apr 28 14:13:39 2020
Module time:
	user time   =      11.20 seconds =       0.19 minutes
	system time =       4.26 seconds =       0.07 minutes
	total time  =         16 seconds =       0.27 minutes
Total time:
	user time   =      11.20 seconds =       0.19 minutes
	system time =       4.26 seconds =       0.07 minutes
	total time  =         16 seconds =       0.27 minutes
                                     G D M A

                                 by Anthony Stone

                           version 2.2.06, 22 June 2011

               Distributed Multipoles from Gaussian wavefunctions

Starting at 14:13:39 on 28 Apr 2020

Using SCF density matrix from file ./SSI/SSI-115THR-142GLU-2-dimer.test.8933.fchk

                         Distributed Multipole Analysis

Standard DMA

Positions and radii in angstrom
Multipole moments in atomic units, ea_0^k for rank k

C          x = -2.280556  y = -0.518885  z =  0.883121 angstrom
           Maximum rank =  0   Radius =  0.650 angstrom
                   Q00  =  -0.013874

O          x = -1.669556  y =  0.464115  z =  1.703121 angstrom
           Maximum rank =  0   Radius =  0.650 angstrom
                   Q00  =  -0.680596

H          x = -0.741556  y =  0.465115  z =  1.396121 angstrom
           Maximum rank =  0   Radius =  0.325 angstrom
                   Q00  =   0.506290

H          x = -1.563556  y = -1.317885  z =  0.692121 angstrom
           Maximum rank =  0   Radius =  0.325 angstrom
                   Q00  =   0.085076

H          x = -3.150589  y = -0.935114  z =  1.412078 angstrom
           Maximum rank =  0   Radius =  0.325 angstrom
                   Q00  =   0.047043

H          x = -2.583855  y = -0.092394  z = -0.084409 angstrom
           Maximum rank =  0   Radius =  0.325 angstrom
                   Q00  =   0.041343

C          x =  1.384444  y =  1.215115  z = -1.401879 angstrom
           Maximum rank =  0   Radius =  0.650 angstrom
                   Q00  =  -0.280336

C          x =  1.037444  y = -0.062885  z = -0.662879 angstrom
           Maximum rank =  0   Radius =  0.650 angstrom
                   Q00  =   0.946865

O          x =  0.853444  y =  0.027115  z =  0.569121 angstrom
           Maximum rank =  0   Radius =  0.650 angstrom
                   Q00  =  -0.951234

O          x =  0.937444  y = -1.137885  z = -1.302879 angstrom
           Maximum rank =  0   Radius =  0.650 angstrom
                   Q00  =  -0.907046

H          x =  2.453444  y =  1.397115  z = -1.282879 angstrom
           Maximum rank =  0   Radius =  0.325 angstrom
                   Q00  =   0.084345

H          x =  0.837444  y =  2.060115  z = -0.975879 angstrom
           Maximum rank =  0   Radius =  0.325 angstrom
                   Q00  =   0.066614

H          x =  1.140251  y =  1.144828  z = -2.472129 angstrom
           Maximum rank =  0   Radius =  0.325 angstrom
                   Q00  =   0.055508

Total multipoles referred to origin at
           x =   0.000000,  y =    0.000000,  z =    0.000000 angstrom
                   Q00  =  -1.000000

Finished at 14:13:39 on 28 Apr 2020

  DMA results are available in the Python driver through the
	  variable('DMA DISTRIBUTED MULTIPOLES')
  and
	  variable('DMA TOTAL MULTIPOLES')
  commands.

    Psi4 stopped on: Tuesday, 28 April 2020 02:13PM
    Psi4 wall time for execution: 0:00:15.81

*** Psi4 exiting successfully. Buy a developer a beer!
