                               Psi4 1.3.2 release

  ==> Input File <==

--------------------------------------------------------------------------
import numpy as np
set {scf_type pk
basis cc-pvdz
d_convergence 10
gdma_switch   0
gdma_limit    0
gdma_origin   [ 0.0,  0.0,  0.0 ]
}
molecule test {
    units Angstrom
    0 1
    --
    0 1
    C               -0.192063880587724    -0.628722221746963     1.862578029428192
    C               -0.727063880587724    -2.065722221746964     1.847578029428192
    H                0.873936119412277    -0.636722221746963     1.632578029428192
    H               -0.703063880587724    -0.023722221746963     1.114578029428192
    H               -0.331063880587724    -0.185722221746964     2.845578029428192
    H               -0.429063880587724    -2.504722221746964     0.896578029428192
    H               -0.295163880587724    -2.646832221746963     2.675688029428192
    H               -1.826093880587724    -2.060712221746964     1.893398029428192
    C                0.962936119412276     1.285277778253036    -1.287421970571808
    C               -0.050063880587724     1.411277778253036    -2.418421970571808
    H                0.648936119412276     1.880277778253036    -0.433421970571808
    H                1.060936119412276     0.249277778253037    -0.971421970571808
    H                1.945936119412276     1.616277778253036    -1.609421970571808
    H                0.307936119412276     0.827277778253037    -3.268421970571808
    H               -0.162553880587724     2.457127778253037    -2.740221970571808
    H               -1.016193880587724     1.003057778253037    -2.086831970571808

}
e, wfn = energy('scf', return_wfn=True)
gdma(wfn)
dmavals = variable('DMA DISTRIBUTED MULTIPOLES')
charges = np.array(dmavals)
print(charges)
np.save('SSI-075LEU-094ILE-1-dimer.npy', np.array(charges))--------------------------------------------------------------------------

*** tstart() called on ds3
*** at Tue Apr 28 11:54:35 2020

   => Loading Basis Set <=

    Name: CC-PVDZ
    Role: ORBITAL
    Keyword: BASIS
    atoms 1-2, 9-10  entry C          line   138 file /theoryfs2/ds/metcalf/miniconda2/envs/tf2gpu/share/psi4/basis/cc-pvdz.gbs
    atoms 3-8, 11-16 entry H          line    22 file /theoryfs2/ds/metcalf/miniconda2/envs/tf2gpu/share/psi4/basis/cc-pvdz.gbs

         ---------------------------------------------------------
                                   SCF
               by Justin Turney, Rob Parrish, Andy Simmonett
                          and Daniel G. A. Smith
                              RHF Reference
                        1 Threads,    500 MiB Core
         ---------------------------------------------------------

  ==> Geometry <==

    Molecular point group: c1
    Full point group: C1

    Geometry (in Angstrom), charge = 0, multiplicity = 1:

       Center              X                  Y                   Z               Mass
    ------------   -----------------  -----------------  -----------------  -----------------
         C           -0.192063880588    -0.628722221747     1.862578029428    12.000000000000
         C           -0.727063880588    -2.065722221747     1.847578029428    12.000000000000
         H            0.873936119412    -0.636722221747     1.632578029428     1.007825032230
         H           -0.703063880588    -0.023722221747     1.114578029428     1.007825032230
         H           -0.331063880588    -0.185722221747     2.845578029428     1.007825032230
         H           -0.429063880588    -2.504722221747     0.896578029428     1.007825032230
         H           -0.295163880588    -2.646832221747     2.675688029428     1.007825032230
         H           -1.826093880588    -2.060712221747     1.893398029428     1.007825032230
         C            0.962936119412     1.285277778253    -1.287421970572    12.000000000000
         C           -0.050063880588     1.411277778253    -2.418421970572    12.000000000000
         H            0.648936119412     1.880277778253    -0.433421970572     1.007825032230
         H            1.060936119412     0.249277778253    -0.971421970572     1.007825032230
         H            1.945936119412     1.616277778253    -1.609421970572     1.007825032230
         H            0.307936119412     0.827277778253    -3.268421970572     1.007825032230
         H           -0.162553880588     2.457127778253    -2.740221970572     1.007825032230
         H           -1.016193880588     1.003057778253    -2.086831970572     1.007825032230

  Running in c1 symmetry.

  Rotational constants: A =      0.43961  B =      0.04733  C =      0.04509 [cm^-1]
  Rotational constants: A =  13179.02943  B =   1418.81651  C =   1351.80622 [MHz]
  Nuclear repulsion =  121.250354942047380

  Charge       = 0
  Multiplicity = 1
  Electrons    = 36
  Nalpha       = 18
  Nbeta        = 18

  ==> Algorithm <==

  SCF Algorithm Type is PK.
  DIIS enabled.
  MOM disabled.
  Fractional occupation disabled.
  Guess Type is SAD.
  Energy threshold   = 1.00e-06
  Density threshold  = 1.00e-10
  Integral threshold = 0.00e+00

  ==> Primary Basis <==

  Basis Set: CC-PVDZ
    Blend: CC-PVDZ
    Number of shells: 60
    Number of basis function: 116
    Number of Cartesian functions: 120
    Spherical Harmonics?: true
    Max angular momentum: 2

  ==> Pre-Iterations <==

   -------------------------------------------------------
    Irrep   Nso     Nmo     Nalpha   Nbeta   Ndocc  Nsocc
   -------------------------------------------------------
     A        116     116       0       0       0       0
   -------------------------------------------------------
    Total     116     116      18      18      18       0
   -------------------------------------------------------

  ==> Integral Setup <==

  Using integral reordering PK algorithm.
  Sizing the integral batches needed.
  Building batch lookup table.
   Calculation information:
      Number of atoms:                  16
      Number of AO shells:              60
      Number of primitives:            148
      Number of atomic orbitals:       120
      Number of basis functions:       116

      Integral cutoff                 1.00e-12
      Number of threads:                 1

	Batch   1 pq = [       0,    6786] index = [             0,23028291] size =     23028291
  Task number: 3
  Buffer size: 11059200
  Buffer per thread: 2
  We computed 1412380 shell quartets total.
  Whereas there are 1675365 unique shell quartets.

  ==> DiskJK: Disk-Based J/K Matrices <==

    J tasked:                  Yes
    K tasked:                  Yes
    wK tasked:                  No
    Memory [MiB]:              375
    Schwarz Cutoff:          1E-12

    OpenMP threads:              1

  Minimum eigenvalue in the overlap matrix is 7.5531307308E-03.
  Using Symmetric Orthogonalization.

  SCF Guess: Superposition of Atomic Densities via on-the-fly atomic UHF.

  ==> Iterations <==

                        Total Energy        Delta E     RMS |[F,P]|

   @RHF iter SAD:  -157.34587312580106   -1.57346e+02   0.00000e+00
   @RHF iter   1:  -158.30761143552564   -9.61738e-01   4.21873e-03 DIIS
   @RHF iter   2:  -158.44115899701688   -1.33548e-01   1.80119e-03 DIIS
   @RHF iter   3:  -158.46467157014126   -2.35126e-02   3.49668e-04 DIIS
   @RHF iter   4:  -158.46650452416318   -1.83295e-03   3.89375e-05 DIIS
   @RHF iter   5:  -158.46652829483594   -2.37707e-05   6.64687e-06 DIIS
   @RHF iter   6:  -158.46652893836941   -6.43533e-07   1.15570e-06 DIIS
   @RHF iter   7:  -158.46652895102727   -1.26579e-08   3.15529e-07 DIIS
   @RHF iter   8:  -158.46652895190070   -8.73428e-10   3.44619e-08 DIIS
   @RHF iter   9:  -158.46652895191795   -1.72520e-11   6.42308e-09 DIIS
   @RHF iter  10:  -158.46652895191849   -5.40012e-13   1.88830e-09 DIIS
   @RHF iter  11:  -158.46652895191818    3.12639e-13   5.00992e-10 DIIS
   @RHF iter  12:  -158.46652895191841   -2.27374e-13   1.14132e-10 DIIS
   @RHF iter  13:  -158.46652895191818    2.27374e-13   1.80173e-11 DIIS
  Energy and wave function converged.

  ==> Post-Iterations <==

    Orbital Energies [Eh]
    ---------------------

    Doubly Occupied:

       1A    -11.219680     2A    -11.219648     3A    -11.216136
       4A    -11.214905     5A     -1.019893     6A     -1.017190
       7A     -0.838822     8A     -0.834849     9A     -0.602991
      10A     -0.598857    11A     -0.596978    12A     -0.594585
      13A     -0.504496    14A     -0.497046    15A     -0.489220
      16A     -0.486311    17A     -0.484304    18A     -0.481700

    Virtual:

      19A      0.168074    20A      0.197929    21A      0.223957
      22A      0.229915    23A      0.244395    24A      0.254615
      25A      0.262857    26A      0.274523    27A      0.279605
      28A      0.286728    29A      0.309827    30A      0.336364
      31A      0.396112    32A      0.398824    33A      0.577588
      34A      0.593299    35A      0.598101    36A      0.608142
      37A      0.619248    38A      0.622314    39A      0.651264
      40A      0.682985    41A      0.691013    42A      0.798512
      43A      0.841943    44A      0.853612    45A      0.884031
      46A      0.887823    47A      0.892239    48A      0.892666
      49A      0.897344    50A      0.900996    51A      0.909583
      52A      0.913393    53A      0.940158    54A      0.950708
      55A      0.978487    56A      0.996065    57A      1.122023
      58A      1.126239    59A      1.127840    60A      1.147818
      61A      1.228142    62A      1.245924    63A      1.468919
      64A      1.473373    65A      1.480903    66A      1.489427
      67A      1.569972    68A      1.576248    69A      1.677676
      70A      1.680269    71A      1.698681    72A      1.703845
      73A      1.853841    74A      1.857845    75A      1.865162
      76A      1.884173    77A      1.890865    78A      1.914949
      79A      1.933195    80A      1.941097    81A      1.947427
      82A      1.950794    83A      1.951705    84A      1.955792
      85A      1.959592    86A      1.969064    87A      1.976822
      88A      2.006755    89A      2.086605    90A      2.104106
      91A      2.120048    92A      2.136367    93A      2.284359
      94A      2.297989    95A      2.313849    96A      2.328343
      97A      2.448220    98A      2.453605    99A      2.461427
     100A      2.473931   101A      2.557025   102A      2.562215
     103A      2.575377   104A      2.582935   105A      2.756054
     106A      2.765225   107A      2.793741   108A      2.798092
     109A      2.835181   110A      2.852676   111A      2.858573
     112A      2.864585   113A      2.937017   114A      2.943336
     115A      2.971923   116A      2.980082

    Final Occupation by Irrep:
              A
    DOCC [    18 ]

  @RHF Final Energy:  -158.46652895191818

   => Energetics <=

    Nuclear Repulsion Energy =            121.2503549420473803
    One-Electron Energy =                -451.5985488521212687
    Two-Electron Energy =                 171.8816649581556817
    Total Energy =                       -158.4665289519181783

Computation Completed

Properties will be evaluated at   0.000000,   0.000000,   0.000000 [a0]

Properties computed using the SCF density matrix

  Nuclear Dipole Moment: [e a0]
     X:     0.0698      Y:    -0.0236      Z:    -0.0481

  Electronic Dipole Moment: [e a0]
     X:    -0.0503      Y:     0.0257      Z:     0.0446

  Dipole Moment: [e a0]
     X:     0.0195      Y:     0.0021      Z:    -0.0036     Total:     0.0199

  Dipole Moment: [D]
     X:     0.0496      Y:     0.0054      Z:    -0.0091     Total:     0.0507

*** tstop() called on ds3 at Tue Apr 28 11:54:46 2020
Module time:
	user time   =       7.99 seconds =       0.13 minutes
	system time =       3.18 seconds =       0.05 minutes
	total time  =         11 seconds =       0.18 minutes
Total time:
	user time   =       7.99 seconds =       0.13 minutes
	system time =       3.18 seconds =       0.05 minutes
	total time  =         11 seconds =       0.18 minutes
                                     G D M A

                                 by Anthony Stone

                           version 2.2.06, 22 June 2011

               Distributed Multipoles from Gaussian wavefunctions

Starting at 11:54:46 on 28 Apr 2020

Using SCF density matrix from file ./SSI/SSI-075LEU-094ILE-1-dimer.test.19257.fchk

                         Distributed Multipole Analysis

Standard DMA

Positions and radii in angstrom
Multipole moments in atomic units, ea_0^k for rank k

C          x = -0.192064  y = -0.628722  z =  1.862578 angstrom
           Maximum rank =  0   Radius =  0.650 angstrom
                   Q00  =  -0.233478

C          x = -0.727064  y = -2.065722  z =  1.847578 angstrom
           Maximum rank =  0   Radius =  0.650 angstrom
                   Q00  =  -0.241371

H          x =  0.873936  y = -0.636722  z =  1.632578 angstrom
           Maximum rank =  0   Radius =  0.325 angstrom
                   Q00  =   0.077821

H          x = -0.703064  y = -0.023722  z =  1.114578 angstrom
           Maximum rank =  0   Radius =  0.325 angstrom
                   Q00  =   0.081345

H          x = -0.331064  y = -0.185722  z =  2.845578 angstrom
           Maximum rank =  0   Radius =  0.325 angstrom
                   Q00  =   0.078764

H          x = -0.429064  y = -2.504722  z =  0.896578 angstrom
           Maximum rank =  0   Radius =  0.325 angstrom
                   Q00  =   0.076036

H          x = -0.295164  y = -2.646832  z =  2.675688 angstrom
           Maximum rank =  0   Radius =  0.325 angstrom
                   Q00  =   0.081403

H          x = -1.826094  y = -2.060712  z =  1.893398 angstrom
           Maximum rank =  0   Radius =  0.325 angstrom
                   Q00  =   0.079221

C          x =  0.962936  y =  1.285278  z = -1.287422 angstrom
           Maximum rank =  0   Radius =  0.650 angstrom
                   Q00  =  -0.237603

C          x = -0.050064  y =  1.411278  z = -2.418422 angstrom
           Maximum rank =  0   Radius =  0.650 angstrom
                   Q00  =  -0.234082

H          x =  0.648936  y =  1.880278  z = -0.433422 angstrom
           Maximum rank =  0   Radius =  0.325 angstrom
                   Q00  =   0.078974

H          x =  1.060936  y =  0.249278  z = -0.971422 angstrom
           Maximum rank =  0   Radius =  0.325 angstrom
                   Q00  =   0.079594

H          x =  1.945936  y =  1.616278  z = -1.609422 angstrom
           Maximum rank =  0   Radius =  0.325 angstrom
                   Q00  =   0.078431

H          x =  0.307936  y =  0.827278  z = -3.268422 angstrom
           Maximum rank =  0   Radius =  0.325 angstrom
                   Q00  =   0.077401

H          x = -0.162554  y =  2.457128  z = -2.740222 angstrom
           Maximum rank =  0   Radius =  0.325 angstrom
                   Q00  =   0.080432

H          x = -1.016194  y =  1.003058  z = -2.086832 angstrom
           Maximum rank =  0   Radius =  0.325 angstrom
                   Q00  =   0.077114

Total multipoles referred to origin at
           x =   0.000000,  y =    0.000000,  z =    0.000000 angstrom
                   Q00  =  -0.000000

Finished at 11:54:46 on 28 Apr 2020

  DMA results are available in the Python driver through the
	  variable('DMA DISTRIBUTED MULTIPOLES')
  and
	  variable('DMA TOTAL MULTIPOLES')
  commands.

    Psi4 stopped on: Tuesday, 28 April 2020 11:54AM
    Psi4 wall time for execution: 0:00:10.86

*** Psi4 exiting successfully. Buy a developer a beer!
