                               Psi4 1.3.2 release

  ==> Input File <==

--------------------------------------------------------------------------
import numpy as np
set {scf_type pk
basis cc-pvdz
d_convergence 10
gdma_switch   0
gdma_limit    0
gdma_origin   [ 0.0,  0.0,  0.0 ]
}
molecule test {
    units Angstrom
    0 1
    --
    0 1
    C               -1.330365269843534     2.081059290507757    -1.125979880449727
    C               -0.028365269843533     0.186059290507757    -0.111979880449727
    C               -0.141365269843533     1.548059290507757    -0.369979880449727
    C                1.055634730156467    -0.312940709492243     0.600020119550273
    C                0.836634730156466     2.412059290507757     0.110020119550273
    C                2.033634730156467     0.554059290507757     1.069020119550274
    C                1.923634730156466     1.917059290507757     0.820020119550273
    H               -0.799365269843533    -0.473940709492243    -0.466979880449727
    H                1.137634730156466    -1.374940709492243     0.794020119550273
    H               -1.735365269843534     2.924059290507757    -0.569979880449727
    H               -2.095365269843533     1.314059290507757    -1.155979880449727
    H                0.756634730156467     3.474059290507757    -0.075979880449727
    H                2.881634730156466     0.168059290507757     1.618020119550273
    H                2.696634730156467     2.592059290507758     1.150020119550273
    H               -1.101605269843534     2.454679290507757    -2.134979880449727
    C               -1.689365269843534    -2.996940709492243    -0.149979880449727
    C               -1.902365269843534    -4.443940709492243    -0.579979880449727
    H               -1.288365269843534    -2.949940709492243     0.865020119550273
    H               -0.977365269843533    -2.543940709492243    -0.839979880449727
    H               -2.631365269843533    -2.449940709492243    -0.190979880449727
    H               -2.358365269843534    -4.453940709492243    -1.567979880449727
    H               -2.569135269843533    -4.959510709492243     0.126850119550273
    H               -0.938195269843533    -4.967220709492243    -0.660929880449727

}
e, wfn = energy('scf', return_wfn=True)
gdma(wfn)
dmavals = variable('DMA DISTRIBUTED MULTIPOLES')
charges = np.array(dmavals)
print(charges)
np.save('SSI-094PHE-141ALA-1-dimer.npy', np.array(charges))--------------------------------------------------------------------------

*** tstart() called on ds3
*** at Mon Apr 27 16:17:52 2020

   => Loading Basis Set <=

    Name: CC-PVDZ
    Role: ORBITAL
    Keyword: BASIS
    atoms 1-7, 16-17  entry C          line   138 file /theoryfs2/ds/metcalf/miniconda2/envs/tf2gpu/share/psi4/basis/cc-pvdz.gbs
    atoms 8-15, 18-23 entry H          line    22 file /theoryfs2/ds/metcalf/miniconda2/envs/tf2gpu/share/psi4/basis/cc-pvdz.gbs

         ---------------------------------------------------------
                                   SCF
               by Justin Turney, Rob Parrish, Andy Simmonett
                          and Daniel G. A. Smith
                              RHF Reference
                        1 Threads,    500 MiB Core
         ---------------------------------------------------------

  ==> Geometry <==

    Molecular point group: c1
    Full point group: C1

    Geometry (in Angstrom), charge = 0, multiplicity = 1:

       Center              X                  Y                   Z               Mass
    ------------   -----------------  -----------------  -----------------  -----------------
         C           -1.330365269844     2.081059290508    -1.125979880450    12.000000000000
         C           -0.028365269844     0.186059290508    -0.111979880450    12.000000000000
         C           -0.141365269844     1.548059290508    -0.369979880450    12.000000000000
         C            1.055634730156    -0.312940709492     0.600020119550    12.000000000000
         C            0.836634730156     2.412059290508     0.110020119550    12.000000000000
         C            2.033634730156     0.554059290508     1.069020119550    12.000000000000
         C            1.923634730156     1.917059290508     0.820020119550    12.000000000000
         H           -0.799365269844    -0.473940709492    -0.466979880450     1.007825032230
         H            1.137634730156    -1.374940709492     0.794020119550     1.007825032230
         H           -1.735365269844     2.924059290508    -0.569979880450     1.007825032230
         H           -2.095365269844     1.314059290508    -1.155979880450     1.007825032230
         H            0.756634730156     3.474059290508    -0.075979880450     1.007825032230
         H            2.881634730156     0.168059290508     1.618020119550     1.007825032230
         H            2.696634730156     2.592059290508     1.150020119550     1.007825032230
         H           -1.101605269844     2.454679290508    -2.134979880450     1.007825032230
         C           -1.689365269844    -2.996940709492    -0.149979880450    12.000000000000
         C           -1.902365269844    -4.443940709492    -0.579979880450    12.000000000000
         H           -1.288365269844    -2.949940709492     0.865020119550     1.007825032230
         H           -0.977365269844    -2.543940709492    -0.839979880450     1.007825032230
         H           -2.631365269844    -2.449940709492    -0.190979880450     1.007825032230
         H           -2.358365269844    -4.453940709492    -1.567979880450     1.007825032230
         H           -2.569135269844    -4.959510709492     0.126850119550     1.007825032230
         H           -0.938195269844    -4.967220709492    -0.660929880450     1.007825032230

  Running in c1 symmetry.

  Rotational constants: A =      0.08165  B =      0.02104  C =      0.01696 [cm^-1]
  Rotational constants: A =   2447.87795  B =    630.77422  C =    508.32927 [MHz]
  Nuclear repulsion =  400.504200078015231

  Charge       = 0
  Multiplicity = 1
  Electrons    = 68
  Nalpha       = 34
  Nbeta        = 34

  ==> Algorithm <==

  SCF Algorithm Type is PK.
  DIIS enabled.
  MOM disabled.
  Fractional occupation disabled.
  Guess Type is SAD.
  Energy threshold   = 1.00e-06
  Density threshold  = 1.00e-10
  Integral threshold = 0.00e+00

  ==> Primary Basis <==

  Basis Set: CC-PVDZ
    Blend: CC-PVDZ
    Number of shells: 96
    Number of basis function: 196
    Number of Cartesian functions: 205
    Spherical Harmonics?: true
    Max angular momentum: 2

  ==> Pre-Iterations <==

   -------------------------------------------------------
    Irrep   Nso     Nmo     Nalpha   Nbeta   Ndocc  Nsocc
   -------------------------------------------------------
     A        196     196       0       0       0       0
   -------------------------------------------------------
    Total     196     196      34      34      34       0
   -------------------------------------------------------

  ==> Integral Setup <==

  Using integral reordering PK algorithm.
  Sizing the integral batches needed.
  Building batch lookup table.
   Calculation information:
      Number of atoms:                  23
      Number of AO shells:              96
      Number of primitives:            268
      Number of atomic orbitals:       205
      Number of basis functions:       196

      Integral cutoff                 1.00e-12
      Number of threads:                 1

	Batch   1 pq = [       0,    9405] index = [             0,44231715] size =     44231715
	Batch   2 pq = [    9405,   13301] index = [      44231715,88464951] size =     44233236
	Batch   3 pq = [   13301,   16290] index = [      88464951,132690195] size =     44225244
	Batch   4 pq = [   16290,   18810] index = [     132690195,176917455] size =     44227260
	Batch   5 pq = [   18810,   19306] index = [     176917455,186370471] size =      9453016
  Task number: 17
  Buffer size: 11059200
  Buffer per thread: 2
  We computed 8666080 shell quartets total.
  Whereas there are 10841496 unique shell quartets.

  ==> DiskJK: Disk-Based J/K Matrices <==

    J tasked:                  Yes
    K tasked:                  Yes
    wK tasked:                  No
    Memory [MiB]:              375
    Schwarz Cutoff:          1E-12

    OpenMP threads:              1

  Minimum eigenvalue in the overlap matrix is 2.9559613762E-04.
  Using Symmetric Orthogonalization.

  SCF Guess: Superposition of Atomic Densities via on-the-fly atomic UHF.

  ==> Iterations <==

                        Total Energy        Delta E     RMS |[F,P]|

   @RHF iter SAD:  -347.93510069487019   -3.47935e+02   0.00000e+00
   @RHF iter   1:  -348.76522954687402   -8.30129e-01   2.90177e-03 DIIS
   @RHF iter   2:  -348.95894249319355   -1.93713e-01   1.19937e-03 DIIS
   @RHF iter   3:  -348.98908701940172   -3.01445e-02   2.60204e-04 DIIS
   @RHF iter   4:  -348.99159346441866   -2.50645e-03   5.32559e-05 DIIS
   @RHF iter   5:  -348.99166840688798   -7.49425e-05   1.78492e-05 DIIS
   @RHF iter   6:  -348.99167627150882   -7.86462e-06   4.87036e-06 DIIS
   @RHF iter   7:  -348.99167694572498   -6.74216e-07   1.26717e-06 DIIS
   @RHF iter   8:  -348.99167700015641   -5.44314e-08   3.23650e-07 DIIS
   @RHF iter   9:  -348.99167700735529   -7.19888e-09   1.46945e-07 DIIS
   @RHF iter  10:  -348.99167700908788   -1.73259e-09   6.93821e-08 DIIS
   @RHF iter  11:  -348.99167700972305   -6.35168e-10   2.47195e-08 DIIS
   @RHF iter  12:  -348.99167700979467   -7.16227e-11   9.56056e-09 DIIS
   @RHF iter  13:  -348.99167700980320   -8.52651e-12   3.66586e-09 DIIS
   @RHF iter  14:  -348.99167700980286    3.41061e-13   9.76483e-10 DIIS
   @RHF iter  15:  -348.99167700980155    1.30740e-12   4.54243e-10 DIIS
   @RHF iter  16:  -348.99167700980263   -1.08002e-12   1.91245e-10 DIIS
   @RHF iter  17:  -348.99167700980303   -3.97904e-13   7.23830e-11 DIIS
  Energy and wave function converged.

  ==> Post-Iterations <==

    Orbital Energies [Eh]
    ---------------------

    Doubly Occupied:

       1A    -11.237379     2A    -11.233150     3A    -11.232979
       4A    -11.229082     5A    -11.227827     6A    -11.227092
       7A    -11.225777     8A    -11.220934     9A    -11.220192
      10A     -1.152540    11A     -1.043490    12A     -1.022896
      13A     -1.010664    14A     -0.930557    15A     -0.839986
      16A     -0.824089    17A     -0.794050    18A     -0.690639
      19A     -0.631275    20A     -0.628605    21A     -0.604217
      22A     -0.600038    23A     -0.581474    24A     -0.573307
      25A     -0.561098    26A     -0.537124    27A     -0.503909
      28A     -0.492019    29A     -0.487762    30A     -0.485421
      31A     -0.480626    32A     -0.478262    33A     -0.330947
      34A     -0.320695

    Virtual:

      35A      0.137281    36A      0.143076    37A      0.174537
      38A      0.192402    39A      0.202432    40A      0.217461
      41A      0.234265    42A      0.243142    43A      0.252543
      44A      0.264661    45A      0.271891    46A      0.277669
      47A      0.281630    48A      0.291897    49A      0.300894
      50A      0.331752    51A      0.367422    52A      0.378848
      53A      0.416490    54A      0.460337    55A      0.462959
      56A      0.482025    57A      0.493534    58A      0.562215
      59A      0.594606    60A      0.600902    61A      0.601132
      62A      0.627880    63A      0.661637    64A      0.668414
      65A      0.690366    66A      0.695888    67A      0.709593
      68A      0.718685    69A      0.732932    70A      0.738024
      71A      0.744758    72A      0.752611    73A      0.771441
      74A      0.773144    75A      0.780989    76A      0.801226
      77A      0.823121    78A      0.845648    79A      0.864292
      80A      0.875896    81A      0.881949    82A      0.884396
      83A      0.891588    84A      0.892148    85A      0.893122
      86A      0.908185    87A      0.916512    88A      0.921140
      89A      0.934802    90A      0.946725    91A      0.953029
      92A      0.966159    93A      0.984573    94A      1.010471
      95A      1.025952    96A      1.051082    97A      1.112826
      98A      1.133797    99A      1.138700   100A      1.157262
     101A      1.160036   102A      1.178286   103A      1.202177
     104A      1.231448   105A      1.240797   106A      1.250273
     107A      1.255721   108A      1.280578   109A      1.306875
     110A      1.315678   111A      1.333910   112A      1.385555
     113A      1.415608   114A      1.474683   115A      1.484784
     116A      1.512248   117A      1.530850   118A      1.557116
     119A      1.583347   120A      1.616596   121A      1.677381
     122A      1.682862   123A      1.688581   124A      1.700471
     125A      1.738282   126A      1.748801   127A      1.760685
     128A      1.793443   129A      1.816091   130A      1.856651
     131A      1.864269   132A      1.878221   133A      1.893730
     134A      1.906424   135A      1.911492   136A      1.916220
     137A      1.919416   138A      1.927779   139A      1.937773
     140A      1.944345   141A      1.945245   142A      1.949618
     143A      1.958193   144A      1.965872   145A      1.982305
     146A      1.993882   147A      2.008531   148A      2.013017
     149A      2.048682   150A      2.067791   151A      2.082266
     152A      2.098482   153A      2.109611   154A      2.124865
     155A      2.151864   156A      2.167260   157A      2.173482
     158A      2.189405   159A      2.206933   160A      2.240675
     161A      2.274255   162A      2.294557   163A      2.296404
     164A      2.313068   165A      2.322588   166A      2.342064
     167A      2.375725   168A      2.449562   169A      2.459991
     170A      2.466106   171A      2.501415   172A      2.532567
     173A      2.541987   174A      2.564070   175A      2.581964
     176A      2.630542   177A      2.740343   178A      2.752521
     179A      2.762267   180A      2.783377   181A      2.788376
     182A      2.803824   183A      2.832859   184A      2.843299
     185A      2.857106   186A      2.861016   187A      2.880217
     188A      2.945419   189A      2.955501   190A      2.990657
     191A      3.019503   192A      3.035307   193A      3.169955
     194A      3.213779   195A      3.316202   196A      3.981267

    Final Occupation by Irrep:
              A
    DOCC [    34 ]

  @RHF Final Energy:  -348.99167700980303

   => Energetics <=

    Nuclear Repulsion Energy =            400.5042000780152307
    One-Electron Energy =               -1263.6715573102974304
    Two-Electron Energy =                 514.1756802224791727
    Total Energy =                       -348.9916770098030838

Computation Completed

Properties will be evaluated at   0.000000,   0.000000,   0.000000 [a0]

Properties computed using the SCF density matrix

  Nuclear Dipole Moment: [e a0]
     X:    -8.4578      Y:   -10.5432      Z:    -2.9154

  Electronic Dipole Moment: [e a0]
     X:     8.3427      Y:    10.5756      Z:     2.8446

  Dipole Moment: [e a0]
     X:    -0.1151      Y:     0.0325      Z:    -0.0707     Total:     0.1390

  Dipole Moment: [D]
     X:    -0.2926      Y:     0.0826      Z:    -0.1798     Total:     0.3532

*** tstop() called on ds3 at Mon Apr 27 16:19:33 2020
Module time:
	user time   =      65.42 seconds =       1.09 minutes
	system time =      39.26 seconds =       0.65 minutes
	total time  =        101 seconds =       1.68 minutes
Total time:
	user time   =      65.42 seconds =       1.09 minutes
	system time =      39.26 seconds =       0.65 minutes
	total time  =        101 seconds =       1.68 minutes
                                     G D M A

                                 by Anthony Stone

                           version 2.2.06, 22 June 2011

               Distributed Multipoles from Gaussian wavefunctions

Starting at 16:19:33 on 27 Apr 2020

Using SCF density matrix from file ./SSI/SSI-094PHE-141ALA-1-dimer.test.19387.fchk

                         Distributed Multipole Analysis

Standard DMA

Positions and radii in angstrom
Multipole moments in atomic units, ea_0^k for rank k

C          x = -1.330365  y =  2.081059  z = -1.125980 angstrom
           Maximum rank =  0   Radius =  0.650 angstrom
                   Q00  =  -0.200594

C          x = -0.028365  y =  0.186059  z = -0.111980 angstrom
           Maximum rank =  0   Radius =  0.650 angstrom
                   Q00  =   0.013857

C          x = -0.141365  y =  1.548059  z = -0.369980 angstrom
           Maximum rank =  0   Radius =  0.650 angstrom
                   Q00  =  -0.098834

C          x =  1.055635  y = -0.312941  z =  0.600020 angstrom
           Maximum rank =  0   Radius =  0.650 angstrom
                   Q00  =  -0.085436

C          x =  0.836635  y =  2.412059  z =  0.110020 angstrom
           Maximum rank =  0   Radius =  0.650 angstrom
                   Q00  =  -0.087104

C          x =  2.033635  y =  0.554059  z =  1.069020 angstrom
           Maximum rank =  0   Radius =  0.650 angstrom
                   Q00  =  -0.078447

C          x =  1.923635  y =  1.917059  z =  0.820020 angstrom
           Maximum rank =  0   Radius =  0.650 angstrom
                   Q00  =  -0.066961

H          x = -0.799365  y = -0.473941  z = -0.466980 angstrom
           Maximum rank =  0   Radius =  0.325 angstrom
                   Q00  =   0.059913

H          x =  1.137635  y = -1.374941  z =  0.794020 angstrom
           Maximum rank =  0   Radius =  0.325 angstrom
                   Q00  =   0.062633

H          x = -1.735365  y =  2.924059  z = -0.569980 angstrom
           Maximum rank =  0   Radius =  0.325 angstrom
                   Q00  =   0.098007

H          x = -2.095365  y =  1.314059  z = -1.155980 angstrom
           Maximum rank =  0   Radius =  0.325 angstrom
                   Q00  =   0.098862

H          x =  0.756635  y =  3.474059  z = -0.075980 angstrom
           Maximum rank =  0   Radius =  0.325 angstrom
                   Q00  =   0.054584

H          x =  2.881635  y =  0.168059  z =  1.618020 angstrom
           Maximum rank =  0   Radius =  0.325 angstrom
                   Q00  =   0.059919

H          x =  2.696635  y =  2.592059  z =  1.150020 angstrom
           Maximum rank =  0   Radius =  0.325 angstrom
                   Q00  =   0.063465

H          x = -1.101605  y =  2.454679  z = -2.134980 angstrom
           Maximum rank =  0   Radius =  0.325 angstrom
                   Q00  =   0.103884

C          x = -1.689365  y = -2.996941  z = -0.149980 angstrom
           Maximum rank =  0   Radius =  0.650 angstrom
                   Q00  =  -0.238976

C          x = -1.902365  y = -4.443941  z = -0.579980 angstrom
           Maximum rank =  0   Radius =  0.650 angstrom
                   Q00  =  -0.234357

H          x = -1.288365  y = -2.949941  z =  0.865020 angstrom
           Maximum rank =  0   Radius =  0.325 angstrom
                   Q00  =   0.082581

H          x = -0.977365  y = -2.543941  z = -0.839980 angstrom
           Maximum rank =  0   Radius =  0.325 angstrom
                   Q00  =   0.073082

H          x = -2.631365  y = -2.449941  z = -0.190980 angstrom
           Maximum rank =  0   Radius =  0.325 angstrom
                   Q00  =   0.080314

H          x = -2.358365  y = -4.453941  z = -1.567980 angstrom
           Maximum rank =  0   Radius =  0.325 angstrom
                   Q00  =   0.079320

H          x = -2.569135  y = -4.959511  z =  0.126850 angstrom
           Maximum rank =  0   Radius =  0.325 angstrom
                   Q00  =   0.080356

H          x = -0.938195  y = -4.967221  z = -0.660930 angstrom
           Maximum rank =  0   Radius =  0.325 angstrom
                   Q00  =   0.079931

Total multipoles referred to origin at
           x =   0.000000,  y =    0.000000,  z =    0.000000 angstrom
                   Q00  =  -0.000000

Finished at 16:19:33 on 27 Apr 2020

  DMA results are available in the Python driver through the
	  variable('DMA DISTRIBUTED MULTIPOLES')
  and
	  variable('DMA TOTAL MULTIPOLES')
  commands.

    Psi4 stopped on: Monday, 27 April 2020 04:19PM
    Psi4 wall time for execution: 0:01:41.49

*** Psi4 exiting successfully. Buy a developer a beer!
