                               Psi4 1.3.2 release

  ==> Input File <==

--------------------------------------------------------------------------
import numpy as np
set {scf_type pk
basis cc-pvdz
d_convergence 10
gdma_switch   0
gdma_limit    0
gdma_origin   [ 0.0,  0.0,  0.0 ]
}
molecule test {
    units Angstrom
    1 1
    --
    1 1
    C                2.522404744509921    -0.087397036534337     0.187008682618635
    O                1.234404744509921    -0.156397036534337     0.792008682618635
    H                1.337404744509920    -0.152397036534337     1.754008682618635
    H                3.089404744509920     0.727602963465663     0.631008682618635
    H                3.062884744509920    -1.031087036534337     0.352318682618635
    H                2.421464744509921     0.110182963465663    -0.890381317381365
    C               -2.285595255490080     0.803602963465663    -0.534991317381365
    N               -1.507595255490080    -0.485397036534337    -0.514991317381365
    H               -1.373595255490079    -0.849397036534337    -1.451991317381365
    H               -0.592595255490079    -0.372397036534337    -0.076991317381365
    H               -2.024595255490079    -1.201397036534337     0.005008682618635
    H               -1.755595255490079     1.509602963465662    -1.185991317381365
    H               -2.302595255490079     1.220602963465663     0.479008682618635
    H               -3.325675255490080     0.737352963465663    -0.886911317381365

}
e, wfn = energy('scf', return_wfn=True)
gdma(wfn)
dmavals = variable('DMA DISTRIBUTED MULTIPOLES')
charges = np.array(dmavals)
print(charges)
np.save('SSI-060THR-087LYS-1-dimer.npy', np.array(charges))--------------------------------------------------------------------------

*** tstart() called on ds3
*** at Tue Apr 28 09:37:35 2020

   => Loading Basis Set <=

    Name: CC-PVDZ
    Role: ORBITAL
    Keyword: BASIS
    atoms 1, 7      entry C          line   138 file /theoryfs2/ds/metcalf/miniconda2/envs/tf2gpu/share/psi4/basis/cc-pvdz.gbs
    atoms 2         entry O          line   198 file /theoryfs2/ds/metcalf/miniconda2/envs/tf2gpu/share/psi4/basis/cc-pvdz.gbs
    atoms 3-6, 9-14 entry H          line    22 file /theoryfs2/ds/metcalf/miniconda2/envs/tf2gpu/share/psi4/basis/cc-pvdz.gbs
    atoms 8         entry N          line   168 file /theoryfs2/ds/metcalf/miniconda2/envs/tf2gpu/share/psi4/basis/cc-pvdz.gbs

         ---------------------------------------------------------
                                   SCF
               by Justin Turney, Rob Parrish, Andy Simmonett
                          and Daniel G. A. Smith
                              RHF Reference
                        1 Threads,    500 MiB Core
         ---------------------------------------------------------

  ==> Geometry <==

    Molecular point group: c1
    Full point group: C1

    Geometry (in Angstrom), charge = 1, multiplicity = 1:

       Center              X                  Y                   Z               Mass
    ------------   -----------------  -----------------  -----------------  -----------------
         C            2.522404744510    -0.087397036534     0.187008682619    12.000000000000
         O            1.234404744510    -0.156397036534     0.792008682619    15.994914619570
         H            1.337404744510    -0.152397036534     1.754008682619     1.007825032230
         H            3.089404744510     0.727602963466     0.631008682619     1.007825032230
         H            3.062884744510    -1.031087036534     0.352318682619     1.007825032230
         H            2.421464744510     0.110182963466    -0.890381317381     1.007825032230
         C           -2.285595255490     0.803602963466    -0.534991317381    12.000000000000
         N           -1.507595255490    -0.485397036534    -0.514991317381    14.003074004430
         H           -1.373595255490    -0.849397036534    -1.451991317381     1.007825032230
         H           -0.592595255490    -0.372397036534    -0.076991317381     1.007825032230
         H           -2.024595255490    -1.201397036534     0.005008682619     1.007825032230
         H           -1.755595255490     1.509602963466    -1.185991317381     1.007825032230
         H           -2.302595255490     1.220602963466     0.479008682619     1.007825032230
         H           -3.325675255490     0.737352963466    -0.886911317381     1.007825032230

  Running in c1 symmetry.

  Rotational constants: A =      0.54605  B =      0.06093  C =      0.05992 [cm^-1]
  Rotational constants: A =  16370.07369  B =   1826.56183  C =   1796.36230 [MHz]
  Nuclear repulsion =  133.930907196111292

  Charge       = 1
  Multiplicity = 1
  Electrons    = 36
  Nalpha       = 18
  Nbeta        = 18

  ==> Algorithm <==

  SCF Algorithm Type is PK.
  DIIS enabled.
  MOM disabled.
  Fractional occupation disabled.
  Guess Type is SAD.
  Energy threshold   = 1.00e-06
  Density threshold  = 1.00e-10
  Integral threshold = 0.00e+00

  ==> Primary Basis <==

  Basis Set: CC-PVDZ
    Blend: CC-PVDZ
    Number of shells: 54
    Number of basis function: 106
    Number of Cartesian functions: 110
    Spherical Harmonics?: true
    Max angular momentum: 2

  ==> Pre-Iterations <==

   -------------------------------------------------------
    Irrep   Nso     Nmo     Nalpha   Nbeta   Ndocc  Nsocc
   -------------------------------------------------------
     A        106     106       0       0       0       0
   -------------------------------------------------------
    Total     106     106      18      18      18       0
   -------------------------------------------------------

  ==> Integral Setup <==

  Using in-core PK algorithm.
   Calculation information:
      Number of atoms:                  14
      Number of AO shells:              54
      Number of primitives:            138
      Number of atomic orbitals:       110
      Number of basis functions:       106

      Integral cutoff                 1.00e-12
      Number of threads:                 1

  Performing in-core PK
  Using 32165912 doubles for integral storage.
  We computed 916556 shell quartets total.
  Whereas there are 1103355 unique shell quartets.

  ==> DiskJK: Disk-Based J/K Matrices <==

    J tasked:                  Yes
    K tasked:                  Yes
    wK tasked:                  No
    Memory [MiB]:              375
    Schwarz Cutoff:          1E-12

    OpenMP threads:              1

  Minimum eigenvalue in the overlap matrix is 1.1610619466E-02.
  Using Symmetric Orthogonalization.

  SCF Guess: Superposition of Atomic Densities via on-the-fly atomic UHF.

  ==> Iterations <==

                        Total Energy        Delta E     RMS |[F,P]|

   @RHF iter SAD:  -209.85564079490959   -2.09856e+02   0.00000e+00
   @RHF iter   1:  -210.55407840415080   -6.98438e-01   3.97736e-03 DIIS
   @RHF iter   2:  -210.64777931107204   -9.37009e-02   1.67754e-03 DIIS
   @RHF iter   3:  -210.66080337087084   -1.30241e-02   5.08272e-04 DIIS
   @RHF iter   4:  -210.66254211109938   -1.73874e-03   9.60782e-05 DIIS
   @RHF iter   5:  -210.66261104851642   -6.89374e-05   2.64243e-05 DIIS
   @RHF iter   6:  -210.66261688775040   -5.83923e-06   5.06733e-06 DIIS
   @RHF iter   7:  -210.66261722507272   -3.37322e-07   1.27489e-06 DIIS
   @RHF iter   8:  -210.66261724658904   -2.15163e-08   4.40708e-07 DIIS
   @RHF iter   9:  -210.66261724816508   -1.57604e-09   9.26559e-08 DIIS
   @RHF iter  10:  -210.66261724824787   -8.27924e-11   1.55958e-08 DIIS
   @RHF iter  11:  -210.66261724825031   -2.44427e-12   4.00962e-09 DIIS
   @RHF iter  12:  -210.66261724825068   -3.69482e-13   9.54836e-10 DIIS
   @RHF iter  13:  -210.66261724825040    2.84217e-13   2.19641e-10 DIIS
   @RHF iter  14:  -210.66261724825034    5.68434e-14   7.33666e-11 DIIS
  Energy and wave function converged.

  ==> Post-Iterations <==

    Orbital Energies [Eh]
    ---------------------

    Doubly Occupied:

       1A    -20.712026     2A    -15.887737     3A    -11.478897
       4A    -11.409837     5A     -1.506940     6A     -1.497980
       7A     -1.149895     8A     -1.058090     9A     -0.959381
      10A     -0.956065    11A     -0.847352    12A     -0.830796
      13A     -0.756417    14A     -0.752397    15A     -0.751005
      16A     -0.735696    17A     -0.643259    18A     -0.592714

    Virtual:

      19A     -0.035375    20A      0.030561    21A      0.036028
      22A      0.047347    23A      0.082623    24A      0.087935
      25A      0.103425    26A      0.125967    27A      0.147970
      28A      0.153116    29A      0.186550    30A      0.243201
      31A      0.377064    32A      0.382018    33A      0.436382
      34A      0.486502    35A      0.510193    36A      0.517107
      37A      0.568074    38A      0.594435    39A      0.641022
      40A      0.660477    41A      0.667870    42A      0.683664
      43A      0.705675    44A      0.736361    45A      0.761014
      46A      0.773136    47A      0.775876    48A      0.793884
      49A      0.862784    50A      0.922649    51A      0.937517
      52A      1.000700    53A      1.007849    54A      1.041295
      55A      1.072022    56A      1.173042    57A      1.208678
      58A      1.263829    59A      1.284935    60A      1.391095
      61A      1.446219    62A      1.473296    63A      1.482787
      64A      1.535906    65A      1.545557    66A      1.624115
      67A      1.692668    68A      1.693616    69A      1.705102
      70A      1.724805    71A      1.732037    72A      1.748376
      73A      1.759220    74A      1.794341    75A      1.824802
      76A      1.881691    77A      1.917178    78A      1.933757
      79A      1.946909    80A      1.984210    81A      2.008233
      82A      2.096354    83A      2.148842    84A      2.158072
      85A      2.223507    86A      2.238757    87A      2.245779
      88A      2.273554    89A      2.370591    90A      2.396067
      91A      2.466043    92A      2.496808    93A      2.532994
      94A      2.611161    95A      2.624506    96A      2.641553
      97A      2.717879    98A      2.748520    99A      2.768404
     100A      3.085908   101A      3.093263   102A      3.133119
     103A      3.224758   104A      3.291398   105A      3.433061
     106A      3.931237

    Final Occupation by Irrep:
              A
    DOCC [    18 ]

  @RHF Final Energy:  -210.66261724825034

   => Energetics <=

    Nuclear Repulsion Energy =            133.9309071961112920
    One-Electron Energy =                -544.1340798690201837
    Two-Electron Energy =                 199.5405554246585211
    Total Energy =                       -210.6626172482503421

Computation Completed

Properties will be evaluated at   0.000000,   0.000000,   0.000000 [a0]

Properties computed using the SCF density matrix

  Nuclear Dipole Moment: [e a0]
     X:    -1.3617      Y:     0.6556      Z:    -1.1861

  Electronic Dipole Moment: [e a0]
     X:    -0.5789      Y:    -1.1101      Z:     0.7062

  Dipole Moment: [e a0]
     X:    -1.9406      Y:    -0.4545      Z:    -0.4800     Total:     2.0501

  Dipole Moment: [D]
     X:    -4.9325      Y:    -1.1551      Z:    -1.2200     Total:     5.2108

*** tstop() called on ds3 at Tue Apr 28 09:37:41 2020
Module time:
	user time   =       6.11 seconds =       0.10 minutes
	system time =       0.10 seconds =       0.00 minutes
	total time  =          6 seconds =       0.10 minutes
Total time:
	user time   =       6.11 seconds =       0.10 minutes
	system time =       0.10 seconds =       0.00 minutes
	total time  =          6 seconds =       0.10 minutes
                                     G D M A

                                 by Anthony Stone

                           version 2.2.06, 22 June 2011

               Distributed Multipoles from Gaussian wavefunctions

Starting at 9:37:41 on 28 Apr 2020

Using SCF density matrix from file ./SSI/SSI-060THR-087LYS-1-dimer.test.10943.fchk

                         Distributed Multipole Analysis

Standard DMA

Positions and radii in angstrom
Multipole moments in atomic units, ea_0^k for rank k

C          x =  2.522405  y = -0.087397  z =  0.187009 angstrom
           Maximum rank =  0   Radius =  0.650 angstrom
                   Q00  =  -0.069305

O          x =  1.234405  y = -0.156397  z =  0.792009 angstrom
           Maximum rank =  0   Radius =  0.650 angstrom
                   Q00  =  -0.665194

H          x =  1.337405  y = -0.152397  z =  1.754009 angstrom
           Maximum rank =  0   Radius =  0.325 angstrom
                   Q00  =   0.422811

H          x =  3.089405  y =  0.727603  z =  0.631009 angstrom
           Maximum rank =  0   Radius =  0.325 angstrom
                   Q00  =   0.109206

H          x =  3.062885  y = -1.031087  z =  0.352319 angstrom
           Maximum rank =  0   Radius =  0.325 angstrom
                   Q00  =   0.105330

H          x =  2.421465  y =  0.110183  z = -0.890381 angstrom
           Maximum rank =  0   Radius =  0.325 angstrom
                   Q00  =   0.117213

C          x = -2.285595  y =  0.803603  z = -0.534991 angstrom
           Maximum rank =  0   Radius =  0.650 angstrom
                   Q00  =  -0.154359

N          x = -1.507595  y = -0.485397  z = -0.514991 angstrom
           Maximum rank =  0   Radius =  0.650 angstrom
                   Q00  =  -0.143757

H          x = -1.373595  y = -0.849397  z = -1.451991 angstrom
           Maximum rank =  0   Radius =  0.325 angstrom
                   Q00  =   0.250807

H          x = -0.592595  y = -0.372397  z = -0.076991 angstrom
           Maximum rank =  0   Radius =  0.325 angstrom
                   Q00  =   0.291750

H          x = -2.024595  y = -1.201397  z =  0.005009 angstrom
           Maximum rank =  0   Radius =  0.325 angstrom
                   Q00  =   0.251407

H          x = -1.755595  y =  1.509603  z = -1.185991 angstrom
           Maximum rank =  0   Radius =  0.325 angstrom
                   Q00  =   0.158629

H          x = -2.302595  y =  1.220603  z =  0.479009 angstrom
           Maximum rank =  0   Radius =  0.325 angstrom
                   Q00  =   0.159739

H          x = -3.325675  y =  0.737353  z = -0.886911 angstrom
           Maximum rank =  0   Radius =  0.325 angstrom
                   Q00  =   0.165722

Total multipoles referred to origin at
           x =   0.000000,  y =    0.000000,  z =    0.000000 angstrom
                   Q00  =   1.000000

Finished at 9:37:41 on 28 Apr 2020

  DMA results are available in the Python driver through the
	  variable('DMA DISTRIBUTED MULTIPOLES')
  and
	  variable('DMA TOTAL MULTIPOLES')
  commands.

    Psi4 stopped on: Tuesday, 28 April 2020 09:37AM
    Psi4 wall time for execution: 0:00:06.47

*** Psi4 exiting successfully. Buy a developer a beer!
