                               Psi4 1.3.2 release

  ==> Input File <==

--------------------------------------------------------------------------
import numpy as np
set {scf_type pk
basis cc-pvdz
d_convergence 10
gdma_switch   0
gdma_limit    0
gdma_origin   [ 0.0,  0.0,  0.0 ]
}
molecule test {
    units Angstrom
    0 1
    --
    0 1
    C                0.087050708746887     0.720590506396862    -0.272784790168391
    C                0.232050708746887     1.980590506396861    -1.068784790168391
    C                1.287050708746887     0.192590506396862    -2.315784790168391
    C               -0.342949291253113    -2.071409493603138     0.292215209831609
    C                0.403050708746887    -1.649409493603138    -0.962784790168391
    O                0.834050708746887    -2.513409493603138    -1.733784790168391
    N                0.572050708746887    -0.335409493603138    -1.159784790168391
    H                0.702050708746887     0.775590506396862     0.621215209831609
    H               -0.966949291253113     0.599590506396862    -0.020784790168391
    H                0.641050708746887     2.780590506396862    -0.450784790168391
    H               -0.752949291253113     2.280590506396862    -1.431784790168391
    H                0.839050708746887    -0.188409493603138    -3.235784790168390
    H               -0.913949291253113    -1.248409493603138     0.714215209831609
    H                0.882680708746887     1.779259506396861    -1.932584790168391
    H                1.160370708746887     1.283753506396861    -2.258204790168390
    H                2.358280708746888    -0.054283493603138    -2.276804790168391
    H               -1.057779291253113    -2.857121693603138     0.006435209831609
    H                0.380460708746887    -2.423765993603138     1.042235209831609
    C               -1.737949291253113     1.779590506396862     2.785215209831609
    C               -1.232949291253113     1.682590506396862     4.217215209831609
    H               -2.657949291253113     2.367590506396862     2.758215209831609
    H               -0.989949291253113     2.273590506396862     2.162215209831610
    H               -1.941949291253113     0.783590506396862     2.388215209831610
    H               -1.040949291253113     2.687590506396862     4.594215209831609
    H               -0.292959291253113     1.112098506396862     4.248195209831609
    H               -1.999639291253113     1.222000506396862     4.857565209831609

}
e, wfn = energy('scf', return_wfn=True)
gdma(wfn)
dmavals = variable('DMA DISTRIBUTED MULTIPOLES')
charges = np.array(dmavals)
print(charges)
np.save('SSI-003PRO-025ALA-1-dimer.npy', np.array(charges))--------------------------------------------------------------------------

*** tstart() called on ds3
*** at Mon Apr 27 06:45:44 2020

   => Loading Basis Set <=

    Name: CC-PVDZ
    Role: ORBITAL
    Keyword: BASIS
    atoms 1-5, 19-20  entry C          line   138 file /theoryfs2/ds/metcalf/miniconda2/envs/tf2gpu/share/psi4/basis/cc-pvdz.gbs
    atoms 6           entry O          line   198 file /theoryfs2/ds/metcalf/miniconda2/envs/tf2gpu/share/psi4/basis/cc-pvdz.gbs
    atoms 7           entry N          line   168 file /theoryfs2/ds/metcalf/miniconda2/envs/tf2gpu/share/psi4/basis/cc-pvdz.gbs
    atoms 8-18, 21-26 entry H          line    22 file /theoryfs2/ds/metcalf/miniconda2/envs/tf2gpu/share/psi4/basis/cc-pvdz.gbs

         ---------------------------------------------------------
                                   SCF
               by Justin Turney, Rob Parrish, Andy Simmonett
                          and Daniel G. A. Smith
                              RHF Reference
                        1 Threads,    500 MiB Core
         ---------------------------------------------------------

  ==> Geometry <==

    Molecular point group: c1
    Full point group: C1

    Geometry (in Angstrom), charge = 0, multiplicity = 1:

       Center              X                  Y                   Z               Mass
    ------------   -----------------  -----------------  -----------------  -----------------
         C            0.087050708747     0.720590506397    -0.272784790168    12.000000000000
         C            0.232050708747     1.980590506397    -1.068784790168    12.000000000000
         C            1.287050708747     0.192590506397    -2.315784790168    12.000000000000
         C           -0.342949291253    -2.071409493603     0.292215209832    12.000000000000
         C            0.403050708747    -1.649409493603    -0.962784790168    12.000000000000
         O            0.834050708747    -2.513409493603    -1.733784790168    15.994914619570
         N            0.572050708747    -0.335409493603    -1.159784790168    14.003074004430
         H            0.702050708747     0.775590506397     0.621215209832     1.007825032230
         H           -0.966949291253     0.599590506397    -0.020784790168     1.007825032230
         H            0.641050708747     2.780590506397    -0.450784790168     1.007825032230
         H           -0.752949291253     2.280590506397    -1.431784790168     1.007825032230
         H            0.839050708747    -0.188409493603    -3.235784790168     1.007825032230
         H           -0.913949291253    -1.248409493603     0.714215209832     1.007825032230
         H            0.882680708747     1.779259506397    -1.932584790168     1.007825032230
         H            1.160370708747     1.283753506397    -2.258204790168     1.007825032230
         H            2.358280708747    -0.054283493603    -2.276804790168     1.007825032230
         H           -1.057779291253    -2.857121693603     0.006435209832     1.007825032230
         H            0.380460708747    -2.423765993603     1.042235209832     1.007825032230
         C           -1.737949291253     1.779590506397     2.785215209832    12.000000000000
         C           -1.232949291253     1.682590506397     4.217215209832    12.000000000000
         H           -2.657949291253     2.367590506397     2.758215209832     1.007825032230
         H           -0.989949291253     2.273590506397     2.162215209832     1.007825032230
         H           -1.941949291253     0.783590506397     2.388215209832     1.007825032230
         H           -1.040949291253     2.687590506397     4.594215209832     1.007825032230
         H           -0.292959291253     1.112098506397     4.248195209832     1.007825032230
         H           -1.999639291253     1.222000506397     4.857565209832     1.007825032230

  Running in c1 symmetry.

  Rotational constants: A =      0.06572  B =      0.02026  C =      0.01610 [cm^-1]
  Rotational constants: A =   1970.33536  B =    607.38020  C =    482.73687 [MHz]
  Nuclear repulsion =  468.901900475079913

  Charge       = 0
  Multiplicity = 1
  Electrons    = 74
  Nalpha       = 37
  Nbeta        = 37

  ==> Algorithm <==

  SCF Algorithm Type is PK.
  DIIS enabled.
  MOM disabled.
  Fractional occupation disabled.
  Guess Type is SAD.
  Energy threshold   = 1.00e-06
  Density threshold  = 1.00e-10
  Integral threshold = 0.00e+00

  ==> Primary Basis <==

  Basis Set: CC-PVDZ
    Blend: CC-PVDZ
    Number of shells: 105
    Number of basis function: 211
    Number of Cartesian functions: 220
    Spherical Harmonics?: true
    Max angular momentum: 2

  ==> Pre-Iterations <==

   -------------------------------------------------------
    Irrep   Nso     Nmo     Nalpha   Nbeta   Ndocc  Nsocc
   -------------------------------------------------------
     A        211     211       0       0       0       0
   -------------------------------------------------------
    Total     211     211      37      37      37       0
   -------------------------------------------------------

  ==> Integral Setup <==

  Using integral reordering PK algorithm.
  Sizing the integral batches needed.
  Building batch lookup table.
   Calculation information:
      Number of atoms:                  26
      Number of AO shells:             105
      Number of primitives:            283
      Number of atomic orbitals:       220
      Number of basis functions:       211

      Integral cutoff                 1.00e-12
      Number of threads:                 1

	Batch   1 pq = [       0,    9405] index = [             0,44231715] size =     44231715
	Batch   2 pq = [    9405,   13301] index = [      44231715,88464951] size =     44233236
	Batch   3 pq = [   13301,   16290] index = [      88464951,132690195] size =     44225244
	Batch   4 pq = [   16290,   18810] index = [     132690195,176917455] size =     44227260
	Batch   5 pq = [   18810,   21030] index = [     176917455,221140965] size =     44223510
	Batch   6 pq = [   21030,   22366] index = [     221140965,250130161] size =     28989196
  Task number: 23
  Buffer size: 11059200
  Buffer per thread: 2
  We computed 13110219 shell quartets total.
  Whereas there are 15487395 unique shell quartets.

  ==> DiskJK: Disk-Based J/K Matrices <==

    J tasked:                  Yes
    K tasked:                  Yes
    wK tasked:                  No
    Memory [MiB]:              375
    Schwarz Cutoff:          1E-12

    OpenMP threads:              1

  Minimum eigenvalue in the overlap matrix is 1.2550005316E-03.
  Using Symmetric Orthogonalization.

  SCF Guess: Superposition of Atomic Densities via on-the-fly atomic UHF.

  ==> Iterations <==

                        Total Energy        Delta E     RMS |[F,P]|

   @RHF iter SAD:  -403.43789401236597   -4.03438e+02   0.00000e+00
   @RHF iter   1:  -403.81802051968737   -3.80127e-01   3.34313e-03 DIIS
   @RHF iter   2:  -404.04684420425338   -2.28824e-01   1.85633e-03 DIIS
   @RHF iter   3:  -404.10738413902135   -6.05399e-02   4.43277e-04 DIIS
   @RHF iter   4:  -404.11265326302674   -5.26912e-03   1.73983e-04 DIIS
   @RHF iter   5:  -404.11351133269096   -8.58070e-04   3.02973e-05 DIIS
   @RHF iter   6:  -404.11356373305370   -5.24004e-05   1.52969e-05 DIIS
   @RHF iter   7:  -404.11357411514052   -1.03821e-05   5.59175e-06 DIIS
   @RHF iter   8:  -404.11357627456391   -2.15942e-06   2.21036e-06 DIIS
   @RHF iter   9:  -404.11357660204851   -3.27485e-07   6.00484e-07 DIIS
   @RHF iter  10:  -404.11357662165187   -1.96034e-08   1.72557e-07 DIIS
   @RHF iter  11:  -404.11357662329635   -1.64448e-09   5.22763e-08 DIIS
   @RHF iter  12:  -404.11357662343050   -1.34150e-10   1.65770e-08 DIIS
   @RHF iter  13:  -404.11357662344705   -1.65414e-11   5.00107e-09 DIIS
   @RHF iter  14:  -404.11357662344767   -6.25278e-13   1.26429e-09 DIIS
   @RHF iter  15:  -404.11357662344653    1.13687e-12   3.40773e-10 DIIS
   @RHF iter  16:  -404.11357662344585    6.82121e-13   1.47032e-10 DIIS
   @RHF iter  17:  -404.11357662344983   -3.97904e-12   4.13738e-11 DIIS
  Energy and wave function converged.

  ==> Post-Iterations <==

    Orbital Energies [Eh]
    ---------------------

    Doubly Occupied:

       1A    -20.495323     2A    -15.583035     3A    -11.338755
       4A    -11.275558     5A    -11.244976     6A    -11.234314
       7A    -11.228556     8A    -11.227755     9A    -11.220187
      10A     -1.357300    11A     -1.255626    12A     -1.071457
      13A     -1.030379    14A     -1.010408    15A     -0.970981
      16A     -0.856525    17A     -0.845606    18A     -0.758253
      19A     -0.728368    20A     -0.677077    21A     -0.654505
      22A     -0.615326    23A     -0.609399    24A     -0.608403
      25A     -0.600725    26A     -0.577467    27A     -0.544582
      28A     -0.534258    29A     -0.530342    30A     -0.521556
      31A     -0.510291    32A     -0.495957    33A     -0.494166
      34A     -0.482367    35A     -0.399542    36A     -0.393978
      37A     -0.362443

    Virtual:

      38A      0.152945    39A      0.176360    40A      0.185288
      41A      0.197096    42A      0.210957    43A      0.223258
      44A      0.234092    45A      0.238397    46A      0.247994
      47A      0.258468    48A      0.262570    49A      0.270041
      50A      0.278829    51A      0.292048    52A      0.297117
      53A      0.321752    54A      0.343925    55A      0.355816
      56A      0.366290    57A      0.391745    58A      0.407404
      59A      0.419776    60A      0.452489    61A      0.509042
      62A      0.528869    63A      0.539787    64A      0.568599
      65A      0.588661    66A      0.597410    67A      0.607111
      68A      0.627051    69A      0.639982    70A      0.661133
      71A      0.675031    72A      0.687286    73A      0.693818
      74A      0.704138    75A      0.731932    76A      0.745077
      77A      0.788044    78A      0.794166    79A      0.832569
      80A      0.847668    81A      0.851363    82A      0.857748
      83A      0.863292    84A      0.875153    85A      0.880023
      86A      0.884370    87A      0.885621    88A      0.891016
      89A      0.898707    90A      0.903104    91A      0.910752
      92A      0.919017    93A      0.930397    94A      0.942275
      95A      0.954445    96A      0.959053    97A      0.985404
      98A      0.994915    99A      1.015413   100A      1.049049
     101A      1.060733   102A      1.079353   103A      1.106179
     104A      1.120293   105A      1.137470   106A      1.165553
     107A      1.181249   108A      1.230363   109A      1.253879
     110A      1.264027   111A      1.360226   112A      1.393882
     113A      1.403521   114A      1.441392   115A      1.444113
     116A      1.468399   117A      1.474893   118A      1.480988
     119A      1.518483   120A      1.526505   121A      1.542812
     122A      1.562597   123A      1.593106   124A      1.600342
     125A      1.622963   126A      1.632046   127A      1.671529
     128A      1.680708   129A      1.686169   130A      1.698598
     131A      1.764042   132A      1.784660   133A      1.810299
     134A      1.828653   135A      1.836515   136A      1.850650
     137A      1.869692   138A      1.875789   139A      1.887084
     140A      1.897303   141A      1.908299   142A      1.916654
     143A      1.926027   144A      1.935753   145A      1.939919
     146A      1.945593   147A      1.952420   148A      1.954564
     149A      1.959377   150A      1.960696   151A      1.998166
     152A      2.005412   153A      2.042958   154A      2.052159
     155A      2.079477   156A      2.084135   157A      2.089172
     158A      2.101925   159A      2.116880   160A      2.128020
     161A      2.141061   162A      2.206240   163A      2.225636
     164A      2.233431   165A      2.271128   166A      2.285414
     167A      2.293751   168A      2.301451   169A      2.314958
     170A      2.354689   171A      2.369793   172A      2.395627
     173A      2.445436   174A      2.452279   175A      2.468473
     176A      2.482221   177A      2.510036   178A      2.518897
     179A      2.554405   180A      2.559141   181A      2.583602
     182A      2.604094   183A      2.612208   184A      2.676805
     185A      2.749547   186A      2.753982   187A      2.764781
     188A      2.775526   189A      2.791812   190A      2.798841
     191A      2.806310   192A      2.827688   193A      2.838278
     194A      2.843662   195A      2.850215   196A      2.872310
     197A      2.929338   198A      2.947921   199A      2.975285
     200A      3.011337   201A      3.017946   202A      3.061914
     203A      3.098892   204A      3.170689   205A      3.236917
     206A      3.343374   207A      3.393164   208A      3.523730
     209A      3.828365   210A      3.906454   211A      5.165784

    Final Occupation by Irrep:
              A
    DOCC [    37 ]

  @RHF Final Energy:  -404.11357662344983

   => Energetics <=

    Nuclear Repulsion Energy =            468.9019004750799127
    One-Electron Energy =               -1477.3394592939130234
    Two-Electron Energy =                 604.3239821953833371
    Total Energy =                       -404.1135766234498305

Computation Completed

Properties will be evaluated at   0.000000,   0.000000,   0.000000 [a0]

Properties computed using the SCF density matrix

  Nuclear Dipole Moment: [e a0]
     X:    -5.2954      Y:    12.3390      Z:    11.0440

  Electronic Dipole Moment: [e a0]
     X:     4.8460      Y:   -10.7103      Z:   -10.2535

  Dipole Moment: [e a0]
     X:    -0.4494      Y:     1.6287      Z:     0.7905     Total:     1.8653

  Dipole Moment: [D]
     X:    -1.1423      Y:     4.1397      Z:     2.0093     Total:     4.7412

*** tstop() called on ds3 at Mon Apr 27 06:47:42 2020
Module time:
	user time   =      84.95 seconds =       1.42 minutes
	system time =      37.07 seconds =       0.62 minutes
	total time  =        118 seconds =       1.97 minutes
Total time:
	user time   =      84.95 seconds =       1.42 minutes
	system time =      37.07 seconds =       0.62 minutes
	total time  =        118 seconds =       1.97 minutes
                                     G D M A

                                 by Anthony Stone

                           version 2.2.06, 22 June 2011

               Distributed Multipoles from Gaussian wavefunctions

Starting at 6:47:42 on 27 Apr 2020

Using SCF density matrix from file ./SSI/SSI-003PRO-025ALA-1-dimer.test.6789.fchk

                         Distributed Multipole Analysis

Standard DMA

Positions and radii in angstrom
Multipole moments in atomic units, ea_0^k for rank k

C          x =  0.087051  y =  0.720591  z = -0.272785 angstrom
           Maximum rank =  0   Radius =  0.650 angstrom
                   Q00  =   0.024662

C          x =  0.232051  y =  1.980591  z = -1.068785 angstrom
           Maximum rank =  0   Radius =  0.650 angstrom
                   Q00  =  -0.264488

C          x =  1.287051  y =  0.192591  z = -2.315785 angstrom
           Maximum rank =  0   Radius =  0.650 angstrom
                   Q00  =  -0.099430

C          x = -0.342949  y = -2.071409  z =  0.292215 angstrom
           Maximum rank =  0   Radius =  0.650 angstrom
                   Q00  =  -0.265891

C          x =  0.403051  y = -1.649409  z = -0.962785 angstrom
           Maximum rank =  0   Radius =  0.650 angstrom
                   Q00  =   0.749467

O          x =  0.834051  y = -2.513409  z = -1.733785 angstrom
           Maximum rank =  0   Radius =  0.650 angstrom
                   Q00  =  -0.785890

N          x =  0.572051  y = -0.335409  z = -1.159785 angstrom
           Maximum rank =  0   Radius =  0.650 angstrom
                   Q00  =  -0.457304

H          x =  0.702051  y =  0.775591  z =  0.621215 angstrom
           Maximum rank =  0   Radius =  0.325 angstrom
                   Q00  =   0.061072

H          x = -0.966949  y =  0.599591  z = -0.020785 angstrom
           Maximum rank =  0   Radius =  0.325 angstrom
                   Q00  =   0.083368

H          x =  0.641051  y =  2.780591  z = -0.450785 angstrom
           Maximum rank =  0   Radius =  0.325 angstrom
                   Q00  =   0.095323

H          x = -0.752949  y =  2.280591  z = -1.431785 angstrom
           Maximum rank =  0   Radius =  0.325 angstrom
                   Q00  =   0.095185

H          x =  0.839051  y = -0.188409  z = -3.235785 angstrom
           Maximum rank =  0   Radius =  0.325 angstrom
                   Q00  =   0.111472

H          x = -0.913949  y = -1.248409  z =  0.714215 angstrom
           Maximum rank =  0   Radius =  0.325 angstrom
                   Q00  =   0.080728

H          x =  0.882681  y =  1.779260  z = -1.932585 angstrom
           Maximum rank =  0   Radius =  0.325 angstrom
                   Q00  =   0.119343

H          x =  1.160371  y =  1.283754  z = -2.258205 angstrom
           Maximum rank =  0   Radius =  0.325 angstrom
                   Q00  =   0.100762

H          x =  2.358281  y = -0.054283  z = -2.276805 angstrom
           Maximum rank =  0   Radius =  0.325 angstrom
                   Q00  =   0.095271

H          x = -1.057779  y = -2.857122  z =  0.006435 angstrom
           Maximum rank =  0   Radius =  0.325 angstrom
                   Q00  =   0.128404

H          x =  0.380461  y = -2.423766  z =  1.042235 angstrom
           Maximum rank =  0   Radius =  0.325 angstrom
                   Q00  =   0.129968

C          x = -1.737949  y =  1.779591  z =  2.785215 angstrom
           Maximum rank =  0   Radius =  0.650 angstrom
                   Q00  =  -0.232710

C          x = -1.232949  y =  1.682591  z =  4.217215 angstrom
           Maximum rank =  0   Radius =  0.650 angstrom
                   Q00  =  -0.242905

H          x = -2.657949  y =  2.367591  z =  2.758215 angstrom
           Maximum rank =  0   Radius =  0.325 angstrom
                   Q00  =   0.082699

H          x = -0.989949  y =  2.273591  z =  2.162215 angstrom
           Maximum rank =  0   Radius =  0.325 angstrom
                   Q00  =   0.075960

H          x = -1.941949  y =  0.783591  z =  2.388215 angstrom
           Maximum rank =  0   Radius =  0.325 angstrom
                   Q00  =   0.074769

H          x = -1.040949  y =  2.687591  z =  4.594215 angstrom
           Maximum rank =  0   Radius =  0.325 angstrom
                   Q00  =   0.080389

H          x = -0.292959  y =  1.112099  z =  4.248195 angstrom
           Maximum rank =  0   Radius =  0.325 angstrom
                   Q00  =   0.077912

H          x = -1.999639  y =  1.222001  z =  4.857565 angstrom
           Maximum rank =  0   Radius =  0.325 angstrom
                   Q00  =   0.081863

Total multipoles referred to origin at
           x =   0.000000,  y =    0.000000,  z =    0.000000 angstrom
                   Q00  =  -0.000000

Finished at 6:47:42 on 27 Apr 2020

  DMA results are available in the Python driver through the
	  variable('DMA DISTRIBUTED MULTIPOLES')
  and
	  variable('DMA TOTAL MULTIPOLES')
  commands.

    Psi4 stopped on: Monday, 27 April 2020 06:47AM
    Psi4 wall time for execution: 0:01:57.78

*** Psi4 exiting successfully. Buy a developer a beer!
