                               Psi4 1.3.2 release

  ==> Input File <==

--------------------------------------------------------------------------
import numpy as np
set {scf_type pk
basis cc-pvdz
d_convergence 10
gdma_switch   0
gdma_limit    0
gdma_origin   [ 0.0,  0.0,  0.0 ]
}
molecule test {
    units Angstrom
    0 1
    --
    0 1
    C                0.956572655353775    -1.299934896772175    -1.853425270420517
    C                2.363572655353775    -0.740934896772175    -2.120425270420517
    H                0.918572655353775    -1.758934896772175    -0.864425270420517
    H                0.226572655353775    -0.492934896772175    -1.909425270420517
    H                0.711572655353775    -2.046934896772175    -2.605425270420517
    H                2.313572655353775    -0.250934896772175    -3.089425270420517
    H                3.081322655353775    -1.569824196772175    -2.208615270420517
    H                2.635962655353775     0.033187103227825    -1.387935270420517
    C               -0.830427344646225     0.482065103227825     1.011574729579483
    C               -1.379427344646225    -0.392934896772175     2.152574729579483
    C               -1.167427344646225     1.990065103227825     0.901574729579483
    H                0.256572655353775     0.383065103227825     1.015574729579483
    H               -1.168427344646225     0.020065103227825     0.082574729579483
    H               -2.441427344646225    -0.186934896772175     2.277574729579483
    H               -0.902427344646225     2.515065103227826     1.818574729579483
    H               -0.851097344646225    -0.142190896772175     3.084234729579483
    H               -1.248757344646225    -1.466825396772175     1.953364729579483
    H               -0.610517344646225     2.407220103227825     0.049614729579483
    H               -2.241177344646225     2.100577103227825     0.689814729579483

}
e, wfn = energy('scf', return_wfn=True)
gdma(wfn)
dmavals = variable('DMA DISTRIBUTED MULTIPOLES')
charges = np.array(dmavals)
print(charges)
np.save('SSI-031LEU-168LEU-1-dimer.npy', np.array(charges))--------------------------------------------------------------------------

*** tstart() called on ds3
*** at Tue Apr 28 14:30:05 2020

   => Loading Basis Set <=

    Name: CC-PVDZ
    Role: ORBITAL
    Keyword: BASIS
    atoms 1-2, 9-11  entry C          line   138 file /theoryfs2/ds/metcalf/miniconda2/envs/tf2gpu/share/psi4/basis/cc-pvdz.gbs
    atoms 3-8, 12-19 entry H          line    22 file /theoryfs2/ds/metcalf/miniconda2/envs/tf2gpu/share/psi4/basis/cc-pvdz.gbs

         ---------------------------------------------------------
                                   SCF
               by Justin Turney, Rob Parrish, Andy Simmonett
                          and Daniel G. A. Smith
                              RHF Reference
                        1 Threads,    500 MiB Core
         ---------------------------------------------------------

  ==> Geometry <==

    Molecular point group: c1
    Full point group: C1

    Geometry (in Angstrom), charge = 0, multiplicity = 1:

       Center              X                  Y                   Z               Mass
    ------------   -----------------  -----------------  -----------------  -----------------
         C            0.956572655354    -1.299934896772    -1.853425270421    12.000000000000
         C            2.363572655354    -0.740934896772    -2.120425270421    12.000000000000
         H            0.918572655354    -1.758934896772    -0.864425270421     1.007825032230
         H            0.226572655354    -0.492934896772    -1.909425270421     1.007825032230
         H            0.711572655354    -2.046934896772    -2.605425270421     1.007825032230
         H            2.313572655354    -0.250934896772    -3.089425270421     1.007825032230
         H            3.081322655354    -1.569824196772    -2.208615270421     1.007825032230
         H            2.635962655354     0.033187103228    -1.387935270421     1.007825032230
         C           -0.830427344646     0.482065103228     1.011574729579    12.000000000000
         C           -1.379427344646    -0.392934896772     2.152574729579    12.000000000000
         C           -1.167427344646     1.990065103228     0.901574729579    12.000000000000
         H            0.256572655354     0.383065103228     1.015574729579     1.007825032230
         H           -1.168427344646     0.020065103228     0.082574729579     1.007825032230
         H           -2.441427344646    -0.186934896772     2.277574729579     1.007825032230
         H           -0.902427344646     2.515065103228     1.818574729579     1.007825032230
         H           -0.851097344646    -0.142190896772     3.084234729579     1.007825032230
         H           -1.248757344646    -1.466825396772     1.953364729579     1.007825032230
         H           -0.610517344646     2.407220103228     0.049614729579     1.007825032230
         H           -2.241177344646     2.100577103228     0.689814729579     1.007825032230

  Running in c1 symmetry.

  Rotational constants: A =      0.19717  B =      0.03935  C =      0.03509 [cm^-1]
  Rotational constants: A =   5911.07541  B =   1179.78551  C =   1051.91203 [MHz]
  Nuclear repulsion =  175.453630237076396

  Charge       = 0
  Multiplicity = 1
  Electrons    = 44
  Nalpha       = 22
  Nbeta        = 22

  ==> Algorithm <==

  SCF Algorithm Type is PK.
  DIIS enabled.
  MOM disabled.
  Fractional occupation disabled.
  Guess Type is SAD.
  Energy threshold   = 1.00e-06
  Density threshold  = 1.00e-10
  Integral threshold = 0.00e+00

  ==> Primary Basis <==

  Basis Set: CC-PVDZ
    Blend: CC-PVDZ
    Number of shells: 72
    Number of basis function: 140
    Number of Cartesian functions: 145
    Spherical Harmonics?: true
    Max angular momentum: 2

  ==> Pre-Iterations <==

   -------------------------------------------------------
    Irrep   Nso     Nmo     Nalpha   Nbeta   Ndocc  Nsocc
   -------------------------------------------------------
     A        140     140       0       0       0       0
   -------------------------------------------------------
    Total     140     140      22      22      22       0
   -------------------------------------------------------

  ==> Integral Setup <==

  Using integral reordering PK algorithm.
  Sizing the integral batches needed.
  Building batch lookup table.
   Calculation information:
      Number of atoms:                  19
      Number of AO shells:              72
      Number of primitives:            180
      Number of atomic orbitals:       145
      Number of basis functions:       140

      Integral cutoff                 1.00e-12
      Number of threads:                 1

	Batch   1 pq = [       0,    9405] index = [             0,44231715] size =     44231715
	Batch   2 pq = [    9405,    9870] index = [      44231715,48713385] size =      4481670
  Task number: 5
  Buffer size: 11059200
  Buffer per thread: 2
  We computed 2820619 shell quartets total.
  Whereas there are 3454506 unique shell quartets.

  ==> DiskJK: Disk-Based J/K Matrices <==

    J tasked:                  Yes
    K tasked:                  Yes
    wK tasked:                  No
    Memory [MiB]:              375
    Schwarz Cutoff:          1E-12

    OpenMP threads:              1

  Minimum eigenvalue in the overlap matrix is 5.8116578461E-03.
  Using Symmetric Orthogonalization.

  SCF Guess: Superposition of Atomic Densities via on-the-fly atomic UHF.

  ==> Iterations <==

                        Total Energy        Delta E     RMS |[F,P]|

   @RHF iter SAD:  -196.26957266311717   -1.96270e+02   0.00000e+00
   @RHF iter   1:  -197.31197014609390   -1.04240e+00   3.74394e-03 DIIS
   @RHF iter   2:  -197.46895337310832   -1.56983e-01   1.59288e-03 DIIS
   @RHF iter   3:  -197.49592709557839   -2.69737e-02   3.21985e-04 DIIS
   @RHF iter   4:  -197.49811691253197   -2.18982e-03   5.08521e-05 DIIS
   @RHF iter   5:  -197.49815809658543   -4.11841e-05   1.53723e-05 DIIS
   @RHF iter   6:  -197.49816179416160   -3.69758e-06   2.38325e-06 DIIS
   @RHF iter   7:  -197.49816190567751   -1.11516e-07   5.07928e-07 DIIS
   @RHF iter   8:  -197.49816191138933   -5.71183e-09   1.49452e-07 DIIS
   @RHF iter   9:  -197.49816191185482   -4.65491e-10   4.38300e-08 DIIS
   @RHF iter  10:  -197.49816191190195   -4.71232e-11   8.78077e-09 DIIS
   @RHF iter  11:  -197.49816191190405   -2.10321e-12   1.64918e-09 DIIS
   @RHF iter  12:  -197.49816191190354    5.11591e-13   3.26915e-10 DIIS
   @RHF iter  13:  -197.49816191190399   -4.54747e-13   7.28567e-11 DIIS
  Energy and wave function converged.

  ==> Post-Iterations <==

    Orbital Energies [Eh]
    ---------------------

    Doubly Occupied:

       1A    -11.221704     2A    -11.220232     3A    -11.219340
       4A    -11.219240     5A    -11.216304     6A     -1.044868
       7A     -1.016611     8A     -0.928393     9A     -0.836203
      10A     -0.793495    11A     -0.620881    12A     -0.602232
      13A     -0.594778    14A     -0.589093    15A     -0.548962
      16A     -0.537443    17A     -0.496238    18A     -0.492046
      19A     -0.481438    20A     -0.481121    21A     -0.462825
      22A     -0.454500

    Virtual:

      23A      0.164799    24A      0.193944    25A      0.211088
      26A      0.221881    27A      0.233019    28A      0.251872
      29A      0.260151    30A      0.261660    31A      0.274259
      32A      0.276809    33A      0.290461    34A      0.299861
      35A      0.316423    36A      0.347195    37A      0.367766
      38A      0.394590    39A      0.433563    40A      0.564298
      41A      0.580547    42A      0.597162    43A      0.606530
      44A      0.611228    45A      0.623995    46A      0.631321
      47A      0.645815    48A      0.676012    49A      0.775207
      50A      0.783337    51A      0.793273    52A      0.840621
      53A      0.859778    54A      0.872771    55A      0.885405
      56A      0.887407    57A      0.891156    58A      0.894782
      59A      0.898324    60A      0.901090    61A      0.908260
      62A      0.911203    63A      0.922574    64A      0.926399
      65A      0.960078    66A      0.978991    67A      0.982948
      68A      0.989799    69A      1.105639    70A      1.121430
      71A      1.131464    72A      1.158035    73A      1.212704
      74A      1.244028    75A      1.354841    76A      1.467995
      77A      1.474627    78A      1.478140    79A      1.487256
      80A      1.518389    81A      1.560399    82A      1.646755
      83A      1.667565    84A      1.675527    85A      1.679628
      86A      1.698221    87A      1.700278    88A      1.842752
      89A      1.852653    90A      1.861128    91A      1.867814
      92A      1.881665    93A      1.899876    94A      1.907245
      95A      1.917365    96A      1.931353    97A      1.935779
      98A      1.942776    99A      1.952169   100A      1.954946
     101A      1.973254   102A      1.980839   103A      1.988243
     104A      1.994967   105A      2.003294   106A      2.024157
     107A      2.035179   108A      2.086907   109A      2.113815
     110A      2.142440   111A      2.190430   112A      2.265916
     113A      2.282559   114A      2.287688   115A      2.308900
     116A      2.313665   117A      2.354690   118A      2.438204
     119A      2.474084   120A      2.490911   121A      2.528204
     122A      2.557820   123A      2.579827   124A      2.594867
     125A      2.607741   126A      2.628948   127A      2.747922
     128A      2.754545   129A      2.766382   130A      2.774438
     131A      2.795868   132A      2.799808   133A      2.832067
     134A      2.861346   135A      2.911039   136A      2.939606
     137A      2.941471   138A      2.956549   139A      2.975496
     140A      3.055609

    Final Occupation by Irrep:
              A
    DOCC [    22 ]

  @RHF Final Energy:  -197.49816191190399

   => Energetics <=

    Nuclear Repulsion Energy =            175.4536302370763963
    One-Electron Energy =                -611.7476846781437416
    Two-Electron Energy =                 238.7958925291633818
    Total Energy =                       -197.4981619119039919

Computation Completed

Properties will be evaluated at   0.000000,   0.000000,   0.000000 [a0]

Properties computed using the SCF density matrix

  Nuclear Dipole Moment: [e a0]
     X:     0.6378      Y:    -0.4278      Z:    -1.0255

  Electronic Dipole Moment: [e a0]
     X:    -0.6398      Y:     0.4174      Z:     0.9784

  Dipole Moment: [e a0]
     X:    -0.0020      Y:    -0.0104      Z:    -0.0472     Total:     0.0483

  Dipole Moment: [D]
     X:    -0.0051      Y:    -0.0265      Z:    -0.1199     Total:     0.1229

*** tstop() called on ds3 at Tue Apr 28 14:30:27 2020
Module time:
	user time   =      14.92 seconds =       0.25 minutes
	system time =       6.27 seconds =       0.10 minutes
	total time  =         22 seconds =       0.37 minutes
Total time:
	user time   =      14.92 seconds =       0.25 minutes
	system time =       6.27 seconds =       0.10 minutes
	total time  =         22 seconds =       0.37 minutes
                                     G D M A

                                 by Anthony Stone

                           version 2.2.06, 22 June 2011

               Distributed Multipoles from Gaussian wavefunctions

Starting at 14:30:27 on 28 Apr 2020

Using SCF density matrix from file ./SSI/SSI-031LEU-168LEU-1-dimer.test.26097.fchk

                         Distributed Multipole Analysis

Standard DMA

Positions and radii in angstrom
Multipole moments in atomic units, ea_0^k for rank k

C          x =  0.956573  y = -1.299935  z = -1.853425 angstrom
           Maximum rank =  0   Radius =  0.650 angstrom
                   Q00  =  -0.234884

C          x =  2.363573  y = -0.740935  z = -2.120425 angstrom
           Maximum rank =  0   Radius =  0.650 angstrom
                   Q00  =  -0.215869

H          x =  0.918573  y = -1.758935  z = -0.864425 angstrom
           Maximum rank =  0   Radius =  0.325 angstrom
                   Q00  =   0.078715

H          x =  0.226573  y = -0.492935  z = -1.909425 angstrom
           Maximum rank =  0   Radius =  0.325 angstrom
                   Q00  =   0.080178

H          x =  0.711573  y = -2.046935  z = -2.605425 angstrom
           Maximum rank =  0   Radius =  0.325 angstrom
                   Q00  =   0.079283

H          x =  2.313573  y = -0.250935  z = -3.089425 angstrom
           Maximum rank =  0   Radius =  0.325 angstrom
                   Q00  =   0.074102

H          x =  3.081323  y = -1.569824  z = -2.208615 angstrom
           Maximum rank =  0   Radius =  0.325 angstrom
                   Q00  =   0.068311

H          x =  2.635963  y =  0.033187  z = -1.387935 angstrom
           Maximum rank =  0   Radius =  0.325 angstrom
                   Q00  =   0.069866

C          x = -0.830427  y =  0.482065  z =  1.011575 angstrom
           Maximum rank =  0   Radius =  0.650 angstrom
                   Q00  =  -0.093782

C          x = -1.379427  y = -0.392935  z =  2.152575 angstrom
           Maximum rank =  0   Radius =  0.650 angstrom
                   Q00  =  -0.239204

C          x = -1.167427  y =  1.990065  z =  0.901575 angstrom
           Maximum rank =  0   Radius =  0.650 angstrom
                   Q00  =  -0.239465

H          x =  0.256573  y =  0.383065  z =  1.015575 angstrom
           Maximum rank =  0   Radius =  0.325 angstrom
                   Q00  =   0.039769

H          x = -1.168427  y =  0.020065  z =  0.082575 angstrom
           Maximum rank =  0   Radius =  0.325 angstrom
                   Q00  =   0.040348

H          x = -2.441427  y = -0.186935  z =  2.277575 angstrom
           Maximum rank =  0   Radius =  0.325 angstrom
                   Q00  =   0.077512

H          x = -0.902427  y =  2.515065  z =  1.818575 angstrom
           Maximum rank =  0   Radius =  0.325 angstrom
                   Q00  =   0.082221

H          x = -0.851097  y = -0.142191  z =  3.084235 angstrom
           Maximum rank =  0   Radius =  0.325 angstrom
                   Q00  =   0.075905

H          x = -1.248757  y = -1.466825  z =  1.953365 angstrom
           Maximum rank =  0   Radius =  0.325 angstrom
                   Q00  =   0.089767

H          x = -0.610517  y =  2.407220  z =  0.049615 angstrom
           Maximum rank =  0   Radius =  0.325 angstrom
                   Q00  =   0.087828

H          x = -2.241177  y =  2.100577  z =  0.689815 angstrom
           Maximum rank =  0   Radius =  0.325 angstrom
                   Q00  =   0.079401

Total multipoles referred to origin at
           x =   0.000000,  y =    0.000000,  z =    0.000000 angstrom
                   Q00  =  -0.000000

Finished at 14:30:27 on 28 Apr 2020

  DMA results are available in the Python driver through the
	  variable('DMA DISTRIBUTED MULTIPOLES')
  and
	  variable('DMA TOTAL MULTIPOLES')
  commands.

    Psi4 stopped on: Tuesday, 28 April 2020 02:30PM
    Psi4 wall time for execution: 0:00:22.24

*** Psi4 exiting successfully. Buy a developer a beer!
