                               Psi4 1.3.2 release

  ==> Input File <==

--------------------------------------------------------------------------
import numpy as np
set {scf_type pk
basis cc-pvdz
d_convergence 10
gdma_switch   0
gdma_limit    0
gdma_origin   [ 0.0,  0.0,  0.0 ]
}
molecule test {
    units Angstrom
    0 1
    --
    0 1
    C                2.434374130025694    -3.714453720960304     0.113653759179098
    C                3.697374130025695    -3.140453720960303     0.617653759179098
    C                2.869374130025694    -4.916453720960303    -0.691346240820902
    H                1.888374130025694    -2.994453720960303    -0.492346240820902
    H                1.823374130025694    -4.043453720960303     0.955653759179098
    H                4.097374130025695    -2.455453720960303    -0.130346240820902
    H                3.534374130025694    -2.618453720960303     1.559653759179098
    H                2.175374130025694    -5.736453720960303    -0.492346240820902
    H                4.408064130025694    -3.969833720960303     0.748218759179098
    H                3.868684130025694    -5.159033720960303    -0.300778240820902
    H                2.874444130025694    -4.700723720960303    -1.769973240820902
    C               -0.420625869974306     4.265546279039697    -0.078346240820902
    C               -1.744625869974306     0.710546279039696     0.183653759179098
    C               -0.678625869974306     1.619546279039696    -0.078346240820902
    C               -1.190625869974306     2.958546279039696     0.096653759179098
    C               -2.501625869974306     2.811546279039697     0.451653759179098
    C               -0.339625869974306    -1.153453720960304    -0.274346240820902
    C               -1.588625869974306    -0.669453720960304     0.088653759179098
    C                0.733374130025694    -0.277453720960304    -0.535346240820902
    C                0.574374130025694     1.101546279039697    -0.438346240820902
    N               -2.836625869974306     1.471546279039696     0.507653759179098
    H               -0.202625869974306    -2.220453720960303    -0.380346240820902
    H               -2.417625869974306    -1.337453720960304     0.277653759179098
    H                1.694374130025694    -0.679453720960304    -0.827346240820902
    H                1.397374130025694     1.767546279039697    -0.656346240820902
    H               -3.759625869974306     1.122546279039696     0.745653759179098
    H               -3.184625869974306     3.628546279039697     0.649653759179098
    H               -1.088625869974306     4.998546279039696    -0.531346240820902
    H                0.371374130025694     4.081546279039697    -0.789346240820902
    H               -0.029003869974306     4.685963279039697     0.859673759179098

}
e, wfn = energy('scf', return_wfn=True)
gdma(wfn)
dmavals = variable('DMA DISTRIBUTED MULTIPOLES')
charges = np.array(dmavals)
print(charges)
np.save('SSI-076PRO-111TRP-1-dimer.npy', np.array(charges))--------------------------------------------------------------------------

*** tstart() called on ds3
*** at Mon Apr 27 00:17:11 2020

   => Loading Basis Set <=

    Name: CC-PVDZ
    Role: ORBITAL
    Keyword: BASIS
    atoms 1-3, 12-20  entry C          line   138 file /theoryfs2/ds/metcalf/miniconda2/envs/tf2gpu/share/psi4/basis/cc-pvdz.gbs
    atoms 4-11, 22-30 entry H          line    22 file /theoryfs2/ds/metcalf/miniconda2/envs/tf2gpu/share/psi4/basis/cc-pvdz.gbs
    atoms 21          entry N          line   168 file /theoryfs2/ds/metcalf/miniconda2/envs/tf2gpu/share/psi4/basis/cc-pvdz.gbs

         ---------------------------------------------------------
                                   SCF
               by Justin Turney, Rob Parrish, Andy Simmonett
                          and Daniel G. A. Smith
                              RHF Reference
                        1 Threads,    500 MiB Core
         ---------------------------------------------------------

  ==> Geometry <==

    Molecular point group: c1
    Full point group: C1

    Geometry (in Angstrom), charge = 0, multiplicity = 1:

       Center              X                  Y                   Z               Mass
    ------------   -----------------  -----------------  -----------------  -----------------
         C            2.434374130026    -3.714453720960     0.113653759179    12.000000000000
         C            3.697374130026    -3.140453720960     0.617653759179    12.000000000000
         C            2.869374130026    -4.916453720960    -0.691346240821    12.000000000000
         H            1.888374130026    -2.994453720960    -0.492346240821     1.007825032230
         H            1.823374130026    -4.043453720960     0.955653759179     1.007825032230
         H            4.097374130026    -2.455453720960    -0.130346240821     1.007825032230
         H            3.534374130026    -2.618453720960     1.559653759179     1.007825032230
         H            2.175374130026    -5.736453720960    -0.492346240821     1.007825032230
         H            4.408064130026    -3.969833720960     0.748218759179     1.007825032230
         H            3.868684130026    -5.159033720960    -0.300778240821     1.007825032230
         H            2.874444130026    -4.700723720960    -1.769973240821     1.007825032230
         C           -0.420625869974     4.265546279040    -0.078346240821    12.000000000000
         C           -1.744625869974     0.710546279040     0.183653759179    12.000000000000
         C           -0.678625869974     1.619546279040    -0.078346240821    12.000000000000
         C           -1.190625869974     2.958546279040     0.096653759179    12.000000000000
         C           -2.501625869974     2.811546279040     0.451653759179    12.000000000000
         C           -0.339625869974    -1.153453720960    -0.274346240821    12.000000000000
         C           -1.588625869974    -0.669453720960     0.088653759179    12.000000000000
         C            0.733374130026    -0.277453720960    -0.535346240821    12.000000000000
         C            0.574374130026     1.101546279040    -0.438346240821    12.000000000000
         N           -2.836625869974     1.471546279040     0.507653759179    14.003074004430
         H           -0.202625869974    -2.220453720960    -0.380346240821     1.007825032230
         H           -2.417625869974    -1.337453720960     0.277653759179     1.007825032230
         H            1.694374130026    -0.679453720960    -0.827346240821     1.007825032230
         H            1.397374130026     1.767546279040    -0.656346240821     1.007825032230
         H           -3.759625869974     1.122546279040     0.745653759179     1.007825032230
         H           -3.184625869974     3.628546279040     0.649653759179     1.007825032230
         H           -1.088625869974     4.998546279040    -0.531346240821     1.007825032230
         H            0.371374130026     4.081546279040    -0.789346240821     1.007825032230
         H           -0.029003869974     4.685963279040     0.859673759179     1.007825032230

  Running in c1 symmetry.

  Rotational constants: A =      0.06177  B =      0.00904  C =      0.00814 [cm^-1]
  Rotational constants: A =   1851.69454  B =    271.16111  C =    243.99394 [MHz]
  Nuclear repulsion =  719.650971499813295

  Charge       = 0
  Multiplicity = 1
  Electrons    = 96
  Nalpha       = 48
  Nbeta        = 48

  ==> Algorithm <==

  SCF Algorithm Type is PK.
  DIIS enabled.
  MOM disabled.
  Fractional occupation disabled.
  Guess Type is SAD.
  Energy threshold   = 1.00e-06
  Density threshold  = 1.00e-10
  Integral threshold = 0.00e+00

  ==> Primary Basis <==

  Basis Set: CC-PVDZ
    Blend: CC-PVDZ
    Number of shells: 129
    Number of basis function: 267
    Number of Cartesian functions: 280
    Spherical Harmonics?: true
    Max angular momentum: 2

  ==> Pre-Iterations <==

   -------------------------------------------------------
    Irrep   Nso     Nmo     Nalpha   Nbeta   Ndocc  Nsocc
   -------------------------------------------------------
     A        267     267       0       0       0       0
   -------------------------------------------------------
    Total     267     267      48      48      48       0
   -------------------------------------------------------

  ==> Integral Setup <==

  Using integral reordering PK algorithm.
  Sizing the integral batches needed.
  Building batch lookup table.
   Calculation information:
      Number of atoms:                  30
      Number of AO shells:             129
      Number of primitives:            371
      Number of atomic orbitals:       280
      Number of basis functions:       267

      Integral cutoff                 1.00e-12
      Number of threads:                 1

	Batch   1 pq = [       0,    9405] index = [             0,44231715] size =     44231715
	Batch   2 pq = [    9405,   13301] index = [      44231715,88464951] size =     44233236
	Batch   3 pq = [   13301,   16290] index = [      88464951,132690195] size =     44225244
	Batch   4 pq = [   16290,   18810] index = [     132690195,176917455] size =     44227260
	Batch   5 pq = [   18810,   21030] index = [     176917455,221140965] size =     44223510
	Batch   6 pq = [   21030,   23037] index = [     221140965,265363203] size =     44222238
	Batch   7 pq = [   23037,   24883] index = [     265363203,309594286] size =     44231083
	Batch   8 pq = [   24883,   26601] index = [     309594286,353819901] size =     44225615
	Batch   9 pq = [   26601,   28214] index = [     353819901,398029005] size =     44209104
	Batch  10 pq = [   28214,   29740] index = [     398029005,442248670] size =     44219665
	Batch  11 pq = [   29740,   31191] index = [     442248670,486454836] size =     44206166
	Batch  12 pq = [   31191,   32578] index = [     486454836,530679331] size =     44224495
	Batch  13 pq = [   32578,   33908] index = [     530679331,574893186] size =     44213855
	Batch  14 pq = [   33908,   35188] index = [     574893186,619115266] size =     44222080
	Batch  15 pq = [   35188,   35778] index = [     619115266,640050531] size =     20935265
  Task number: 58
  Buffer size: 11059200
  Buffer per thread: 2
  We computed 29029554 shell quartets total.
  Whereas there are 35158305 unique shell quartets.

  ==> DiskJK: Disk-Based J/K Matrices <==

    J tasked:                  Yes
    K tasked:                  Yes
    wK tasked:                  No
    Memory [MiB]:              375
    Schwarz Cutoff:          1E-12

    OpenMP threads:              1

  Minimum eigenvalue in the overlap matrix is 2.4463501459E-04.
  Using Symmetric Orthogonalization.

  SCF Guess: Superposition of Atomic Densities via on-the-fly atomic UHF.

  ==> Iterations <==

                        Total Energy        Delta E     RMS |[F,P]|

   @RHF iter SAD:  -518.16765741053052   -5.18168e+02   0.00000e+00
   @RHF iter   1:  -518.46449124607807   -2.96834e-01   2.53076e-03 DIIS
   @RHF iter   2:  -518.72653231491313   -2.62041e-01   1.13581e-03 DIIS
   @RHF iter   3:  -518.77514983467859   -4.86175e-02   2.84561e-04 DIIS
   @RHF iter   4:  -518.77930634219297   -4.15651e-03   1.28237e-04 DIIS
   @RHF iter   5:  -518.77996149752335   -6.55155e-04   2.00991e-05 DIIS
   @RHF iter   6:  -518.77999359263788   -3.20951e-05   8.62219e-06 DIIS
   @RHF iter   7:  -518.78000013018061   -6.53754e-06   3.48145e-06 DIIS
   @RHF iter   8:  -518.78000180632603   -1.67615e-06   1.50233e-06 DIIS
   @RHF iter   9:  -518.78000219576370   -3.89438e-07   6.57844e-07 DIIS
   @RHF iter  10:  -518.78000227592838   -8.01647e-08   2.85535e-07 DIIS
   @RHF iter  11:  -518.78000229372628   -1.77979e-08   1.10214e-07 DIIS
   @RHF iter  12:  -518.78000229625945   -2.53317e-09   4.29577e-08 DIIS
   @RHF iter  13:  -518.78000229647660   -2.17142e-10   1.19511e-08 DIIS
   @RHF iter  14:  -518.78000229650047   -2.38742e-11   4.37333e-09 DIIS
   @RHF iter  15:  -518.78000229650320   -2.72848e-12   2.30687e-09 DIIS
   @RHF iter  16:  -518.78000229650752   -4.32010e-12   1.02507e-09 DIIS
   @RHF iter  17:  -518.78000229650479    2.72848e-12   4.74162e-10 DIIS
   @RHF iter  18:  -518.78000229650650   -1.70530e-12   1.75880e-10 DIIS
   @RHF iter  19:  -518.78000229649945    7.04858e-12   6.42482e-11 DIIS
  Energy and wave function converged.

  ==> Post-Iterations <==

    Orbital Energies [Eh]
    ---------------------

    Doubly Occupied:

       1A    -15.601842     2A    -11.264644     3A    -11.264602
       4A    -11.230763     5A    -11.230635     6A    -11.229336
       7A    -11.228949     8A    -11.222100     9A    -11.221601
      10A    -11.220979    11A    -11.209715    12A    -11.207691
      13A    -11.206084    14A     -1.291751    15A     -1.125432
      16A     -1.073063    17A     -1.068635    18A     -0.995646
      19A     -0.984291    20A     -0.931124    21A     -0.913560
      22A     -0.837986    23A     -0.803010    24A     -0.794947
      25A     -0.751689    26A     -0.718234    27A     -0.661211
      28A     -0.645162    29A     -0.632426    30A     -0.614161
      31A     -0.601741    32A     -0.589677    33A     -0.588850
      34A     -0.567307    35A     -0.552653    36A     -0.538589
      37A     -0.533211    38A     -0.527639    39A     -0.516098
      40A     -0.494324    41A     -0.485498    42A     -0.470438
      43A     -0.460096    44A     -0.459450    45A     -0.451756
      46A     -0.373063    47A     -0.293492    48A     -0.274816

    Virtual:

      49A      0.125321    50A      0.169330    51A      0.177164
      52A      0.182168    53A      0.191926    54A      0.210007
      55A      0.213819    56A      0.219637    57A      0.228943
      58A      0.232205    59A      0.238295    60A      0.249896
      61A      0.268022    62A      0.277615    63A      0.291870
      64A      0.294614    65A      0.301259    66A      0.321686
      67A      0.333400    68A      0.359279    69A      0.370757
      70A      0.381062    71A      0.383621    72A      0.397808
      73A      0.420845    74A      0.446622    75A      0.454628
      76A      0.474097    77A      0.483539    78A      0.512022
      79A      0.529876    80A      0.572840    81A      0.593974
      82A      0.603564    83A      0.625539    84A      0.627506
      85A      0.645520    86A      0.651475    87A      0.661070
      88A      0.667677    89A      0.681985    90A      0.693563
      91A      0.717064    92A      0.721073    93A      0.727406
      94A      0.734095    95A      0.742005    96A      0.744542
      97A      0.751046    98A      0.761886    99A      0.768476
     100A      0.774077   101A      0.783704   102A      0.788923
     103A      0.803635   104A      0.823756   105A      0.841563
     106A      0.847461   107A      0.852205   108A      0.873174
     109A      0.875593   110A      0.879289   111A      0.880849
     112A      0.894320   113A      0.901872   114A      0.905595
     115A      0.911166   116A      0.913089   117A      0.925782
     118A      0.927788   119A      0.939352   120A      0.944556
     121A      0.950636   122A      0.954900   123A      0.967781
     124A      0.979424   125A      0.982542   126A      1.006378
     127A      1.017076   128A      1.039054   129A      1.052336
     130A      1.074129   131A      1.079595   132A      1.096219
     133A      1.106508   134A      1.133585   135A      1.143618
     136A      1.146011   137A      1.163392   138A      1.186991
     139A      1.206542   140A      1.211221   141A      1.225582
     142A      1.236728   143A      1.244940   144A      1.261320
     145A      1.277903   146A      1.284920   147A      1.300182
     148A      1.324062   149A      1.335019   150A      1.359503
     151A      1.382443   152A      1.418505   153A      1.442430
     154A      1.452058   155A      1.493252   156A      1.508320
     157A      1.514902   158A      1.541311   159A      1.571905
     160A      1.603901   161A      1.614742   162A      1.625619
     163A      1.639948   164A      1.642966   165A      1.647020
     166A      1.656077   167A      1.691660   168A      1.701544
     169A      1.720873   170A      1.736950   171A      1.738021
     172A      1.757711   173A      1.762156   174A      1.787263
     175A      1.800395   176A      1.812810   177A      1.820416
     178A      1.832670   179A      1.866853   180A      1.876258
     181A      1.887742   182A      1.890948   183A      1.892131
     184A      1.902000   185A      1.912214   186A      1.916749
     187A      1.927972   188A      1.933560   189A      1.939886
     190A      1.947879   191A      1.966102   192A      1.968404
     193A      1.978445   194A      1.990764   195A      2.002850
     196A      2.007495   197A      2.011226   198A      2.024355
     199A      2.038777   200A      2.046796   201A      2.065140
     202A      2.069778   203A      2.073296   204A      2.085275
     205A      2.091525   206A      2.097768   207A      2.107669
     208A      2.123461   209A      2.140348   210A      2.163057
     211A      2.167888   212A      2.198275   213A      2.219446
     214A      2.233668   215A      2.245849   216A      2.253795
     217A      2.260142   218A      2.277797   219A      2.307707
     220A      2.309212   221A      2.314349   222A      2.343402
     223A      2.348660   224A      2.363573   225A      2.388586
     226A      2.403748   227A      2.445304   228A      2.449936
     229A      2.465142   230A      2.474703   231A      2.516777
     232A      2.534538   233A      2.572470   234A      2.582255
     235A      2.589816   236A      2.622100   237A      2.652094
     238A      2.668855   239A      2.673930   240A      2.712403
     241A      2.718950   242A      2.755945   243A      2.773767
     244A      2.776332   245A      2.783044   246A      2.784238
     247A      2.797846   248A      2.800807   249A      2.828884
     250A      2.848605   251A      2.856768   252A      2.867487
     253A      2.870788   254A      2.915649   255A      2.924344
     256A      2.953817   257A      2.965432   258A      3.014171
     259A      3.047069   260A      3.061689   261A      3.087335
     262A      3.111604   263A      3.196506   264A      3.290536
     265A      3.365883   266A      3.728149   267A      3.939278

    Final Occupation by Irrep:
              A
    DOCC [    48 ]

  @RHF Final Energy:  -518.78000229649945

   => Energetics <=

    Nuclear Repulsion Energy =            719.6509714998132949
    One-Electron Energy =               -2128.9420171523829595
    Two-Electron Energy =                 890.5110433560702177
    Total Energy =                       -518.7800022964994469

Computation Completed

Properties will be evaluated at   0.000000,   0.000000,   0.000000 [a0]

Properties computed using the SCF density matrix

  Nuclear Dipole Moment: [e a0]
     X:    16.3681      Y:   -14.6574      Z:    -0.5399

  Electronic Dipole Moment: [e a0]
     X:   -17.1824      Y:    14.8985      Z:     0.7451

  Dipole Moment: [e a0]
     X:    -0.8143      Y:     0.2411      Z:     0.2052     Total:     0.8737

  Dipole Moment: [D]
     X:    -2.0698      Y:     0.6129      Z:     0.5214     Total:     2.2207

*** tstop() called on ds3 at Mon Apr 27 00:33:35 2020
Module time:
	user time   =     236.24 seconds =       3.94 minutes
	system time =      98.06 seconds =       1.63 minutes
	total time  =        984 seconds =      16.40 minutes
Total time:
	user time   =     236.24 seconds =       3.94 minutes
	system time =      98.06 seconds =       1.63 minutes
	total time  =        984 seconds =      16.40 minutes
                                     G D M A

                                 by Anthony Stone

                           version 2.2.06, 22 June 2011

               Distributed Multipoles from Gaussian wavefunctions

Starting at 0:33:35 on 27 Apr 2020

Using SCF density matrix from file ./SSI/SSI-076PRO-111TRP-1-dimer.test.9405.fchk

                         Distributed Multipole Analysis

Standard DMA

Positions and radii in angstrom
Multipole moments in atomic units, ea_0^k for rank k

C          x =  2.434374  y = -3.714454  z =  0.113654 angstrom
           Maximum rank =  0   Radius =  0.650 angstrom
                   Q00  =  -0.085249

C          x =  3.697374  y = -3.140454  z =  0.617654 angstrom
           Maximum rank =  0   Radius =  0.650 angstrom
                   Q00  =  -0.205624

C          x =  2.869374  y = -4.916454  z = -0.691346 angstrom
           Maximum rank =  0   Radius =  0.650 angstrom
                   Q00  =  -0.258355

H          x =  1.888374  y = -2.994454  z = -0.492346 angstrom
           Maximum rank =  0   Radius =  0.325 angstrom
                   Q00  =   0.050102

H          x =  1.823374  y = -4.043454  z =  0.955654 angstrom
           Maximum rank =  0   Radius =  0.325 angstrom
                   Q00  =   0.053334

H          x =  4.097374  y = -2.455454  z = -0.130346 angstrom
           Maximum rank =  0   Radius =  0.325 angstrom
                   Q00  =   0.076511

H          x =  3.534374  y = -2.618454  z =  1.559654 angstrom
           Maximum rank =  0   Radius =  0.325 angstrom
                   Q00  =   0.084484

H          x =  2.175374  y = -5.736454  z = -0.492346 angstrom
           Maximum rank =  0   Radius =  0.325 angstrom
                   Q00  =   0.082156

H          x =  4.408064  y = -3.969834  z =  0.748219 angstrom
           Maximum rank =  0   Radius =  0.325 angstrom
                   Q00  =   0.047160

H          x =  3.868684  y = -5.159034  z = -0.300778 angstrom
           Maximum rank =  0   Radius =  0.325 angstrom
                   Q00  =   0.067778

H          x =  2.874444  y = -4.700724  z = -1.769973 angstrom
           Maximum rank =  0   Radius =  0.325 angstrom
                   Q00  =   0.084604

C          x = -0.420626  y =  4.265546  z = -0.078346 angstrom
           Maximum rank =  0   Radius =  0.650 angstrom
                   Q00  =  -0.214590

C          x = -1.744626  y =  0.710546  z =  0.183654 angstrom
           Maximum rank =  0   Radius =  0.650 angstrom
                   Q00  =   0.296631

C          x = -0.678626  y =  1.619546  z = -0.078346 angstrom
           Maximum rank =  0   Radius =  0.650 angstrom
                   Q00  =  -0.052413

C          x = -1.190626  y =  2.958546  z =  0.096654 angstrom
           Maximum rank =  0   Radius =  0.650 angstrom
                   Q00  =  -0.132379

C          x = -2.501626  y =  2.811546  z =  0.451654 angstrom
           Maximum rank =  0   Radius =  0.650 angstrom
                   Q00  =   0.075585

C          x = -0.339626  y = -1.153454  z = -0.274346 angstrom
           Maximum rank =  0   Radius =  0.650 angstrom
                   Q00  =  -0.073119

C          x = -1.588626  y = -0.669454  z =  0.088654 angstrom
           Maximum rank =  0   Radius =  0.650 angstrom
                   Q00  =  -0.115198

C          x =  0.733374  y = -0.277454  z = -0.535346 angstrom
           Maximum rank =  0   Radius =  0.650 angstrom
                   Q00  =  -0.093575

C          x =  0.574374  y =  1.101546  z = -0.438346 angstrom
           Maximum rank =  0   Radius =  0.650 angstrom
                   Q00  =  -0.089090

N          x = -2.836626  y =  1.471546  z =  0.507654 angstrom
           Maximum rank =  0   Radius =  0.650 angstrom
                   Q00  =  -0.501167

H          x = -0.202626  y = -2.220454  z = -0.380346 angstrom
           Maximum rank =  0   Radius =  0.325 angstrom
                   Q00  =   0.067291

H          x = -2.417626  y = -1.337454  z =  0.277654 angstrom
           Maximum rank =  0   Radius =  0.325 angstrom
                   Q00  =   0.073639

H          x =  1.694374  y = -0.679454  z = -0.827346 angstrom
           Maximum rank =  0   Radius =  0.325 angstrom
                   Q00  =   0.058383

H          x =  1.397374  y =  1.767546  z = -0.656346 angstrom
           Maximum rank =  0   Radius =  0.325 angstrom
                   Q00  =   0.069868

H          x = -3.759626  y =  1.122546  z =  0.745654 angstrom
           Maximum rank =  0   Radius =  0.325 angstrom
                   Q00  =   0.217183

H          x = -3.184626  y =  3.628546  z =  0.649654 angstrom
           Maximum rank =  0   Radius =  0.325 angstrom
                   Q00  =   0.099770

H          x = -1.088626  y =  4.998546  z = -0.531346 angstrom
           Maximum rank =  0   Radius =  0.325 angstrom
                   Q00  =   0.103260

H          x =  0.371374  y =  4.081546  z = -0.789346 angstrom
           Maximum rank =  0   Radius =  0.325 angstrom
                   Q00  =   0.109118

H          x = -0.029004  y =  4.685963  z =  0.859674 angstrom
           Maximum rank =  0   Radius =  0.325 angstrom
                   Q00  =   0.103903

Total multipoles referred to origin at
           x =   0.000000,  y =    0.000000,  z =    0.000000 angstrom
                   Q00  =  -0.000000

Finished at 0:33:35 on 27 Apr 2020

  DMA results are available in the Python driver through the
	  variable('DMA DISTRIBUTED MULTIPOLES')
  and
	  variable('DMA TOTAL MULTIPOLES')
  commands.

    Psi4 stopped on: Monday, 27 April 2020 12:33AM
    Psi4 wall time for execution: 0:16:23.83

*** Psi4 exiting successfully. Buy a developer a beer!
