                               Psi4 1.3.2 release

  ==> Input File <==

--------------------------------------------------------------------------
import numpy as np
set {scf_type pk
basis cc-pvdz
d_convergence 10
gdma_switch   0
gdma_limit    0
gdma_origin   [ 0.0,  0.0,  0.0 ]
}
molecule test {
    units Angstrom
    0 1
    --
    0 1
    C                0.458199642453521    -1.783936094958110     1.358967685469476
    C                1.727199642453521    -2.040936094958110     0.523967685469476
    H                0.671199642453521    -1.932936094958110     2.418967685469476
    H                0.094199642453521    -0.769936094958110     1.205967685469476
    H               -0.345800357546479    -2.452936094958110     1.056967685469476
    H                1.490199642453522    -1.848936094958110    -0.524032314530524
    H                2.059919642453521    -3.084076094958110     0.629637685469476
    H                2.541469642453522    -1.363216094958110     0.820067685469476
    C               -0.795800357546478     1.301063905041890    -0.596032314530524
    C               -1.393800357546479     2.521063905041889    -1.286032314530524
    H                0.058199642453521     0.938063905041890    -1.167032314530524
    H               -0.465800357546479     1.573063905041890     0.406967685469476
    H               -1.538800357546479     0.505063905041890    -0.527032314530524
    H               -0.617800357546479     3.284063905041890    -1.338032314530524
    H               -1.681110357546479     2.257453905041889    -2.314602314530524
    H               -2.215850357546478     2.927003905041889    -0.678212314530524

}
e, wfn = energy('scf', return_wfn=True)
gdma(wfn)
dmavals = variable('DMA DISTRIBUTED MULTIPOLES')
charges = np.array(dmavals)
print(charges)
np.save('SSI-017ILE-028LEU-1-dimer.npy', np.array(charges))--------------------------------------------------------------------------

*** tstart() called on ds3
*** at Mon Apr 27 07:22:31 2020

   => Loading Basis Set <=

    Name: CC-PVDZ
    Role: ORBITAL
    Keyword: BASIS
    atoms 1-2, 9-10  entry C          line   138 file /theoryfs2/ds/metcalf/miniconda2/envs/tf2gpu/share/psi4/basis/cc-pvdz.gbs
    atoms 3-8, 11-16 entry H          line    22 file /theoryfs2/ds/metcalf/miniconda2/envs/tf2gpu/share/psi4/basis/cc-pvdz.gbs

         ---------------------------------------------------------
                                   SCF
               by Justin Turney, Rob Parrish, Andy Simmonett
                          and Daniel G. A. Smith
                              RHF Reference
                        1 Threads,    500 MiB Core
         ---------------------------------------------------------

  ==> Geometry <==

    Molecular point group: c1
    Full point group: C1

    Geometry (in Angstrom), charge = 0, multiplicity = 1:

       Center              X                  Y                   Z               Mass
    ------------   -----------------  -----------------  -----------------  -----------------
         C            0.458199642454    -1.783936094958     1.358967685469    12.000000000000
         C            1.727199642454    -2.040936094958     0.523967685469    12.000000000000
         H            0.671199642454    -1.932936094958     2.418967685469     1.007825032230
         H            0.094199642454    -0.769936094958     1.205967685469     1.007825032230
         H           -0.345800357546    -2.452936094958     1.056967685469     1.007825032230
         H            1.490199642454    -1.848936094958    -0.524032314531     1.007825032230
         H            2.059919642454    -3.084076094958     0.629637685469     1.007825032230
         H            2.541469642454    -1.363216094958     0.820067685469     1.007825032230
         C           -0.795800357546     1.301063905042    -0.596032314531    12.000000000000
         C           -1.393800357546     2.521063905042    -1.286032314531    12.000000000000
         H            0.058199642454     0.938063905042    -1.167032314531     1.007825032230
         H           -0.465800357546     1.573063905042     0.406967685469     1.007825032230
         H           -1.538800357546     0.505063905042    -0.527032314531     1.007825032230
         H           -0.617800357546     3.284063905042    -1.338032314531     1.007825032230
         H           -1.681110357546     2.257453905042    -2.314602314531     1.007825032230
         H           -2.215850357546     2.927003905042    -0.678212314531     1.007825032230

  Running in c1 symmetry.

  Rotational constants: A =      0.55714  B =      0.04472  C =      0.04273 [cm^-1]
  Rotational constants: A =  16702.68760  B =   1340.53446  C =   1280.99730 [MHz]
  Nuclear repulsion =  120.841024210455359

  Charge       = 0
  Multiplicity = 1
  Electrons    = 36
  Nalpha       = 18
  Nbeta        = 18

  ==> Algorithm <==

  SCF Algorithm Type is PK.
  DIIS enabled.
  MOM disabled.
  Fractional occupation disabled.
  Guess Type is SAD.
  Energy threshold   = 1.00e-06
  Density threshold  = 1.00e-10
  Integral threshold = 0.00e+00

  ==> Primary Basis <==

  Basis Set: CC-PVDZ
    Blend: CC-PVDZ
    Number of shells: 60
    Number of basis function: 116
    Number of Cartesian functions: 120
    Spherical Harmonics?: true
    Max angular momentum: 2

  ==> Pre-Iterations <==

   -------------------------------------------------------
    Irrep   Nso     Nmo     Nalpha   Nbeta   Ndocc  Nsocc
   -------------------------------------------------------
     A        116     116       0       0       0       0
   -------------------------------------------------------
    Total     116     116      18      18      18       0
   -------------------------------------------------------

  ==> Integral Setup <==

  Using integral reordering PK algorithm.
  Sizing the integral batches needed.
  Building batch lookup table.
   Calculation information:
      Number of atoms:                  16
      Number of AO shells:              60
      Number of primitives:            148
      Number of atomic orbitals:       120
      Number of basis functions:       116

      Integral cutoff                 1.00e-12
      Number of threads:                 1

	Batch   1 pq = [       0,    6786] index = [             0,23028291] size =     23028291
  Task number: 3
  Buffer size: 11059200
  Buffer per thread: 2
  We computed 1382481 shell quartets total.
  Whereas there are 1675365 unique shell quartets.

  ==> DiskJK: Disk-Based J/K Matrices <==

    J tasked:                  Yes
    K tasked:                  Yes
    wK tasked:                  No
    Memory [MiB]:              375
    Schwarz Cutoff:          1E-12

    OpenMP threads:              1

  Minimum eigenvalue in the overlap matrix is 6.0416182784E-03.
  Using Symmetric Orthogonalization.

  SCF Guess: Superposition of Atomic Densities via on-the-fly atomic UHF.

  ==> Iterations <==

                        Total Energy        Delta E     RMS |[F,P]|

   @RHF iter SAD:  -157.33202295163079   -1.57332e+02   0.00000e+00
   @RHF iter   1:  -158.30846899209376   -9.76446e-01   4.20151e-03 DIIS
   @RHF iter   2:  -158.44126311591822   -1.32794e-01   1.79031e-03 DIIS
   @RHF iter   3:  -158.46454426436250   -2.32811e-02   3.49046e-04 DIIS
   @RHF iter   4:  -158.46637353165733   -1.82927e-03   3.87959e-05 DIIS
   @RHF iter   5:  -158.46639734794462   -2.38163e-05   6.51282e-06 DIIS
   @RHF iter   6:  -158.46639797899016   -6.31046e-07   1.10801e-06 DIIS
   @RHF iter   7:  -158.46639799122852   -1.22384e-08   3.26027e-07 DIIS
   @RHF iter   8:  -158.46639799219926   -9.70743e-10   4.59453e-08 DIIS
   @RHF iter   9:  -158.46639799223379   -3.45324e-11   1.03919e-08 DIIS
   @RHF iter  10:  -158.46639799223496   -1.16529e-12   2.94851e-09 DIIS
   @RHF iter  11:  -158.46639799223533   -3.69482e-13   8.63601e-10 DIIS
   @RHF iter  12:  -158.46639799223533    0.00000e+00   1.93370e-10 DIIS
   @RHF iter  13:  -158.46639799223601   -6.82121e-13   3.08397e-11 DIIS
  Energy and wave function converged.

  ==> Post-Iterations <==

    Orbital Energies [Eh]
    ---------------------

    Doubly Occupied:

       1A    -11.219737     2A    -11.219642     3A    -11.217347
       4A    -11.215740     5A     -1.021256     6A     -1.013233
       7A     -0.838741     8A     -0.834719     9A     -0.604242
      10A     -0.597363    11A     -0.595960    12A     -0.592310
      13A     -0.503203    14A     -0.497146    15A     -0.491668
      16A     -0.484910    17A     -0.482409    18A     -0.481675

    Virtual:

      19A      0.172211    20A      0.193973    21A      0.225304
      22A      0.236882    23A      0.240700    24A      0.262576
      25A      0.262765    26A      0.277394    27A      0.278767
      28A      0.285066    29A      0.311429    30A      0.328619
      31A      0.389382    32A      0.421837    33A      0.581830
      34A      0.590026    35A      0.598995    36A      0.606683
      37A      0.610818    38A      0.652650    39A      0.676814
      40A      0.688150    41A      0.703719    42A      0.732062
      43A      0.836560    44A      0.874534    45A      0.888295
      46A      0.891725    47A      0.893241    48A      0.896294
      49A      0.900052    50A      0.906638    51A      0.913955
      52A      0.922693    53A      0.930895    54A      0.943361
      55A      0.979202    56A      1.016961    57A      1.123098
      58A      1.124815    59A      1.128371    60A      1.139256
      61A      1.233771    62A      1.282491    63A      1.464601
      64A      1.475856    65A      1.481170    66A      1.487008
      67A      1.562809    68A      1.581937    69A      1.671145
      70A      1.685778    71A      1.690126    72A      1.700921
      73A      1.848123    74A      1.850285    75A      1.868290
      76A      1.875579    77A      1.892000    78A      1.919404
      79A      1.933569    80A      1.938228    81A      1.945184
      82A      1.947193    83A      1.952711    84A      1.957495
      85A      1.965499    86A      1.969529    87A      1.974293
      88A      2.036568    89A      2.089201    90A      2.096088
      91A      2.115666    92A      2.121937    93A      2.292575
      94A      2.297311    95A      2.315783    96A      2.340247
      97A      2.440573    98A      2.453012    99A      2.467675
     100A      2.476856   101A      2.553426   102A      2.566788
     103A      2.569423   104A      2.575718   105A      2.757849
     106A      2.761563   107A      2.785009   108A      2.798106
     109A      2.831954   110A      2.853626   111A      2.858504
     112A      2.863015   113A      2.936726   114A      2.949715
     115A      2.964583   116A      2.968472

    Final Occupation by Irrep:
              A
    DOCC [    18 ]

  @RHF Final Energy:  -158.46639799223601

   => Energetics <=

    Nuclear Repulsion Energy =            120.8410242104553589
    One-Electron Energy =                -450.7922416088947557
    Two-Electron Energy =                 171.4848194062033713
    Total Energy =                       -158.4663979922360113

Computation Completed

Properties will be evaluated at   0.000000,   0.000000,   0.000000 [a0]

Properties computed using the SCF density matrix

  Nuclear Dipole Moment: [e a0]
     X:     0.0469      Y:     0.0306      Z:    -0.0097

  Electronic Dipole Moment: [e a0]
     X:    -0.0531      Y:    -0.0035      Z:     0.0005

  Dipole Moment: [e a0]
     X:    -0.0062      Y:     0.0272      Z:    -0.0092     Total:     0.0293

  Dipole Moment: [D]
     X:    -0.0158      Y:     0.0690      Z:    -0.0234     Total:     0.0746

*** tstop() called on ds3 at Mon Apr 27 07:22:42 2020
Module time:
	user time   =       7.74 seconds =       0.13 minutes
	system time =       3.27 seconds =       0.05 minutes
	total time  =         11 seconds =       0.18 minutes
Total time:
	user time   =       7.74 seconds =       0.13 minutes
	system time =       3.27 seconds =       0.05 minutes
	total time  =         11 seconds =       0.18 minutes
                                     G D M A

                                 by Anthony Stone

                           version 2.2.06, 22 June 2011

               Distributed Multipoles from Gaussian wavefunctions

Starting at 7:22:42 on 27 Apr 2020

Using SCF density matrix from file ./SSI/SSI-017ILE-028LEU-1-dimer.test.5679.fchk

                         Distributed Multipole Analysis

Standard DMA

Positions and radii in angstrom
Multipole moments in atomic units, ea_0^k for rank k

C          x =  0.458200  y = -1.783936  z =  1.358968 angstrom
           Maximum rank =  0   Radius =  0.650 angstrom
                   Q00  =  -0.245519

C          x =  1.727200  y = -2.040936  z =  0.523968 angstrom
           Maximum rank =  0   Radius =  0.650 angstrom
                   Q00  =  -0.240314

H          x =  0.671200  y = -1.932936  z =  2.418968 angstrom
           Maximum rank =  0   Radius =  0.325 angstrom
                   Q00  =   0.078253

H          x =  0.094200  y = -0.769936  z =  1.205968 angstrom
           Maximum rank =  0   Radius =  0.325 angstrom
                   Q00  =   0.086424

H          x = -0.345800  y = -2.452936  z =  1.056968 angstrom
           Maximum rank =  0   Radius =  0.325 angstrom
                   Q00  =   0.079649

H          x =  1.490200  y = -1.848936  z = -0.524032 angstrom
           Maximum rank =  0   Radius =  0.325 angstrom
                   Q00  =   0.078378

H          x =  2.059920  y = -3.084076  z =  0.629638 angstrom
           Maximum rank =  0   Radius =  0.325 angstrom
                   Q00  =   0.080948

H          x =  2.541470  y = -1.363216  z =  0.820068 angstrom
           Maximum rank =  0   Radius =  0.325 angstrom
                   Q00  =   0.080194

C          x = -0.795800  y =  1.301064  z = -0.596032 angstrom
           Maximum rank =  0   Radius =  0.650 angstrom
                   Q00  =  -0.232784

C          x = -1.393800  y =  2.521064  z = -1.286032 angstrom
           Maximum rank =  0   Radius =  0.650 angstrom
                   Q00  =  -0.237736

H          x =  0.058200  y =  0.938064  z = -1.167032 angstrom
           Maximum rank =  0   Radius =  0.325 angstrom
                   Q00  =   0.079625

H          x = -0.465800  y =  1.573064  z =  0.406968 angstrom
           Maximum rank =  0   Radius =  0.325 angstrom
                   Q00  =   0.076389

H          x = -1.538800  y =  0.505064  z = -0.527032 angstrom
           Maximum rank =  0   Radius =  0.325 angstrom
                   Q00  =   0.077414

H          x = -0.617800  y =  3.284064  z = -1.338032 angstrom
           Maximum rank =  0   Radius =  0.325 angstrom
                   Q00  =   0.077031

H          x = -1.681110  y =  2.257454  z = -2.314602 angstrom
           Maximum rank =  0   Radius =  0.325 angstrom
                   Q00  =   0.081302

H          x = -2.215850  y =  2.927004  z = -0.678212 angstrom
           Maximum rank =  0   Radius =  0.325 angstrom
                   Q00  =   0.080746

Total multipoles referred to origin at
           x =   0.000000,  y =    0.000000,  z =    0.000000 angstrom
                   Q00  =  -0.000000

Finished at 7:22:42 on 27 Apr 2020

  DMA results are available in the Python driver through the
	  variable('DMA DISTRIBUTED MULTIPOLES')
  and
	  variable('DMA TOTAL MULTIPOLES')
  commands.

    Psi4 stopped on: Monday, 27 April 2020 07:22AM
    Psi4 wall time for execution: 0:00:11.01

*** Psi4 exiting successfully. Buy a developer a beer!
