                               Psi4 1.3.2 release

  ==> Input File <==

--------------------------------------------------------------------------
import numpy as np
set {scf_type pk
basis cc-pvdz
d_convergence 10
gdma_switch   0
gdma_limit    0
gdma_origin   [ 0.0,  0.0,  0.0 ]
}
molecule test {
    units Angstrom
    0 1
    --
    0 1
    C               -0.129712052487207     0.683595323840104    -3.684090077401708
    C               -1.565712052487207     0.154595323840104    -3.630090077401708
    H               -0.083712052487207     1.587595323840104    -4.294090077401708
    H                0.218287947512793     0.921595323840104    -2.678090077401708
    H                0.541287947512793    -0.071404676159896    -4.092090077401708
    H               -1.533712052487207    -0.797404676159896    -3.103090077401709
    H               -1.986336052487207    -0.036074676159896    -4.628450077401708
    H               -2.216625052487207     0.833135323840104    -3.059210077401708
    C                1.072287947512793     2.579595323840104     1.841909922598292
    C               -0.503712052487207    -0.294404676159896    -0.104090077401708
    C               -0.130712052487207     1.002595323840104     0.285909922598292
    C               -0.110712052487207    -1.397404676159896     0.626909922598292
    C                0.633287947512793     1.201595323840104     1.432909922598292
    C                0.608287947512793    -1.205404676159896     1.811909922598292
    C                0.975287947512793     0.079595323840104     2.204909922598292
    O               -0.538712052487207    -2.620404676159895     0.191909922598292
    H               -1.101712052487207    -0.440404676159896    -0.982090077401708
    H               -0.426712052487207     1.850595323840105    -0.315090077401708
    H               -1.085712052487207    -2.559404676159896    -0.594090077401708
    H                0.885287947512793    -2.063404676159895     2.401909922598292
    H                1.844287947512792     2.900595323840105     1.146909922598292
    H                1.539287947512793     2.497595323840104     2.814909922598292
    H                1.550287947512793     0.209595323840104     3.112909922598292
    H                0.301510947512793     3.364105323840104     1.862879922598292

}
e, wfn = energy('scf', return_wfn=True)
gdma(wfn)
dmavals = variable('DMA DISTRIBUTED MULTIPOLES')
charges = np.array(dmavals)
print(charges)
np.save('SSI-022VAL-079TYR-2-dimer.npy', np.array(charges))--------------------------------------------------------------------------

*** tstart() called on ds3
*** at Mon Apr 27 00:33:39 2020

   => Loading Basis Set <=

    Name: CC-PVDZ
    Role: ORBITAL
    Keyword: BASIS
    atoms 1-2, 9-15  entry C          line   138 file /theoryfs2/ds/metcalf/miniconda2/envs/tf2gpu/share/psi4/basis/cc-pvdz.gbs
    atoms 3-8, 17-24 entry H          line    22 file /theoryfs2/ds/metcalf/miniconda2/envs/tf2gpu/share/psi4/basis/cc-pvdz.gbs
    atoms 16         entry O          line   198 file /theoryfs2/ds/metcalf/miniconda2/envs/tf2gpu/share/psi4/basis/cc-pvdz.gbs

         ---------------------------------------------------------
                                   SCF
               by Justin Turney, Rob Parrish, Andy Simmonett
                          and Daniel G. A. Smith
                              RHF Reference
                        1 Threads,    500 MiB Core
         ---------------------------------------------------------

  ==> Geometry <==

    Molecular point group: c1
    Full point group: C1

    Geometry (in Angstrom), charge = 0, multiplicity = 1:

       Center              X                  Y                   Z               Mass
    ------------   -----------------  -----------------  -----------------  -----------------
         C           -0.129712052487     0.683595323840    -3.684090077402    12.000000000000
         C           -1.565712052487     0.154595323840    -3.630090077402    12.000000000000
         H           -0.083712052487     1.587595323840    -4.294090077402     1.007825032230
         H            0.218287947513     0.921595323840    -2.678090077402     1.007825032230
         H            0.541287947513    -0.071404676160    -4.092090077402     1.007825032230
         H           -1.533712052487    -0.797404676160    -3.103090077402     1.007825032230
         H           -1.986336052487    -0.036074676160    -4.628450077402     1.007825032230
         H           -2.216625052487     0.833135323840    -3.059210077402     1.007825032230
         C            1.072287947513     2.579595323840     1.841909922598    12.000000000000
         C           -0.503712052487    -0.294404676160    -0.104090077402    12.000000000000
         C           -0.130712052487     1.002595323840     0.285909922598    12.000000000000
         C           -0.110712052487    -1.397404676160     0.626909922598    12.000000000000
         C            0.633287947513     1.201595323840     1.432909922598    12.000000000000
         C            0.608287947513    -1.205404676160     1.811909922598    12.000000000000
         C            0.975287947513     0.079595323840     2.204909922598    12.000000000000
         O           -0.538712052487    -2.620404676160     0.191909922598    15.994914619570
         H           -1.101712052487    -0.440404676160    -0.982090077402     1.007825032230
         H           -0.426712052487     1.850595323840    -0.315090077402     1.007825032230
         H           -1.085712052487    -2.559404676160    -0.594090077402     1.007825032230
         H            0.885287947513    -2.063404676160     2.401909922598     1.007825032230
         H            1.844287947513     2.900595323840     1.146909922598     1.007825032230
         H            1.539287947513     2.497595323840     2.814909922598     1.007825032230
         H            1.550287947513     0.209595323840     3.112909922598     1.007825032230
         H            0.301510947513     3.364105323840     1.862879922598     1.007825032230

  Running in c1 symmetry.

  Rotational constants: A =      0.04832  B =      0.02449  C =      0.01709 [cm^-1]
  Rotational constants: A =   1448.74247  B =    734.21709  C =    512.46380 [MHz]
  Nuclear repulsion =  495.157026329261782

  Charge       = 0
  Multiplicity = 1
  Electrons    = 76
  Nalpha       = 38
  Nbeta        = 38

  ==> Algorithm <==

  SCF Algorithm Type is PK.
  DIIS enabled.
  MOM disabled.
  Fractional occupation disabled.
  Guess Type is SAD.
  Energy threshold   = 1.00e-06
  Density threshold  = 1.00e-10
  Integral threshold = 0.00e+00

  ==> Primary Basis <==

  Basis Set: CC-PVDZ
    Blend: CC-PVDZ
    Number of shells: 102
    Number of basis function: 210
    Number of Cartesian functions: 220
    Spherical Harmonics?: true
    Max angular momentum: 2

  ==> Pre-Iterations <==

   -------------------------------------------------------
    Irrep   Nso     Nmo     Nalpha   Nbeta   Ndocc  Nsocc
   -------------------------------------------------------
     A        210     210       0       0       0       0
   -------------------------------------------------------
    Total     210     210      38      38      38       0
   -------------------------------------------------------

  ==> Integral Setup <==

  Using integral reordering PK algorithm.
  Sizing the integral batches needed.
  Building batch lookup table.
   Calculation information:
      Number of atoms:                  24
      Number of AO shells:             102
      Number of primitives:            290
      Number of atomic orbitals:       220
      Number of basis functions:       210

      Integral cutoff                 1.00e-12
      Number of threads:                 1

	Batch   1 pq = [       0,    9405] index = [             0,44231715] size =     44231715
	Batch   2 pq = [    9405,   13301] index = [      44231715,88464951] size =     44233236
	Batch   3 pq = [   13301,   16290] index = [      88464951,132690195] size =     44225244
	Batch   4 pq = [   16290,   18810] index = [     132690195,176917455] size =     44227260
	Batch   5 pq = [   18810,   21030] index = [     176917455,221140965] size =     44223510
	Batch   6 pq = [   21030,   22155] index = [     221140965,245433090] size =     24292125
  Task number: 23
  Buffer size: 11059200
  Buffer per thread: 2
  We computed 11706235 shell quartets total.
  Whereas there are 13799631 unique shell quartets.

  ==> DiskJK: Disk-Based J/K Matrices <==

    J tasked:                  Yes
    K tasked:                  Yes
    wK tasked:                  No
    Memory [MiB]:              375
    Schwarz Cutoff:          1E-12

    OpenMP threads:              1

  Minimum eigenvalue in the overlap matrix is 3.2842835710E-04.
  Using Symmetric Orthogonalization.

  SCF Guess: Superposition of Atomic Densities via on-the-fly atomic UHF.

  ==> Iterations <==

                        Total Energy        Delta E     RMS |[F,P]|

   @RHF iter SAD:  -422.69794485792511   -4.22698e+02   0.00000e+00
   @RHF iter   1:  -423.59857224122948   -9.00627e-01   2.96339e-03 DIIS
   @RHF iter   2:  -423.81383123201886   -2.15259e-01   1.23808e-03 DIIS
   @RHF iter   3:  -423.84774018890505   -3.39090e-02   2.82402e-04 DIIS
   @RHF iter   4:  -423.85059920121978   -2.85901e-03   1.15404e-04 DIIS
   @RHF iter   5:  -423.85094077027878   -3.41569e-04   2.08191e-05 DIIS
   @RHF iter   6:  -423.85095826715343   -1.74969e-05   6.27762e-06 DIIS
   @RHF iter   7:  -423.85095983941244   -1.57226e-06   2.00976e-06 DIIS
   @RHF iter   8:  -423.85096004705900   -2.07647e-07   7.36571e-07 DIIS
   @RHF iter   9:  -423.85096007672416   -2.96652e-08   2.64348e-07 DIIS
   @RHF iter  10:  -423.85096008132439   -4.60022e-09   9.77618e-08 DIIS
   @RHF iter  11:  -423.85096008249974   -1.17535e-09   4.56715e-08 DIIS
   @RHF iter  12:  -423.85096008276275   -2.63014e-10   2.34976e-08 DIIS
   @RHF iter  13:  -423.85096008282710   -6.43468e-11   8.00858e-09 DIIS
   @RHF iter  14:  -423.85096008283620   -9.09495e-12   1.99744e-09 DIIS
   @RHF iter  15:  -423.85096008283421    1.98952e-12   7.63241e-10 DIIS
   @RHF iter  16:  -423.85096008283301    1.19371e-12   2.83287e-10 DIIS
   @RHF iter  17:  -423.85096008283369   -6.82121e-13   1.26707e-10 DIIS
   @RHF iter  18:  -423.85096008283426   -5.68434e-13   6.43241e-11 DIIS
  Energy and wave function converged.

  ==> Post-Iterations <==

    Orbital Energies [Eh]
    ---------------------

    Doubly Occupied:

       1A    -20.581107     2A    -11.298680     3A    -11.240360
       4A    -11.238889     5A    -11.235450     6A    -11.233492
       7A    -11.229759     8A    -11.228327     9A    -11.227392
      10A    -11.221484    11A     -1.397854    12A     -1.149469
      13A     -1.039245    14A     -1.024988    15A     -1.014992
      16A     -0.928275    17A     -0.846287    18A     -0.843298
      19A     -0.802658    20A     -0.732209    21A     -0.668363
      22A     -0.645398    23A     -0.611738    24A     -0.605228
      25A     -0.603938    26A     -0.585109    27A     -0.580556
      28A     -0.568399    29A     -0.564363    30A     -0.531124
      31A     -0.509044    32A     -0.499468    33A     -0.493632
      34A     -0.490851    35A     -0.482074    36A     -0.465129
      37A     -0.336612    38A     -0.302345

    Virtual:

      39A      0.128741    40A      0.152934    41A      0.158730
      42A      0.178557    43A      0.199445    44A      0.215224
      45A      0.228327    46A      0.237326    47A      0.253032
      48A      0.263006    49A      0.268773    50A      0.279738
      51A      0.294241    52A      0.299709    53A      0.311876
      54A      0.325763    55A      0.372008    56A      0.379494
      57A      0.390401    58A      0.431648    59A      0.457133
      60A      0.487455    61A      0.495128    62A      0.514730
      63A      0.591825    64A      0.598816    65A      0.608719
      66A      0.620112    67A      0.627027    68A      0.635200
      69A      0.664001    70A      0.675089    71A      0.685914
      72A      0.696692    73A      0.718302    74A      0.732087
      75A      0.738360    76A      0.747314    77A      0.766159
      78A      0.774271    79A      0.787654    80A      0.791152
      81A      0.813112    82A      0.827240    83A      0.836709
      84A      0.844989    85A      0.869627    86A      0.882412
      87A      0.887751    88A      0.892638    89A      0.893506
      90A      0.897817    91A      0.904527    92A      0.907778
      93A      0.922633    94A      0.940529    95A      0.949470
      96A      0.952542    97A      0.964502    98A      0.989374
      99A      0.999451   100A      1.033849   101A      1.060013
     102A      1.069909   103A      1.107334   104A      1.127430
     105A      1.141760   106A      1.152255   107A      1.156036
     108A      1.195732   109A      1.202907   110A      1.246433
     111A      1.248692   112A      1.260051   113A      1.278233
     114A      1.289584   115A      1.301394   116A      1.319032
     117A      1.328210   118A      1.363542   119A      1.372505
     120A      1.396522   121A      1.454329   122A      1.472729
     123A      1.496767   124A      1.511595   125A      1.522439
     126A      1.559882   127A      1.590757   128A      1.618893
     129A      1.628027   130A      1.679763   131A      1.688514
     132A      1.693165   133A      1.699262   134A      1.729375
     135A      1.745737   136A      1.781157   137A      1.800925
     138A      1.813434   139A      1.852743   140A      1.869075
     141A      1.871634   142A      1.874969   143A      1.895234
     144A      1.898904   145A      1.901207   146A      1.919442
     147A      1.935140   148A      1.939565   149A      1.941105
     150A      1.948404   151A      1.956053   152A      1.964457
     153A      1.966867   154A      1.978079   155A      1.984562
     156A      1.988280   157A      2.036803   158A      2.040917
     159A      2.058839   160A      2.074780   161A      2.080740
     162A      2.089944   163A      2.112827   164A      2.126424
     165A      2.162079   166A      2.189036   167A      2.215889
     168A      2.228806   169A      2.258077   170A      2.274431
     171A      2.307211   172A      2.312257   173A      2.325291
     174A      2.366957   175A      2.369556   176A      2.392592
     177A      2.439291   178A      2.455880   179A      2.479161
     180A      2.484644   181A      2.491739   182A      2.531654
     183A      2.542081   184A      2.555335   185A      2.575375
     186A      2.612988   187A      2.657405   188A      2.740750
     189A      2.758145   190A      2.771151   191A      2.789789
     192A      2.800675   193A      2.827046   194A      2.852191
     195A      2.853848   196A      2.876065   197A      2.893561
     198A      2.943862   199A      2.957425   200A      2.971647
     201A      3.009470   202A      3.080400   203A      3.134237
     204A      3.252182   205A      3.292966   206A      3.348645
     207A      3.575980   208A      3.646796   209A      3.996155
     210A      4.184982

    Final Occupation by Irrep:
              A
    DOCC [    38 ]

  @RHF Final Energy:  -423.85096008283426

   => Energetics <=

    Nuclear Repulsion Energy =            495.1570263292617824
    One-Electron Energy =               -1555.9007978507788721
    Two-Electron Energy =                 636.8928114386828838
    Total Energy =                       -423.8509600828342627

Computation Completed

Properties will be evaluated at   0.000000,   0.000000,   0.000000 [a0]

Properties computed using the SCF density matrix

  Nuclear Dipole Moment: [e a0]
     X:    -1.4597      Y:     7.6716      Z:   -11.6300

  Electronic Dipole Moment: [e a0]
     X:     1.3022      Y:    -7.2363      Z:    11.2724

  Dipole Moment: [e a0]
     X:    -0.1575      Y:     0.4353      Z:    -0.3576     Total:     0.5849

  Dipole Moment: [D]
     X:    -0.4004      Y:     1.1064      Z:    -0.9090     Total:     1.4868

*** tstop() called on ds3 at Mon Apr 27 00:41:49 2020
Module time:
	user time   =      84.49 seconds =       1.41 minutes
	system time =      38.57 seconds =       0.64 minutes
	total time  =        490 seconds =       8.17 minutes
Total time:
	user time   =      84.49 seconds =       1.41 minutes
	system time =      38.57 seconds =       0.64 minutes
	total time  =        490 seconds =       8.17 minutes
                                     G D M A

                                 by Anthony Stone

                           version 2.2.06, 22 June 2011

               Distributed Multipoles from Gaussian wavefunctions

Starting at 0:41:49 on 27 Apr 2020

Using SCF density matrix from file ./SSI/SSI-022VAL-079TYR-2-dimer.test.10267.fchk

                         Distributed Multipole Analysis

Standard DMA

Positions and radii in angstrom
Multipole moments in atomic units, ea_0^k for rank k

C          x = -0.129712  y =  0.683595  z = -3.684090 angstrom
           Maximum rank =  0   Radius =  0.650 angstrom
                   Q00  =  -0.236280

C          x = -1.565712  y =  0.154595  z = -3.630090 angstrom
           Maximum rank =  0   Radius =  0.650 angstrom
                   Q00  =  -0.240753

H          x = -0.083712  y =  1.587595  z = -4.294090 angstrom
           Maximum rank =  0   Radius =  0.325 angstrom
                   Q00  =   0.080365

H          x =  0.218288  y =  0.921595  z = -2.678090 angstrom
           Maximum rank =  0   Radius =  0.325 angstrom
                   Q00  =   0.086999

H          x =  0.541288  y = -0.071405  z = -4.092090 angstrom
           Maximum rank =  0   Radius =  0.325 angstrom
                   Q00  =   0.082873

H          x = -1.533712  y = -0.797405  z = -3.103090 angstrom
           Maximum rank =  0   Radius =  0.325 angstrom
                   Q00  =   0.059717

H          x = -1.986336  y = -0.036075  z = -4.628450 angstrom
           Maximum rank =  0   Radius =  0.325 angstrom
                   Q00  =   0.087642

H          x = -2.216625  y =  0.833135  z = -3.059210 angstrom
           Maximum rank =  0   Radius =  0.325 angstrom
                   Q00  =   0.079224

C          x =  1.072288  y =  2.579595  z =  1.841910 angstrom
           Maximum rank =  0   Radius =  0.650 angstrom
                   Q00  =  -0.208840

C          x = -0.503712  y = -0.294405  z = -0.104090 angstrom
           Maximum rank =  0   Radius =  0.650 angstrom
                   Q00  =  -0.094637

C          x = -0.130712  y =  1.002595  z =  0.285910 angstrom
           Maximum rank =  0   Radius =  0.650 angstrom
                   Q00  =  -0.057972

C          x = -0.110712  y = -1.397405  z =  0.626910 angstrom
           Maximum rank =  0   Radius =  0.650 angstrom
                   Q00  =   0.266766

C          x =  0.633288  y =  1.201595  z =  1.432910 angstrom
           Maximum rank =  0   Radius =  0.650 angstrom
                   Q00  =  -0.125577

C          x =  0.608288  y = -1.205405  z =  1.811910 angstrom
           Maximum rank =  0   Radius =  0.650 angstrom
                   Q00  =  -0.119077

C          x =  0.975288  y =  0.079595  z =  2.204910 angstrom
           Maximum rank =  0   Radius =  0.650 angstrom
                   Q00  =   0.008160

O          x = -0.538712  y = -2.620405  z =  0.191910 angstrom
           Maximum rank =  0   Radius =  0.650 angstrom
                   Q00  =  -0.655011

H          x = -1.101712  y = -0.440405  z = -0.982090 angstrom
           Maximum rank =  0   Radius =  0.325 angstrom
                   Q00  =   0.067521

H          x = -0.426712  y =  1.850595  z = -0.315090 angstrom
           Maximum rank =  0   Radius =  0.325 angstrom
                   Q00  =   0.065895

H          x = -1.085712  y = -2.559405  z = -0.594090 angstrom
           Maximum rank =  0   Radius =  0.325 angstrom
                   Q00  =   0.409721

H          x =  0.885288  y = -2.063405  z =  2.401910 angstrom
           Maximum rank =  0   Radius =  0.325 angstrom
                   Q00  =   0.081628

H          x =  1.844288  y =  2.900595  z =  1.146910 angstrom
           Maximum rank =  0   Radius =  0.325 angstrom
                   Q00  =   0.098542

H          x =  1.539288  y =  2.497595  z =  2.814910 angstrom
           Maximum rank =  0   Radius =  0.325 angstrom
                   Q00  =   0.096907

H          x =  1.550288  y =  0.209595  z =  3.112910 angstrom
           Maximum rank =  0   Radius =  0.325 angstrom
                   Q00  =   0.066278

H          x =  0.301511  y =  3.364105  z =  1.862880 angstrom
           Maximum rank =  0   Radius =  0.325 angstrom
                   Q00  =   0.099908

Total multipoles referred to origin at
           x =   0.000000,  y =    0.000000,  z =    0.000000 angstrom
                   Q00  =  -0.000000

Finished at 0:41:49 on 27 Apr 2020

  DMA results are available in the Python driver through the
	  variable('DMA DISTRIBUTED MULTIPOLES')
  and
	  variable('DMA TOTAL MULTIPOLES')
  commands.

    Psi4 stopped on: Monday, 27 April 2020 12:41AM
    Psi4 wall time for execution: 0:08:10.17

*** Psi4 exiting successfully. Buy a developer a beer!
