                               Psi4 1.3.2 release

  ==> Input File <==

--------------------------------------------------------------------------
import numpy as np
set {scf_type pk
basis cc-pvdz
d_convergence 10
gdma_switch   0
gdma_limit    0
gdma_origin   [ 0.0,  0.0,  0.0 ]
}
molecule test {
    units Angstrom
    0 1
    --
    0 1
    C               -1.860676244648992    -0.841671141549733     3.688072390816308
    C                0.177323755351008     0.307328858450267     0.742072390816308
    C               -0.979676244648992    -0.335671141549733     1.267072390816308
    C               -0.925676244648992    -0.212671141549733     2.700072390816308
    C                0.207323755351008     0.492328858450267     2.979072390816308
    C               -0.458676244648992    -0.227671141549733    -1.488927609183692
    C                0.447323755351008     0.368328858450267    -0.622927609183692
    C               -1.613676244648992    -0.872671141549733    -1.001927609183692
    C               -1.880676244648992    -0.933671141549733     0.370072390816308
    N                0.874323755351008     0.798328858450267     1.814072390816308
    H               -0.279676244648992    -0.194671141549733    -2.554927609183693
    H                1.332323755351008     0.867328858450267    -0.992927609183692
    H               -2.299676244648992    -1.329671141549733    -1.699927609183692
    H               -2.760676244648992    -1.438671141549733     0.737072390816308
    H                1.758323755351008     1.293328858450267     1.777072390816308
    H                0.558323755351008     0.723328858450267     3.980072390816308
    H               -1.322676244648992    -0.989671141549733     4.625072390816308
    H               -2.109676244648992    -1.822671141549733     3.306072390816308
    H               -2.802036244648992    -0.315197141549733     3.904098390816308
    C                2.016323755351008     0.611328858450267    -4.258927609183692
    C                3.203323755351008     0.667328858450267    -5.204927609183692
    H                1.600323755351008     1.605328858450267    -4.094927609183693
    H                1.240323755351008    -0.019671141549733    -4.691927609183692
    H                2.317323755351008     0.179328858450267    -3.305927609183692
    H                3.515323755351008    -0.356671141549733    -5.404927609183693
    H                4.042313755351008     1.203112858450267    -4.736919609183693
    H                2.915583755351008     1.140403858450267    -6.155404609183692

}
e, wfn = energy('scf', return_wfn=True)
gdma(wfn)
dmavals = variable('DMA DISTRIBUTED MULTIPOLES')
charges = np.array(dmavals)
print(charges)
np.save('SSI-070TRP-084VAL-1-dimer.npy', np.array(charges))--------------------------------------------------------------------------

*** tstart() called on ds3
*** at Sun Apr 26 20:57:41 2020

   => Loading Basis Set <=

    Name: CC-PVDZ
    Role: ORBITAL
    Keyword: BASIS
    atoms 1-9, 20-21   entry C          line   138 file /theoryfs2/ds/metcalf/miniconda2/envs/tf2gpu/share/psi4/basis/cc-pvdz.gbs
    atoms 10           entry N          line   168 file /theoryfs2/ds/metcalf/miniconda2/envs/tf2gpu/share/psi4/basis/cc-pvdz.gbs
    atoms 11-19, 22-27 entry H          line    22 file /theoryfs2/ds/metcalf/miniconda2/envs/tf2gpu/share/psi4/basis/cc-pvdz.gbs

         ---------------------------------------------------------
                                   SCF
               by Justin Turney, Rob Parrish, Andy Simmonett
                          and Daniel G. A. Smith
                              RHF Reference
                        1 Threads,    500 MiB Core
         ---------------------------------------------------------

  ==> Geometry <==

    Molecular point group: c1
    Full point group: C1

    Geometry (in Angstrom), charge = 0, multiplicity = 1:

       Center              X                  Y                   Z               Mass
    ------------   -----------------  -----------------  -----------------  -----------------
         C           -1.860676244649    -0.841671141550     3.688072390816    12.000000000000
         C            0.177323755351     0.307328858450     0.742072390816    12.000000000000
         C           -0.979676244649    -0.335671141550     1.267072390816    12.000000000000
         C           -0.925676244649    -0.212671141550     2.700072390816    12.000000000000
         C            0.207323755351     0.492328858450     2.979072390816    12.000000000000
         C           -0.458676244649    -0.227671141550    -1.488927609184    12.000000000000
         C            0.447323755351     0.368328858450    -0.622927609184    12.000000000000
         C           -1.613676244649    -0.872671141550    -1.001927609184    12.000000000000
         C           -1.880676244649    -0.933671141550     0.370072390816    12.000000000000
         N            0.874323755351     0.798328858450     1.814072390816    14.003074004430
         H           -0.279676244649    -0.194671141550    -2.554927609184     1.007825032230
         H            1.332323755351     0.867328858450    -0.992927609184     1.007825032230
         H           -2.299676244649    -1.329671141550    -1.699927609184     1.007825032230
         H           -2.760676244649    -1.438671141550     0.737072390816     1.007825032230
         H            1.758323755351     1.293328858450     1.777072390816     1.007825032230
         H            0.558323755351     0.723328858450     3.980072390816     1.007825032230
         H           -1.322676244649    -0.989671141550     4.625072390816     1.007825032230
         H           -2.109676244649    -1.822671141550     3.306072390816     1.007825032230
         H           -2.802036244649    -0.315197141550     3.904098390816     1.007825032230
         C            2.016323755351     0.611328858450    -4.258927609184    12.000000000000
         C            3.203323755351     0.667328858450    -5.204927609184    12.000000000000
         H            1.600323755351     1.605328858450    -4.094927609184     1.007825032230
         H            1.240323755351    -0.019671141550    -4.691927609184     1.007825032230
         H            2.317323755351     0.179328858450    -3.305927609184     1.007825032230
         H            3.515323755351    -0.356671141550    -5.404927609184     1.007825032230
         H            4.042313755351     1.203112858450    -4.736919609184     1.007825032230
         H            2.915583755351     1.140403858450    -6.155404609184     1.007825032230

  Running in c1 symmetry.

  Rotational constants: A =      0.06931  B =      0.01140  C =      0.00990 [cm^-1]
  Rotational constants: A =   2077.77561  B =    341.91120  C =    296.74929 [MHz]
  Nuclear repulsion =  631.153807378895294

  Charge       = 0
  Multiplicity = 1
  Electrons    = 88
  Nalpha       = 44
  Nbeta        = 44

  ==> Algorithm <==

  SCF Algorithm Type is PK.
  DIIS enabled.
  MOM disabled.
  Fractional occupation disabled.
  Guess Type is SAD.
  Energy threshold   = 1.00e-06
  Density threshold  = 1.00e-10
  Integral threshold = 0.00e+00

  ==> Primary Basis <==

  Basis Set: CC-PVDZ
    Blend: CC-PVDZ
    Number of shells: 117
    Number of basis function: 243
    Number of Cartesian functions: 255
    Spherical Harmonics?: true
    Max angular momentum: 2

  ==> Pre-Iterations <==

   -------------------------------------------------------
    Irrep   Nso     Nmo     Nalpha   Nbeta   Ndocc  Nsocc
   -------------------------------------------------------
     A        243     243       0       0       0       0
   -------------------------------------------------------
    Total     243     243      44      44      44       0
   -------------------------------------------------------

  ==> Integral Setup <==

  Using integral reordering PK algorithm.
  Sizing the integral batches needed.
  Building batch lookup table.
   Calculation information:
      Number of atoms:                  27
      Number of AO shells:             117
      Number of primitives:            339
      Number of atomic orbitals:       255
      Number of basis functions:       243

      Integral cutoff                 1.00e-12
      Number of threads:                 1

	Batch   1 pq = [       0,    9405] index = [             0,44231715] size =     44231715
	Batch   2 pq = [    9405,   13301] index = [      44231715,88464951] size =     44233236
	Batch   3 pq = [   13301,   16290] index = [      88464951,132690195] size =     44225244
	Batch   4 pq = [   16290,   18810] index = [     132690195,176917455] size =     44227260
	Batch   5 pq = [   18810,   21030] index = [     176917455,221140965] size =     44223510
	Batch   6 pq = [   21030,   23037] index = [     221140965,265363203] size =     44222238
	Batch   7 pq = [   23037,   24883] index = [     265363203,309594286] size =     44231083
	Batch   8 pq = [   24883,   26601] index = [     309594286,353819901] size =     44225615
	Batch   9 pq = [   26601,   28214] index = [     353819901,398029005] size =     44209104
	Batch  10 pq = [   28214,   29646] index = [     398029005,439457481] size =     41428476
  Task number: 40
  Buffer size: 11059200
  Buffer per thread: 2
  We computed 17451830 shell quartets total.
  Whereas there are 23829156 unique shell quartets.

  ==> DiskJK: Disk-Based J/K Matrices <==

    J tasked:                  Yes
    K tasked:                  Yes
    wK tasked:                  No
    Memory [MiB]:              375
    Schwarz Cutoff:          1E-12

    OpenMP threads:              1

  Minimum eigenvalue in the overlap matrix is 2.4590805848E-04.
  Using Symmetric Orthogonalization.

  SCF Guess: Superposition of Atomic Densities via on-the-fly atomic UHF.

  ==> Iterations <==

                        Total Energy        Delta E     RMS |[F,P]|

   @RHF iter SAD:  -478.98759846314800   -4.78988e+02   0.00000e+00
   @RHF iter   1:  -479.48983786086785   -5.02239e-01   2.59943e-03 DIIS
   @RHF iter   2:  -479.72173642838612   -2.31899e-01   1.15221e-03 DIIS
   @RHF iter   3:  -479.76323613046753   -4.14997e-02   3.03099e-04 DIIS
   @RHF iter   4:  -479.76703917512754   -3.80304e-03   1.39902e-04 DIIS
   @RHF iter   5:  -479.76769405728362   -6.54882e-04   1.99471e-05 DIIS
   @RHF iter   6:  -479.76772288641621   -2.88291e-05   8.99735e-06 DIIS
   @RHF iter   7:  -479.76772862773754   -5.74132e-06   3.76551e-06 DIIS
   @RHF iter   8:  -479.76773025515217   -1.62741e-06   1.49187e-06 DIIS
   @RHF iter   9:  -479.76773058685052   -3.31698e-07   6.61923e-07 DIIS
   @RHF iter  10:  -479.76773065314745   -6.62969e-08   3.06255e-07 DIIS
   @RHF iter  11:  -479.76773066956548   -1.64180e-08   1.17221e-07 DIIS
   @RHF iter  12:  -479.76773067196075   -2.39527e-09   3.87652e-08 DIIS
   @RHF iter  13:  -479.76773067212804   -1.67290e-10   1.01105e-08 DIIS
   @RHF iter  14:  -479.76773067213549   -7.44649e-12   4.20094e-09 DIIS
   @RHF iter  15:  -479.76773067213776   -2.27374e-12   2.19299e-09 DIIS
   @RHF iter  16:  -479.76773067213776    0.00000e+00   9.43472e-10 DIIS
   @RHF iter  17:  -479.76773067213998   -2.21689e-12   4.00765e-10 DIIS
   @RHF iter  18:  -479.76773067213577    4.20641e-12   1.58760e-10 DIIS
   @RHF iter  19:  -479.76773067213867   -2.89901e-12   5.26302e-11 DIIS
  Energy and wave function converged.

  ==> Post-Iterations <==

    Orbital Energies [Eh]
    ---------------------

    Doubly Occupied:

       1A    -15.601052     2A    -11.264036     3A    -11.263882
       4A    -11.231006     5A    -11.229968     6A    -11.228555
       7A    -11.225266     8A    -11.221434     9A    -11.220655
      10A    -11.220089    11A    -11.217929    12A    -11.217815
      13A     -1.293542    14A     -1.123968    15A     -1.071759
      16A     -1.022883    17A     -0.994567    18A     -0.985041
      19A     -0.930925    20A     -0.838065    21A     -0.837575
      22A     -0.801881    23A     -0.751421    24A     -0.718487
      25A     -0.662409    26A     -0.640001    27A     -0.603839
      28A     -0.600561    29A     -0.599246    30A     -0.589599
      31A     -0.588419    32A     -0.566072    33A     -0.551091
      34A     -0.536788    35A     -0.526946    36A     -0.502653
      37A     -0.493556    38A     -0.488543    39A     -0.485447
      40A     -0.469468    41A     -0.458418    42A     -0.371233
      43A     -0.292870    44A     -0.274273

    Virtual:

      45A      0.125971    46A      0.168344    47A      0.176831
      48A      0.184457    49A      0.190349    50A      0.205614
      51A      0.221529    52A      0.226946    53A      0.229443
      54A      0.242983    55A      0.253729    56A      0.266040
      57A      0.276860    58A      0.283158    59A      0.289562
      60A      0.295587    61A      0.305219    62A      0.317751
      63A      0.374401    64A      0.382463    65A      0.394644
      66A      0.408840    67A      0.429920    68A      0.449033
      69A      0.474306    70A      0.481300    71A      0.501188
      72A      0.510498    73A      0.591287    74A      0.599076
      75A      0.602010    76A      0.613293    77A      0.634705
      78A      0.637714    79A      0.658374    80A      0.669166
      81A      0.674091    82A      0.694541    83A      0.696177
      84A      0.716370    85A      0.727062    86A      0.731604
      87A      0.739826    88A      0.741619    89A      0.748051
      90A      0.758681    91A      0.766254    92A      0.777413
      93A      0.784342    94A      0.793211    95A      0.803840
      96A      0.843508    97A      0.845094    98A      0.869029
      99A      0.874707   100A      0.882847   101A      0.890025
     102A      0.891854   103A      0.895487   104A      0.900233
     105A      0.906055   106A      0.914507   107A      0.918668
     108A      0.928398   109A      0.933504   110A      0.952851
     111A      0.959663   112A      0.967234   113A      0.977497
     114A      0.984585   115A      0.997162   116A      1.016396
     117A      1.059059   118A      1.069615   119A      1.095906
     120A      1.121131   121A      1.127080   122A      1.127456
     123A      1.145902   124A      1.155299   125A      1.159839
     126A      1.196578   127A      1.202536   128A      1.227533
     129A      1.230755   130A      1.233210   131A      1.242780
     132A      1.270742   133A      1.284076   134A      1.288402
     135A      1.301490   136A      1.326695   137A      1.335591
     138A      1.361506   139A      1.382138   140A      1.417811
     141A      1.450625   142A      1.476178   143A      1.481165
     144A      1.513154   145A      1.541943   146A      1.568016
     147A      1.590013   148A      1.607651   149A      1.625898
     150A      1.648259   151A      1.661647   152A      1.677572
     153A      1.688234   154A      1.693263   155A      1.703556
     156A      1.737860   157A      1.760041   158A      1.772910
     159A      1.783967   160A      1.808788   161A      1.821091
     162A      1.831576   163A      1.859079   164A      1.866295
     165A      1.887978   166A      1.889815   167A      1.903493
     168A      1.908413   169A      1.918836   170A      1.930147
     171A      1.935534   172A      1.941165   173A      1.943681
     174A      1.950301   175A      1.953691   176A      1.962175
     177A      1.966552   178A      1.973294   179A      1.993322
     180A      2.003884   181A      2.009707   182A      2.024981
     183A      2.052932   184A      2.073311   185A      2.081228
     186A      2.085647   187A      2.098434   188A      2.101868
     189A      2.112087   190A      2.116000   191A      2.125935
     192A      2.142994   193A      2.160849   194A      2.184771
     195A      2.197242   196A      2.222217   197A      2.253474
     198A      2.293349   199A      2.300824   200A      2.314379
     201A      2.314548   202A      2.326433   203A      2.349519
     204A      2.360923   205A      2.403586   206A      2.413014
     207A      2.449394   208A      2.456365   209A      2.464124
     210A      2.473741   211A      2.530340   212A      2.562094
     213A      2.572049   214A      2.590122   215A      2.605464
     216A      2.626667   217A      2.660772   218A      2.677006
     219A      2.700998   220A      2.760073   221A      2.774333
     222A      2.776556   223A      2.786887   224A      2.788945
     225A      2.811025   226A      2.823607   227A      2.845397
     228A      2.859515   229A      2.867496   230A      2.893954
     231A      2.909443   232A      2.948312   233A      2.956714
     234A      2.967255   235A      3.028185   236A      3.047544
     237A      3.072245   238A      3.115271   239A      3.196953
     240A      3.298042   241A      3.373936   242A      3.736343
     243A      3.936049

    Final Occupation by Irrep:
              A
    DOCC [    44 ]

  @RHF Final Energy:  -479.76773067213867

   => Energetics <=

    Nuclear Repulsion Energy =            631.1538073788952943
    One-Electron Energy =               -1900.2166081864529588
    Two-Electron Energy =                 789.2950701354191096
    Total Energy =                       -479.7677306721386685

Computation Completed

Properties will be evaluated at   0.000000,   0.000000,   0.000000 [a0]

Properties computed using the SCF density matrix

  Nuclear Dipole Moment: [e a0]
     X:     7.2214      Y:     0.5089      Z:   -14.3564

  Electronic Dipole Moment: [e a0]
     X:    -6.5972      Y:    -0.2053      Z:    14.7408

  Dipole Moment: [e a0]
     X:     0.6241      Y:     0.3036      Z:     0.3844     Total:     0.7934

  Dipole Moment: [D]
     X:     1.5864      Y:     0.7717      Z:     0.9770     Total:     2.0165

*** tstop() called on ds3 at Sun Apr 26 21:05:14 2020
Module time:
	user time   =     147.66 seconds =       2.46 minutes
	system time =      74.89 seconds =       1.25 minutes
	total time  =        453 seconds =       7.55 minutes
Total time:
	user time   =     147.66 seconds =       2.46 minutes
	system time =      74.89 seconds =       1.25 minutes
	total time  =        453 seconds =       7.55 minutes
                                     G D M A

                                 by Anthony Stone

                           version 2.2.06, 22 June 2011

               Distributed Multipoles from Gaussian wavefunctions

Starting at 21:5:14 on 26 Apr 2020

Using SCF density matrix from file ./SSI/SSI-070TRP-084VAL-1-dimer.test.10787.fchk

                         Distributed Multipole Analysis

Standard DMA

Positions and radii in angstrom
Multipole moments in atomic units, ea_0^k for rank k

C          x = -1.860676  y = -0.841671  z =  3.688072 angstrom
           Maximum rank =  0   Radius =  0.650 angstrom
                   Q00  =  -0.211753

C          x =  0.177324  y =  0.307329  z =  0.742072 angstrom
           Maximum rank =  0   Radius =  0.650 angstrom
                   Q00  =   0.293445

C          x = -0.979676  y = -0.335671  z =  1.267072 angstrom
           Maximum rank =  0   Radius =  0.650 angstrom
                   Q00  =  -0.053924

C          x = -0.925676  y = -0.212671  z =  2.700072 angstrom
           Maximum rank =  0   Radius =  0.650 angstrom
                   Q00  =  -0.119353

C          x =  0.207324  y =  0.492329  z =  2.979072 angstrom
           Maximum rank =  0   Radius =  0.650 angstrom
                   Q00  =   0.072573

C          x = -0.458676  y = -0.227671  z = -1.488928 angstrom
           Maximum rank =  0   Radius =  0.650 angstrom
                   Q00  =  -0.069888

C          x =  0.447324  y =  0.368329  z = -0.622928 angstrom
           Maximum rank =  0   Radius =  0.650 angstrom
                   Q00  =  -0.122177

C          x = -1.613676  y = -0.872671  z = -1.001928 angstrom
           Maximum rank =  0   Radius =  0.650 angstrom
                   Q00  =  -0.088209

C          x = -1.880676  y = -0.933671  z =  0.370072 angstrom
           Maximum rank =  0   Radius =  0.650 angstrom
                   Q00  =  -0.097413

N          x =  0.874324  y =  0.798329  z =  1.814072 angstrom
           Maximum rank =  0   Radius =  0.650 angstrom
                   Q00  =  -0.495767

H          x = -0.279676  y = -0.194671  z = -2.554928 angstrom
           Maximum rank =  0   Radius =  0.325 angstrom
                   Q00  =   0.068766

H          x =  1.332324  y =  0.867329  z = -0.992928 angstrom
           Maximum rank =  0   Radius =  0.325 angstrom
                   Q00  =   0.072313

H          x = -2.299676  y = -1.329671  z = -1.699928 angstrom
           Maximum rank =  0   Radius =  0.325 angstrom
                   Q00  =   0.060102

H          x = -2.760676  y = -1.438671  z =  0.737072 angstrom
           Maximum rank =  0   Radius =  0.325 angstrom
                   Q00  =   0.070747

H          x =  1.758324  y =  1.293329  z =  1.777072 angstrom
           Maximum rank =  0   Radius =  0.325 angstrom
                   Q00  =   0.216448

H          x =  0.558324  y =  0.723329  z =  3.980072 angstrom
           Maximum rank =  0   Radius =  0.325 angstrom
                   Q00  =   0.101179

H          x = -1.322676  y = -0.989671  z =  4.625072 angstrom
           Maximum rank =  0   Radius =  0.325 angstrom
                   Q00  =   0.101258

H          x = -2.109676  y = -1.822671  z =  3.306072 angstrom
           Maximum rank =  0   Radius =  0.325 angstrom
                   Q00  =   0.102204

H          x = -2.802036  y = -0.315197  z =  3.904098 angstrom
           Maximum rank =  0   Radius =  0.325 angstrom
                   Q00  =   0.098297

C          x =  2.016324  y =  0.611329  z = -4.258928 angstrom
           Maximum rank =  0   Radius =  0.650 angstrom
                   Q00  =  -0.234258

C          x =  3.203324  y =  0.667329  z = -5.204928 angstrom
           Maximum rank =  0   Radius =  0.650 angstrom
                   Q00  =  -0.237049

H          x =  1.600324  y =  1.605329  z = -4.094928 angstrom
           Maximum rank =  0   Radius =  0.325 angstrom
                   Q00  =   0.078684

H          x =  1.240324  y = -0.019671  z = -4.691928 angstrom
           Maximum rank =  0   Radius =  0.325 angstrom
                   Q00  =   0.077258

H          x =  2.317324  y =  0.179329  z = -3.305928 angstrom
           Maximum rank =  0   Radius =  0.325 angstrom
                   Q00  =   0.078491

H          x =  3.515324  y = -0.356671  z = -5.404928 angstrom
           Maximum rank =  0   Radius =  0.325 angstrom
                   Q00  =   0.078871

H          x =  4.042314  y =  1.203113  z = -4.736920 angstrom
           Maximum rank =  0   Radius =  0.325 angstrom
                   Q00  =   0.078482

H          x =  2.915584  y =  1.140404  z = -6.155405 angstrom
           Maximum rank =  0   Radius =  0.325 angstrom
                   Q00  =   0.080671

Total multipoles referred to origin at
           x =   0.000000,  y =    0.000000,  z =    0.000000 angstrom
                   Q00  =  -0.000000

Finished at 21:5:14 on 26 Apr 2020

  DMA results are available in the Python driver through the
	  variable('DMA DISTRIBUTED MULTIPOLES')
  and
	  variable('DMA TOTAL MULTIPOLES')
  commands.

    Psi4 stopped on: Sunday, 26 April 2020 09:05PM
    Psi4 wall time for execution: 0:07:33.06

*** Psi4 exiting successfully. Buy a developer a beer!
