                               Psi4 1.3.2 release

  ==> Input File <==

--------------------------------------------------------------------------
import numpy as np
set {scf_type pk
basis cc-pvdz
d_convergence 10
gdma_switch   0
gdma_limit    0
gdma_origin   [ 0.0,  0.0,  0.0 ]
}
molecule test {
    units Angstrom
    0 1
    --
    0 1
    C               -2.012673613431303    -1.052176367887045     0.866596028205257
    C               -1.602673613431303    -2.394176367887045     0.235596028205257
    C               -2.782673613431303    -1.154176367887045    -1.420403971794743
    C               -2.855673613431303     1.964823632112955    -1.310403971794742
    C               -2.558673613431302     1.070823632112955    -0.112403971794743
    O               -2.312673613431302     1.579823632112955     0.974596028205257
    N               -2.544673613431303    -0.271176367887045    -0.256403971794743
    H               -2.782673613431303    -1.166176367887045     1.633596028205258
    H               -1.156673613431303    -0.531176367887045     1.299596028205258
    H               -2.321673613431302    -3.168176367887045     0.518596028205257
    H               -0.612673613431303    -2.691176367887045     0.566596028205257
    H               -2.800673613431303    -0.581176367887045    -2.345403971794743
    H               -3.159673613431302     1.298823632112955    -2.109403971794742
    H               -1.624453613431303    -2.212236367887045    -0.849033971794742
    H               -1.948393613431303    -1.866476367887045    -1.339083971794743
    H               -3.740593613431302    -1.686676367887045    -1.326433971794742
    H               -3.624333613431303     2.731993632112955    -1.135433971794742
    H               -1.933073613431303     2.484323632112955    -1.608593971794742
    C                2.779326386568697    -2.288176367887045    -0.572403971794743
    C                1.591326386568697    -0.415176367887045     0.658596028205257
    C                2.647326386568697    -0.850176367887045    -0.144403971794743
    C                1.528326386568697     0.914823632112955     1.110596028205258
    C                2.513326386568697     1.824823632112955     0.767596028205257
    C                3.627326386568697     0.066823632112955    -0.493403971794743
    C                3.562326386568698     1.400823632112955    -0.046403971794743
    H                0.822326386568697    -1.114176367887045     0.939596028205257
    H                0.705326386568697     1.232823632112955     1.734596028205257
    H                3.440326386568698    -2.308176367887045    -1.440403971794743
    H                1.787326386568697    -2.621176367887045    -0.875403971794742
    H                2.470326386568697     2.846823632112955     1.121596028205257
    H                4.448326386568697    -0.262176367887045    -1.113403971794743
    H                4.331326386568697     2.104823632112955    -0.330403971794743
    H                3.116736386568697    -2.947256367887045     0.241086028205257

}
e, wfn = energy('scf', return_wfn=True)
gdma(wfn)
dmavals = variable('DMA DISTRIBUTED MULTIPOLES')
charges = np.array(dmavals)
print(charges)
np.save('SSI-039PRO-165PHE-1-dimer.npy', np.array(charges))--------------------------------------------------------------------------

*** tstart() called on ds3
*** at Sun Apr 26 18:09:18 2020

   => Loading Basis Set <=

    Name: CC-PVDZ
    Role: ORBITAL
    Keyword: BASIS
    atoms 1-5, 19-25  entry C          line   138 file /theoryfs2/ds/metcalf/miniconda2/envs/tf2gpu/share/psi4/basis/cc-pvdz.gbs
    atoms 6           entry O          line   198 file /theoryfs2/ds/metcalf/miniconda2/envs/tf2gpu/share/psi4/basis/cc-pvdz.gbs
    atoms 7           entry N          line   168 file /theoryfs2/ds/metcalf/miniconda2/envs/tf2gpu/share/psi4/basis/cc-pvdz.gbs
    atoms 8-18, 26-33 entry H          line    22 file /theoryfs2/ds/metcalf/miniconda2/envs/tf2gpu/share/psi4/basis/cc-pvdz.gbs

         ---------------------------------------------------------
                                   SCF
               by Justin Turney, Rob Parrish, Andy Simmonett
                          and Daniel G. A. Smith
                              RHF Reference
                        1 Threads,    500 MiB Core
         ---------------------------------------------------------

  ==> Geometry <==

    Molecular point group: c1
    Full point group: C1

    Geometry (in Angstrom), charge = 0, multiplicity = 1:

       Center              X                  Y                   Z               Mass
    ------------   -----------------  -----------------  -----------------  -----------------
         C           -2.012673613431    -1.052176367887     0.866596028205    12.000000000000
         C           -1.602673613431    -2.394176367887     0.235596028205    12.000000000000
         C           -2.782673613431    -1.154176367887    -1.420403971795    12.000000000000
         C           -2.855673613431     1.964823632113    -1.310403971795    12.000000000000
         C           -2.558673613431     1.070823632113    -0.112403971795    12.000000000000
         O           -2.312673613431     1.579823632113     0.974596028205    15.994914619570
         N           -2.544673613431    -0.271176367887    -0.256403971795    14.003074004430
         H           -2.782673613431    -1.166176367887     1.633596028205     1.007825032230
         H           -1.156673613431    -0.531176367887     1.299596028205     1.007825032230
         H           -2.321673613431    -3.168176367887     0.518596028205     1.007825032230
         H           -0.612673613431    -2.691176367887     0.566596028205     1.007825032230
         H           -2.800673613431    -0.581176367887    -2.345403971795     1.007825032230
         H           -3.159673613431     1.298823632113    -2.109403971795     1.007825032230
         H           -1.624453613431    -2.212236367887    -0.849033971795     1.007825032230
         H           -1.948393613431    -1.866476367887    -1.339083971795     1.007825032230
         H           -3.740593613431    -1.686676367887    -1.326433971795     1.007825032230
         H           -3.624333613431     2.731993632113    -1.135433971795     1.007825032230
         H           -1.933073613431     2.484323632113    -1.608593971795     1.007825032230
         C            2.779326386569    -2.288176367887    -0.572403971795    12.000000000000
         C            1.591326386569    -0.415176367887     0.658596028205    12.000000000000
         C            2.647326386569    -0.850176367887    -0.144403971795    12.000000000000
         C            1.528326386569     0.914823632113     1.110596028205    12.000000000000
         C            2.513326386569     1.824823632113     0.767596028205    12.000000000000
         C            3.627326386569     0.066823632113    -0.493403971795    12.000000000000
         C            3.562326386569     1.400823632113    -0.046403971795    12.000000000000
         H            0.822326386569    -1.114176367887     0.939596028205     1.007825032230
         H            0.705326386569     1.232823632113     1.734596028205     1.007825032230
         H            3.440326386569    -2.308176367887    -1.440403971795     1.007825032230
         H            1.787326386569    -2.621176367887    -0.875403971795     1.007825032230
         H            2.470326386569     2.846823632113     1.121596028205     1.007825032230
         H            4.448326386569    -0.262176367887    -1.113403971795     1.007825032230
         H            4.331326386569     2.104823632113    -0.330403971795     1.007825032230
         H            3.116736386569    -2.947256367887     0.241086028205     1.007825032230

  Running in c1 symmetry.

  Rotational constants: A =      0.02996  B =      0.01187  C =      0.00977 [cm^-1]
  Rotational constants: A =    898.27894  B =    355.74916  C =    292.85582 [MHz]
  Nuclear repulsion =  872.598240636834134

  Charge       = 0
  Multiplicity = 1
  Electrons    = 106
  Nalpha       = 53
  Nbeta        = 53

  ==> Algorithm <==

  SCF Algorithm Type is PK.
  DIIS enabled.
  MOM disabled.
  Fractional occupation disabled.
  Guess Type is SAD.
  Energy threshold   = 1.00e-06
  Density threshold  = 1.00e-10
  Integral threshold = 0.00e+00

  ==> Primary Basis <==

  Basis Set: CC-PVDZ
    Blend: CC-PVDZ
    Number of shells: 141
    Number of basis function: 291
    Number of Cartesian functions: 305
    Spherical Harmonics?: true
    Max angular momentum: 2

  ==> Pre-Iterations <==

   -------------------------------------------------------
    Irrep   Nso     Nmo     Nalpha   Nbeta   Ndocc  Nsocc
   -------------------------------------------------------
     A        291     291       0       0       0       0
   -------------------------------------------------------
    Total     291     291      53      53      53       0
   -------------------------------------------------------

  ==> Integral Setup <==

  Using integral reordering PK algorithm.
  Sizing the integral batches needed.
  Building batch lookup table.
   Calculation information:
      Number of atoms:                  33
      Number of AO shells:             141
      Number of primitives:            403
      Number of atomic orbitals:       305
      Number of basis functions:       291

      Integral cutoff                 1.00e-12
      Number of threads:                 1

	Batch   1 pq = [       0,    9405] index = [             0,44231715] size =     44231715
	Batch   2 pq = [    9405,   13301] index = [      44231715,88464951] size =     44233236
	Batch   3 pq = [   13301,   16290] index = [      88464951,132690195] size =     44225244
	Batch   4 pq = [   16290,   18810] index = [     132690195,176917455] size =     44227260
	Batch   5 pq = [   18810,   21030] index = [     176917455,221140965] size =     44223510
	Batch   6 pq = [   21030,   23037] index = [     221140965,265363203] size =     44222238
	Batch   7 pq = [   23037,   24883] index = [     265363203,309594286] size =     44231083
	Batch   8 pq = [   24883,   26601] index = [     309594286,353819901] size =     44225615
	Batch   9 pq = [   26601,   28214] index = [     353819901,398029005] size =     44209104
	Batch  10 pq = [   28214,   29740] index = [     398029005,442248670] size =     44219665
	Batch  11 pq = [   29740,   31191] index = [     442248670,486454836] size =     44206166
	Batch  12 pq = [   31191,   32578] index = [     486454836,530679331] size =     44224495
	Batch  13 pq = [   32578,   33908] index = [     530679331,574893186] size =     44213855
	Batch  14 pq = [   33908,   35188] index = [     574893186,619115266] size =     44222080
	Batch  15 pq = [   35188,   36423] index = [     619115266,663335676] size =     44220410
	Batch  16 pq = [   36423,   37617] index = [     663335676,707538153] size =     44202477
	Batch  17 pq = [   37617,   38775] index = [     707538153,751769700] size =     44231547
	Batch  18 pq = [   38775,   39899] index = [     751769700,795985050] size =     44215350
	Batch  19 pq = [   39899,   40992] index = [     795985050,840192528] size =     44207478
	Batch  20 pq = [   40992,   42057] index = [     840192528,884416653] size =     44224125
	Batch  21 pq = [   42057,   42486] index = [     884416653,902551341] size =     18134688
  Task number: 82
  Buffer size: 11059200
  Buffer per thread: 2
  We computed 51014265 shell quartets total.
  Whereas there are 50115066 unique shell quartets.
     1.79 percent of shell quartets recomputed by reordering.

  ==> DiskJK: Disk-Based J/K Matrices <==

    J tasked:                  Yes
    K tasked:                  Yes
    wK tasked:                  No
    Memory [MiB]:              375
    Schwarz Cutoff:          1E-12

    OpenMP threads:              1

  Minimum eigenvalue in the overlap matrix is 2.9922424314E-04.
  Using Symmetric Orthogonalization.

  SCF Guess: Superposition of Atomic Densities via on-the-fly atomic UHF.

  ==> Iterations <==

                        Total Energy        Delta E     RMS |[F,P]|

   @RHF iter SAD:  -593.86935313549361   -5.93869e+02   0.00000e+00
   @RHF iter   1:  -594.29250537649330   -4.23152e-01   2.58128e-03 DIIS
   @RHF iter   2:  -594.57666103169038   -2.84156e-01   1.35613e-03 DIIS
   @RHF iter   3:  -594.64006889143593   -6.34079e-02   3.51828e-04 DIIS
   @RHF iter   4:  -594.64614309557021   -6.07420e-03   1.34784e-04 DIIS
   @RHF iter   5:  -594.64704694963780   -9.03854e-04   2.23808e-05 DIIS
   @RHF iter   6:  -594.64709845808727   -5.15084e-05   1.12100e-05 DIIS
   @RHF iter   7:  -594.64710899146667   -1.05334e-05   4.09730e-06 DIIS
   @RHF iter   8:  -594.64711115662692   -2.16516e-06   1.69213e-06 DIIS
   @RHF iter   9:  -594.64711151082292   -3.54196e-07   5.38018e-07 DIIS
   @RHF iter  10:  -594.64711153891972   -2.80968e-08   1.65073e-07 DIIS
   @RHF iter  11:  -594.64711154154543   -2.62571e-09   6.72668e-08 DIIS
   @RHF iter  12:  -594.64711154188967   -3.44244e-10   2.26196e-08 DIIS
   @RHF iter  13:  -594.64711154194674   -5.70708e-11   7.29959e-09 DIIS
   @RHF iter  14:  -594.64711154195459   -7.84439e-12   3.07472e-09 DIIS
   @RHF iter  15:  -594.64711154194765    6.93490e-12   1.35152e-09 DIIS
   @RHF iter  16:  -594.64711154195209   -4.43379e-12   6.21304e-10 DIIS
   @RHF iter  17:  -594.64711154195425   -2.16005e-12   2.18757e-10 DIIS
   @RHF iter  18:  -594.64711154195072    3.52429e-12   8.34563e-11 DIIS
  Energy and wave function converged.

  ==> Post-Iterations <==

    Orbital Energies [Eh]
    ---------------------

    Doubly Occupied:

       1A    -20.499123     2A    -15.583873     3A    -11.342260
       4A    -11.267054     5A    -11.261513     6A    -11.237800
       7A    -11.235745     8A    -11.234573     9A    -11.231826
      10A    -11.230702    11A    -11.228059    12A    -11.227643
      13A    -11.226955    14A    -11.219346    15A     -1.367925
      16A     -1.248314    17A     -1.147997    18A     -1.061427
      19A     -1.044733    20A     -1.003165    21A     -0.997552
      22A     -0.977302    23A     -0.931489    24A     -0.851093
      25A     -0.824092    26A     -0.789261    27A     -0.758017
      28A     -0.725979    29A     -0.689112    30A     -0.667306
      31A     -0.655498    32A     -0.628937    33A     -0.627634
      34A     -0.616247    35A     -0.592182    36A     -0.579492
      37A     -0.578914    38A     -0.569290    39A     -0.561328
      40A     -0.557935    41A     -0.539487    42A     -0.537022
      43A     -0.523800    44A     -0.508494    45A     -0.484191
      46A     -0.480340    47A     -0.477713    48A     -0.476447
      49A     -0.423266    50A     -0.401569    51A     -0.353816
      52A     -0.324880    53A     -0.321559

    Virtual:

      54A      0.133442    55A      0.145724    56A      0.166754
      57A      0.186243    58A      0.192251    59A      0.196320
      60A      0.210225    61A      0.219071    62A      0.226255
      63A      0.235350    64A      0.249361    65A      0.253491
      66A      0.255238    67A      0.258963    68A      0.279870
      69A      0.286382    70A      0.290809    71A      0.294138
      72A      0.298115    73A      0.342612    74A      0.344613
      75A      0.351728    76A      0.360735    77A      0.368890
      78A      0.391156    79A      0.399613    80A      0.413383
      81A      0.450542    82A      0.469853    83A      0.476272
      84A      0.485954    85A      0.492850    86A      0.522322
      87A      0.530350    88A      0.565355    89A      0.575225
      90A      0.594083    91A      0.601198    92A      0.621330
      93A      0.640507    94A      0.650225    95A      0.668835
      96A      0.674450    97A      0.681869    98A      0.693252
      99A      0.695115   100A      0.700971   101A      0.712184
     102A      0.721444   103A      0.729919   104A      0.743200
     105A      0.748237   106A      0.752438   107A      0.762844
     108A      0.772740   109A      0.774703   110A      0.782177
     111A      0.800758   112A      0.806476   113A      0.820653
     114A      0.833084   115A      0.843620   116A      0.850952
     117A      0.859829   118A      0.864872   119A      0.870597
     120A      0.873878   121A      0.874599   122A      0.883383
     123A      0.887635   124A      0.893065   125A      0.902742
     126A      0.908307   127A      0.917325   128A      0.918245
     129A      0.928910   130A      0.939530   131A      0.948629
     132A      0.956719   133A      0.971733   134A      0.982757
     135A      0.998521   136A      1.008404   137A      1.017038
     138A      1.033334   139A      1.057463   140A      1.059160
     141A      1.083166   142A      1.110422   143A      1.128473
     144A      1.130437   145A      1.152103   146A      1.160400
     147A      1.167645   148A      1.191456   149A      1.200807
     150A      1.210740   151A      1.226810   152A      1.239552
     153A      1.246616   154A      1.255132   155A      1.268005
     156A      1.280555   157A      1.306157   158A      1.317597
     159A      1.322443   160A      1.335418   161A      1.345924
     162A      1.380985   163A      1.410584   164A      1.415393
     165A      1.433220   166A      1.434084   167A      1.481786
     168A      1.508062   169A      1.516443   170A      1.535274
     171A      1.549558   172A      1.565260   173A      1.570913
     174A      1.588605   175A      1.603101   176A      1.621599
     177A      1.643125   178A      1.662187   179A      1.665073
     180A      1.673646   181A      1.683100   182A      1.697493
     183A      1.730394   184A      1.736245   185A      1.751569
     186A      1.767644   187A      1.779850   188A      1.796313
     189A      1.804883   190A      1.807857   191A      1.840316
     192A      1.851703   193A      1.862747   194A      1.874030
     195A      1.889658   196A      1.896958   197A      1.897911
     198A      1.899453   199A      1.902335   200A      1.915349
     201A      1.917346   202A      1.922783   203A      1.930500
     204A      1.933721   205A      1.945295   206A      1.950451
     207A      1.965409   208A      1.982741   209A      1.989883
     210A      1.995630   211A      2.005327   212A      2.023309
     213A      2.027604   214A      2.043385   215A      2.056440
     216A      2.063002   217A      2.065976   218A      2.073214
     219A      2.096750   220A      2.111893   221A      2.111939
     222A      2.118101   223A      2.135416   224A      2.141230
     225A      2.155793   226A      2.165964   227A      2.171707
     228A      2.187895   229A      2.195272   230A      2.200162
     231A      2.223880   232A      2.233341   233A      2.250183
     234A      2.272452   235A      2.283486   236A      2.300263
     237A      2.310217   238A      2.318081   239A      2.325956
     240A      2.329812   241A      2.345321   242A      2.373487
     243A      2.380057   244A      2.414638   245A      2.461647
     246A      2.475246   247A      2.489431   248A      2.514576
     249A      2.520560   250A      2.524133   251A      2.539637
     252A      2.595741   253A      2.617775   254A      2.623622
     255A      2.665196   256A      2.713281   257A      2.739592
     258A      2.748010   259A      2.755671   260A      2.757785
     261A      2.776732   262A      2.779450   263A      2.783728
     264A      2.794388   265A      2.803227   266A      2.824324
     267A      2.837169   268A      2.843760   269A      2.844680
     270A      2.865404   271A      2.885146   272A      2.896933
     273A      2.919103   274A      2.976768   275A      3.001222
     276A      3.028369   277A      3.034604   278A      3.103004
     279A      3.112386   280A      3.148307   281A      3.180440
     282A      3.184577   283A      3.200973   284A      3.252022
     285A      3.305325   286A      3.360776   287A      3.522357
     288A      3.836332   289A      3.914002   290A      3.957607
     291A      4.882659

    Final Occupation by Irrep:
              A
    DOCC [    53 ]

  @RHF Final Energy:  -594.64711154195072

   => Energetics <=

    Nuclear Repulsion Energy =            872.5982406368341344
    One-Electron Energy =               -2538.6281491721283601
    Two-Electron Energy =                1071.3827969933433906
    Total Energy =                       -594.6471115419508351

Computation Completed

Properties will be evaluated at   0.000000,   0.000000,   0.000000 [a0]

Properties computed using the SCF density matrix

  Nuclear Dipole Moment: [e a0]
     X:    -4.3000      Y:    -9.7944      Z:    -6.0110

  Electronic Dipole Moment: [e a0]
     X:     4.1324      Y:     8.7100      Z:     4.7110

  Dipole Moment: [e a0]
     X:    -0.1677      Y:    -1.0844      Z:    -1.3001     Total:     1.7012

  Dipole Moment: [D]
     X:    -0.4262      Y:    -2.7562      Z:    -3.3044     Total:     4.3240

*** tstop() called on ds3 at Sun Apr 26 18:21:36 2020
Module time:
	user time   =     402.67 seconds =       6.71 minutes
	system time =     140.17 seconds =       2.34 minutes
	total time  =        738 seconds =      12.30 minutes
Total time:
	user time   =     402.67 seconds =       6.71 minutes
	system time =     140.17 seconds =       2.34 minutes
	total time  =        738 seconds =      12.30 minutes
                                     G D M A

                                 by Anthony Stone

                           version 2.2.06, 22 June 2011

               Distributed Multipoles from Gaussian wavefunctions

Starting at 18:21:37 on 26 Apr 2020

Using SCF density matrix from file ./SSI/SSI-039PRO-165PHE-1-dimer.test.2922.fchk

                         Distributed Multipole Analysis

Standard DMA

Positions and radii in angstrom
Multipole moments in atomic units, ea_0^k for rank k

C          x = -2.012674  y = -1.052176  z =  0.866596 angstrom
           Maximum rank =  0   Radius =  0.650 angstrom
                   Q00  =  -0.003973

C          x = -1.602674  y = -2.394176  z =  0.235596 angstrom
           Maximum rank =  0   Radius =  0.650 angstrom
                   Q00  =  -0.276172

C          x = -2.782674  y = -1.154176  z = -1.420404 angstrom
           Maximum rank =  0   Radius =  0.650 angstrom
                   Q00  =  -0.055639

C          x = -2.855674  y =  1.964824  z = -1.310404 angstrom
           Maximum rank =  0   Radius =  0.650 angstrom
                   Q00  =  -0.241584

C          x = -2.558674  y =  1.070824  z = -0.112404 angstrom
           Maximum rank =  0   Radius =  0.650 angstrom
                   Q00  =   0.731289

O          x = -2.312674  y =  1.579824  z =  0.974596 angstrom
           Maximum rank =  0   Radius =  0.650 angstrom
                   Q00  =  -0.774616

N          x = -2.544674  y = -0.271176  z = -0.256404 angstrom
           Maximum rank =  0   Radius =  0.650 angstrom
                   Q00  =  -0.488372

H          x = -2.782674  y = -1.166176  z =  1.633596 angstrom
           Maximum rank =  0   Radius =  0.325 angstrom
                   Q00  =   0.077200

H          x = -1.156674  y = -0.531176  z =  1.299596 angstrom
           Maximum rank =  0   Radius =  0.325 angstrom
                   Q00  =   0.093212

H          x = -2.321674  y = -3.168176  z =  0.518596 angstrom
           Maximum rank =  0   Radius =  0.325 angstrom
                   Q00  =   0.102255

H          x = -0.612674  y = -2.691176  z =  0.566596 angstrom
           Maximum rank =  0   Radius =  0.325 angstrom
                   Q00  =   0.094845

H          x = -2.800674  y = -0.581176  z = -2.345404 angstrom
           Maximum rank =  0   Radius =  0.325 angstrom
                   Q00  =   0.102130

H          x = -3.159674  y =  1.298824  z = -2.109404 angstrom
           Maximum rank =  0   Radius =  0.325 angstrom
                   Q00  =   0.075571

H          x = -1.624454  y = -2.212236  z = -0.849034 angstrom
           Maximum rank =  0   Radius =  0.325 angstrom
                   Q00  =   0.082320

H          x = -1.948394  y = -1.866476  z = -1.339084 angstrom
           Maximum rank =  0   Radius =  0.325 angstrom
                   Q00  =   0.129175

H          x = -3.740594  y = -1.686676  z = -1.326434 angstrom
           Maximum rank =  0   Radius =  0.325 angstrom
                   Q00  =   0.092224

H          x = -3.624334  y =  2.731994  z = -1.135434 angstrom
           Maximum rank =  0   Radius =  0.325 angstrom
                   Q00  =   0.130771

H          x = -1.933074  y =  2.484324  z = -1.608594 angstrom
           Maximum rank =  0   Radius =  0.325 angstrom
                   Q00  =   0.130486

C          x =  2.779326  y = -2.288176  z = -0.572404 angstrom
           Maximum rank =  0   Radius =  0.650 angstrom
                   Q00  =  -0.195238

C          x =  1.591326  y = -0.415176  z =  0.658596 angstrom
           Maximum rank =  0   Radius =  0.650 angstrom
                   Q00  =  -0.001846

C          x =  2.647326  y = -0.850176  z = -0.144404 angstrom
           Maximum rank =  0   Radius =  0.650 angstrom
                   Q00  =  -0.103949

C          x =  1.528326  y =  0.914824  z =  1.110596 angstrom
           Maximum rank =  0   Radius =  0.650 angstrom
                   Q00  =  -0.077938

C          x =  2.513326  y =  1.824824  z =  0.767596 angstrom
           Maximum rank =  0   Radius =  0.650 angstrom
                   Q00  =  -0.085137

C          x =  3.627326  y =  0.066824  z = -0.493404 angstrom
           Maximum rank =  0   Radius =  0.650 angstrom
                   Q00  =  -0.087210

C          x =  3.562326  y =  1.400824  z = -0.046404 angstrom
           Maximum rank =  0   Radius =  0.650 angstrom
                   Q00  =  -0.055499

H          x =  0.822326  y = -1.114176  z =  0.939596 angstrom
           Maximum rank =  0   Radius =  0.325 angstrom
                   Q00  =   0.042240

H          x =  0.705326  y =  1.232824  z =  1.734596 angstrom
           Maximum rank =  0   Radius =  0.325 angstrom
                   Q00  =   0.080349

H          x =  3.440326  y = -2.308176  z = -1.440404 angstrom
           Maximum rank =  0   Radius =  0.325 angstrom
                   Q00  =   0.099497

H          x =  1.787326  y = -2.621176  z = -0.875404 angstrom
           Maximum rank =  0   Radius =  0.325 angstrom
                   Q00  =   0.090609

H          x =  2.470326  y =  2.846824  z =  1.121596 angstrom
           Maximum rank =  0   Radius =  0.325 angstrom
                   Q00  =   0.065393

H          x =  4.448326  y = -0.262176  z = -1.113404 angstrom
           Maximum rank =  0   Radius =  0.325 angstrom
                   Q00  =   0.054977

H          x =  4.331326  y =  2.104824  z = -0.330404 angstrom
           Maximum rank =  0   Radius =  0.325 angstrom
                   Q00  =   0.064833

H          x =  3.116736  y = -2.947256  z =  0.241086 angstrom
           Maximum rank =  0   Radius =  0.325 angstrom
                   Q00  =   0.107797

Total multipoles referred to origin at
           x =   0.000000,  y =    0.000000,  z =    0.000000 angstrom
                   Q00  =  -0.000000

Finished at 18:21:37 on 26 Apr 2020

  DMA results are available in the Python driver through the
	  variable('DMA DISTRIBUTED MULTIPOLES')
  and
	  variable('DMA TOTAL MULTIPOLES')
  commands.

    Psi4 stopped on: Sunday, 26 April 2020 06:21PM
    Psi4 wall time for execution: 0:12:18.24

*** Psi4 exiting successfully. Buy a developer a beer!
