                               Psi4 1.3.2 release

  ==> Input File <==

--------------------------------------------------------------------------
import numpy as np
set {scf_type pk
basis cc-pvdz
d_convergence 10
gdma_switch   0
gdma_limit    0
gdma_origin   [ 0.0,  0.0,  0.0 ]
}
molecule test {
    units Angstrom
    0 1
    --
    0 1
    C                0.912841131279169     1.767473548224112    -1.896930634165666
    C                1.249841131279169     1.832473548224112    -3.381930634165666
    H                0.174841131279169     2.521473548224112    -1.623930634165666
    H                0.506841131279169     0.781473548224112    -1.680930634165666
    H                1.815841131279169     1.912473548224112    -1.303930634165666
    H                1.970841131279169     1.043473548224112    -3.603930634165666
    H                1.691902131279169     2.806153548224112    -3.639860634165666
    H                0.340482131279169     1.660813548224112    -3.976570634165666
    C                0.608841131279169    -2.999526451775888    -0.576930634165666
    C               -1.032158868720831     0.134473548224112     0.688069365834334
    C                0.117841131279169    -0.684526451775888     0.554069365834334
    C               -0.271158868720831    -1.850526451775888    -0.192930634165666
    C               -1.593158868720831    -1.701526451775887    -0.468930634165666
    C               -1.008158868720831     1.349473548224112     1.358069365834334
    C                0.192841131279169     1.757473548224112     1.908069365834334
    C                1.321841131279169    -0.248526451775888     1.121069365834334
    C                1.346841131279169     0.970473548224112     1.794069365834334
    N               -2.056158868720831    -0.515526451775888     0.053069365834334
    H               -3.031158868720831    -0.239526451775888     0.062069365834334
    H               -1.899158868720831     1.954473548224112     1.449069365834334
    H               -2.200158868720831    -2.436526451775888    -0.986930634165666
    H                0.243841131279169     2.700473548224112     2.438069365834334
    H                2.215841131279169    -0.851526451775888     1.036069365834334
    H               -0.003158868720831    -3.835526451775888    -0.912930634165666
    H                1.125841131279169    -3.316526451775888     0.330069365834334
    H                2.272841131279169     1.319473548224112     2.233069365834333
    H                1.360502131279169    -2.753766451775888    -1.341530634165666

}
e, wfn = energy('scf', return_wfn=True)
gdma(wfn)
dmavals = variable('DMA DISTRIBUTED MULTIPOLES')
charges = np.array(dmavals)
print(charges)
np.save('SSI-017THR-307TRP-1-dimer.npy', np.array(charges))--------------------------------------------------------------------------

*** tstart() called on ds3
*** at Mon Apr 27 22:28:13 2020

   => Loading Basis Set <=

    Name: CC-PVDZ
    Role: ORBITAL
    Keyword: BASIS
    atoms 1-2, 9-17  entry C          line   138 file /theoryfs2/ds/metcalf/miniconda2/envs/tf2gpu/share/psi4/basis/cc-pvdz.gbs
    atoms 3-8, 19-27 entry H          line    22 file /theoryfs2/ds/metcalf/miniconda2/envs/tf2gpu/share/psi4/basis/cc-pvdz.gbs
    atoms 18         entry N          line   168 file /theoryfs2/ds/metcalf/miniconda2/envs/tf2gpu/share/psi4/basis/cc-pvdz.gbs

         ---------------------------------------------------------
                                   SCF
               by Justin Turney, Rob Parrish, Andy Simmonett
                          and Daniel G. A. Smith
                              RHF Reference
                        1 Threads,    500 MiB Core
         ---------------------------------------------------------

  ==> Geometry <==

    Molecular point group: c1
    Full point group: C1

    Geometry (in Angstrom), charge = 0, multiplicity = 1:

       Center              X                  Y                   Z               Mass
    ------------   -----------------  -----------------  -----------------  -----------------
         C            0.912841131279     1.767473548224    -1.896930634166    12.000000000000
         C            1.249841131279     1.832473548224    -3.381930634166    12.000000000000
         H            0.174841131279     2.521473548224    -1.623930634166     1.007825032230
         H            0.506841131279     0.781473548224    -1.680930634166     1.007825032230
         H            1.815841131279     1.912473548224    -1.303930634166     1.007825032230
         H            1.970841131279     1.043473548224    -3.603930634166     1.007825032230
         H            1.691902131279     2.806153548224    -3.639860634166     1.007825032230
         H            0.340482131279     1.660813548224    -3.976570634166     1.007825032230
         C            0.608841131279    -2.999526451776    -0.576930634166    12.000000000000
         C           -1.032158868721     0.134473548224     0.688069365834    12.000000000000
         C            0.117841131279    -0.684526451776     0.554069365834    12.000000000000
         C           -0.271158868721    -1.850526451776    -0.192930634166    12.000000000000
         C           -1.593158868721    -1.701526451776    -0.468930634166    12.000000000000
         C           -1.008158868721     1.349473548224     1.358069365834    12.000000000000
         C            0.192841131279     1.757473548224     1.908069365834    12.000000000000
         C            1.321841131279    -0.248526451776     1.121069365834    12.000000000000
         C            1.346841131279     0.970473548224     1.794069365834    12.000000000000
         N           -2.056158868721    -0.515526451776     0.053069365834    14.003074004430
         H           -3.031158868721    -0.239526451776     0.062069365834     1.007825032230
         H           -1.899158868721     1.954473548224     1.449069365834     1.007825032230
         H           -2.200158868721    -2.436526451776    -0.986930634166     1.007825032230
         H            0.243841131279     2.700473548224     2.438069365834     1.007825032230
         H            2.215841131279    -0.851526451776     1.036069365834     1.007825032230
         H           -0.003158868721    -3.835526451776    -0.912930634166     1.007825032230
         H            1.125841131279    -3.316526451776     0.330069365834     1.007825032230
         H            2.272841131279     1.319473548224     2.233069365834     1.007825032230
         H            1.360502131279    -2.753766451776    -1.341530634166     1.007825032230

  Running in c1 symmetry.

  Rotational constants: A =      0.02946  B =      0.02577  C =      0.01995 [cm^-1]
  Rotational constants: A =    883.28899  B =    772.46717  C =    598.17051 [MHz]
  Nuclear repulsion =  673.000473957643294

  Charge       = 0
  Multiplicity = 1
  Electrons    = 88
  Nalpha       = 44
  Nbeta        = 44

  ==> Algorithm <==

  SCF Algorithm Type is PK.
  DIIS enabled.
  MOM disabled.
  Fractional occupation disabled.
  Guess Type is SAD.
  Energy threshold   = 1.00e-06
  Density threshold  = 1.00e-10
  Integral threshold = 0.00e+00

  ==> Primary Basis <==

  Basis Set: CC-PVDZ
    Blend: CC-PVDZ
    Number of shells: 117
    Number of basis function: 243
    Number of Cartesian functions: 255
    Spherical Harmonics?: true
    Max angular momentum: 2

  ==> Pre-Iterations <==

   -------------------------------------------------------
    Irrep   Nso     Nmo     Nalpha   Nbeta   Ndocc  Nsocc
   -------------------------------------------------------
     A        243     243       0       0       0       0
   -------------------------------------------------------
    Total     243     243      44      44      44       0
   -------------------------------------------------------

  ==> Integral Setup <==

  Using integral reordering PK algorithm.
  Sizing the integral batches needed.
  Building batch lookup table.
   Calculation information:
      Number of atoms:                  27
      Number of AO shells:             117
      Number of primitives:            339
      Number of atomic orbitals:       255
      Number of basis functions:       243

      Integral cutoff                 1.00e-12
      Number of threads:                 1

	Batch   1 pq = [       0,    9405] index = [             0,44231715] size =     44231715
	Batch   2 pq = [    9405,   13301] index = [      44231715,88464951] size =     44233236
	Batch   3 pq = [   13301,   16290] index = [      88464951,132690195] size =     44225244
	Batch   4 pq = [   16290,   18810] index = [     132690195,176917455] size =     44227260
	Batch   5 pq = [   18810,   21030] index = [     176917455,221140965] size =     44223510
	Batch   6 pq = [   21030,   23037] index = [     221140965,265363203] size =     44222238
	Batch   7 pq = [   23037,   24883] index = [     265363203,309594286] size =     44231083
	Batch   8 pq = [   24883,   26601] index = [     309594286,353819901] size =     44225615
	Batch   9 pq = [   26601,   28214] index = [     353819901,398029005] size =     44209104
	Batch  10 pq = [   28214,   29646] index = [     398029005,439457481] size =     41428476
  Task number: 40
  Buffer size: 11059200
  Buffer per thread: 2
  We computed 25810174 shell quartets total.
  Whereas there are 23829156 unique shell quartets.
     8.31 percent of shell quartets recomputed by reordering.

  ==> DiskJK: Disk-Based J/K Matrices <==

    J tasked:                  Yes
    K tasked:                  Yes
    wK tasked:                  No
    Memory [MiB]:              375
    Schwarz Cutoff:          1E-12

    OpenMP threads:              1

  Minimum eigenvalue in the overlap matrix is 2.4129007721E-04.
  Using Symmetric Orthogonalization.

  SCF Guess: Superposition of Atomic Densities via on-the-fly atomic UHF.

  ==> Iterations <==

                        Total Energy        Delta E     RMS |[F,P]|

   @RHF iter SAD:  -479.06980159533362   -4.79070e+02   0.00000e+00
   @RHF iter   1:  -479.48768810488389   -4.17887e-01   2.61305e-03 DIIS
   @RHF iter   2:  -479.72114111928801   -2.33453e-01   1.15811e-03 DIIS
   @RHF iter   3:  -479.76294081416876   -4.17997e-02   3.02305e-04 DIIS
   @RHF iter   4:  -479.76670306682632   -3.76225e-03   1.40600e-04 DIIS
   @RHF iter   5:  -479.76736235844174   -6.59292e-04   2.00288e-05 DIIS
   @RHF iter   6:  -479.76739140090297   -2.90425e-05   9.18917e-06 DIIS
   @RHF iter   7:  -479.76739726412654   -5.86322e-06   3.77867e-06 DIIS
   @RHF iter   8:  -479.76739890223087   -1.63810e-06   1.48255e-06 DIIS
   @RHF iter   9:  -479.76739922312083   -3.20890e-07   6.47411e-07 DIIS
   @RHF iter  10:  -479.76739928632321   -6.32024e-08   2.98831e-07 DIIS
   @RHF iter  11:  -479.76739930179957   -1.54764e-08   1.13992e-07 DIIS
   @RHF iter  12:  -479.76739930407774   -2.27817e-09   3.74005e-08 DIIS
   @RHF iter  13:  -479.76739930423850   -1.60753e-10   1.08574e-08 DIIS
   @RHF iter  14:  -479.76739930424833   -9.83391e-12   4.82069e-09 DIIS
   @RHF iter  15:  -479.76739930425560   -7.27596e-12   2.34365e-09 DIIS
   @RHF iter  16:  -479.76739930425208    3.52429e-12   9.80706e-10 DIIS
   @RHF iter  17:  -479.76739930425185    2.27374e-13   4.26518e-10 DIIS
   @RHF iter  18:  -479.76739930425106    7.95808e-13   1.62463e-10 DIIS
   @RHF iter  19:  -479.76739930425504   -3.97904e-12   5.73322e-11 DIIS
  Energy and wave function converged.

  ==> Post-Iterations <==

    Orbital Energies [Eh]
    ---------------------

    Doubly Occupied:

       1A    -15.600925     2A    -11.264305     3A    -11.263399
       4A    -11.230756     5A    -11.230124     6A    -11.228852
       7A    -11.227545     8A    -11.221216     9A    -11.219778
      10A    -11.218023    11A    -11.206731    12A    -11.196502
      13A     -1.295675    14A     -1.128818    15A     -1.074292
      16A     -1.004325    17A     -0.997410    18A     -0.987933
      19A     -0.932195    20A     -0.839697    21A     -0.820295
      22A     -0.803843    23A     -0.752811    24A     -0.719797
      25A     -0.662937    26A     -0.641885    27A     -0.603237
      28A     -0.595821    29A     -0.590221    30A     -0.584230
      31A     -0.581474    32A     -0.568182    33A     -0.553939
      34A     -0.536519    35A     -0.527954    36A     -0.494930
      37A     -0.487106    38A     -0.472006    39A     -0.471538
      40A     -0.470222    41A     -0.457139    42A     -0.372350
      43A     -0.294858    44A     -0.276612

    Virtual:

      45A      0.125769    46A      0.167847    47A      0.177983
      48A      0.183321    49A      0.201204    50A      0.202218
      51A      0.223053    52A      0.231234    53A      0.231699
      54A      0.259698    55A      0.262578    56A      0.265880
      57A      0.270836    58A      0.277128    59A      0.285348
      60A      0.292799    61A      0.303091    62A      0.322733
      63A      0.374361    64A      0.383858    65A      0.404734
      66A      0.409553    67A      0.419558    68A      0.445057
      69A      0.472775    70A      0.481908    71A      0.499937
      72A      0.521352    73A      0.574782    74A      0.595928
      75A      0.602896    76A      0.610218    77A      0.623773
      78A      0.634034    79A      0.638242    80A      0.654880
      81A      0.666953    82A      0.677169    83A      0.704509
      84A      0.715085    85A      0.729418    86A      0.733594
      87A      0.743640    88A      0.754506    89A      0.763760
      90A      0.774817    91A      0.779053    92A      0.787865
      93A      0.789656    94A      0.809831    95A      0.833444
      96A      0.851953    97A      0.867576    98A      0.871079
      99A      0.877419   100A      0.883767   101A      0.887090
     102A      0.895189   103A      0.906053   104A      0.909052
     105A      0.910805   106A      0.928356   107A      0.938499
     108A      0.946268   109A      0.946942   110A      0.954697
     111A      0.956878   112A      0.983082   113A      0.987777
     114A      1.009151   115A      1.025702   116A      1.064533
     117A      1.071520   118A      1.079313   119A      1.092939
     120A      1.125290   121A      1.133157   122A      1.141006
     123A      1.143582   124A      1.154395   125A      1.172531
     126A      1.176277   127A      1.213021   128A      1.226630
     129A      1.230194   130A      1.239816   131A      1.253794
     132A      1.272149   133A      1.286074   134A      1.296618
     135A      1.300533   136A      1.327040   137A      1.334485
     138A      1.360293   139A      1.372450   140A      1.403149
     141A      1.443561   142A      1.486158   143A      1.494249
     144A      1.534728   145A      1.561851   146A      1.579053
     147A      1.587892   148A      1.620277   149A      1.637484
     150A      1.645483   151A      1.652694   152A      1.685650
     153A      1.690106   154A      1.692442   155A      1.714214
     156A      1.756342   157A      1.766807   158A      1.777147
     159A      1.789238   160A      1.810255   161A      1.831946
     162A      1.837790   163A      1.876831   164A      1.880183
     165A      1.887698   166A      1.895246   167A      1.904908
     168A      1.911134   169A      1.919930   170A      1.928201
     171A      1.938542   172A      1.949929   173A      1.956174
     174A      1.959920   175A      1.968321   176A      1.974202
     177A      1.976344   178A      1.986173   179A      2.007905
     180A      2.012242   181A      2.020308   182A      2.043540
     183A      2.061773   184A      2.082292   185A      2.091023
     186A      2.100521   187A      2.108698   188A      2.115850
     189A      2.122317   190A      2.127246   191A      2.132483
     192A      2.147157   193A      2.158501   194A      2.172129
     195A      2.189906   196A      2.224436   197A      2.240785
     198A      2.293057   199A      2.299048   200A      2.318212
     201A      2.324150   202A      2.328672   203A      2.339566
     204A      2.365127   205A      2.394932   206A      2.424102
     207A      2.451729   208A      2.470550   209A      2.481984
     210A      2.486541   211A      2.541263   212A      2.568221
     213A      2.582095   214A      2.606189   215A      2.607453
     216A      2.639828   217A      2.662605   218A      2.680867
     219A      2.706105   220A      2.767826   221A      2.775994
     222A      2.777771   223A      2.787649   224A      2.800736
     225A      2.823419   226A      2.828401   227A      2.866956
     228A      2.873373   229A      2.874164   230A      2.887456
     231A      2.909044   232A      2.970487   233A      2.979703
     234A      2.999252   235A      3.045933   236A      3.068627
     237A      3.085046   238A      3.126126   239A      3.203413
     240A      3.308652   241A      3.380584   242A      3.741470
     243A      3.951741

    Final Occupation by Irrep:
              A
    DOCC [    44 ]

  @RHF Final Energy:  -479.76739930425504

   => Energetics <=

    Nuclear Repulsion Energy =            673.0004739576432939
    One-Electron Energy =               -1984.1189332991043557
    Two-Electron Energy =                 831.3510600372059116
    Total Energy =                       -479.7673993042550364

Computation Completed

Properties will be evaluated at   0.000000,   0.000000,   0.000000 [a0]

Properties computed using the SCF density matrix

  Nuclear Dipole Moment: [e a0]
     X:     6.1801      Y:     3.0641      Z:   -10.8018

  Electronic Dipole Moment: [e a0]
     X:    -6.9530      Y:    -3.2873      Z:    10.7087

  Dipole Moment: [e a0]
     X:    -0.7729      Y:    -0.2232      Z:    -0.0931     Total:     0.8098

  Dipole Moment: [D]
     X:    -1.9645      Y:    -0.5673      Z:    -0.2367     Total:     2.0584

*** tstop() called on ds3 at Mon Apr 27 22:32:51 2020
Module time:
	user time   =     213.65 seconds =       3.56 minutes
	system time =      73.93 seconds =       1.23 minutes
	total time  =        278 seconds =       4.63 minutes
Total time:
	user time   =     213.65 seconds =       3.56 minutes
	system time =      73.93 seconds =       1.23 minutes
	total time  =        278 seconds =       4.63 minutes
                                     G D M A

                                 by Anthony Stone

                           version 2.2.06, 22 June 2011

               Distributed Multipoles from Gaussian wavefunctions

Starting at 22:32:51 on 27 Apr 2020

Using SCF density matrix from file ./SSI/SSI-017THR-307TRP-1-dimer.test.23784.fchk

                         Distributed Multipole Analysis

Standard DMA

Positions and radii in angstrom
Multipole moments in atomic units, ea_0^k for rank k

C          x =  0.912841  y =  1.767474  z = -1.896931 angstrom
           Maximum rank =  0   Radius =  0.650 angstrom
                   Q00  =  -0.223472

C          x =  1.249841  y =  1.832474  z = -3.381931 angstrom
           Maximum rank =  0   Radius =  0.650 angstrom
                   Q00  =  -0.239155

H          x =  0.174841  y =  2.521474  z = -1.623931 angstrom
           Maximum rank =  0   Radius =  0.325 angstrom
                   Q00  =   0.073268

H          x =  0.506841  y =  0.781474  z = -1.680931 angstrom
           Maximum rank =  0   Radius =  0.325 angstrom
                   Q00  =   0.084922

H          x =  1.815841  y =  1.912474  z = -1.303931 angstrom
           Maximum rank =  0   Radius =  0.325 angstrom
                   Q00  =   0.077421

H          x =  1.970841  y =  1.043474  z = -3.603931 angstrom
           Maximum rank =  0   Radius =  0.325 angstrom
                   Q00  =   0.073327

H          x =  1.691902  y =  2.806154  z = -3.639861 angstrom
           Maximum rank =  0   Radius =  0.325 angstrom
                   Q00  =   0.072443

H          x =  0.340482  y =  1.660814  z = -3.976571 angstrom
           Maximum rank =  0   Radius =  0.325 angstrom
                   Q00  =   0.072312

C          x =  0.608841  y = -2.999526  z = -0.576931 angstrom
           Maximum rank =  0   Radius =  0.650 angstrom
                   Q00  =  -0.203727

C          x = -1.032159  y =  0.134474  z =  0.688069 angstrom
           Maximum rank =  0   Radius =  0.650 angstrom
                   Q00  =   0.300129

C          x =  0.117841  y = -0.684526  z =  0.554069 angstrom
           Maximum rank =  0   Radius =  0.650 angstrom
                   Q00  =  -0.055501

C          x = -0.271159  y = -1.850526  z = -0.192931 angstrom
           Maximum rank =  0   Radius =  0.650 angstrom
                   Q00  =  -0.126909

C          x = -1.593159  y = -1.701526  z = -0.468931 angstrom
           Maximum rank =  0   Radius =  0.650 angstrom
                   Q00  =   0.075133

C          x = -1.008159  y =  1.349474  z =  1.358069 angstrom
           Maximum rank =  0   Radius =  0.650 angstrom
                   Q00  =  -0.119431

C          x =  0.192841  y =  1.757474  z =  1.908069 angstrom
           Maximum rank =  0   Radius =  0.650 angstrom
                   Q00  =  -0.075976

C          x =  1.321841  y = -0.248526  z =  1.121069 angstrom
           Maximum rank =  0   Radius =  0.650 angstrom
                   Q00  =  -0.091342

C          x =  1.346841  y =  0.970474  z =  1.794069 angstrom
           Maximum rank =  0   Radius =  0.650 angstrom
                   Q00  =  -0.079940

N          x = -2.056159  y = -0.515526  z =  0.053069 angstrom
           Maximum rank =  0   Radius =  0.650 angstrom
                   Q00  =  -0.497812

H          x = -3.031159  y = -0.239526  z =  0.062069 angstrom
           Maximum rank =  0   Radius =  0.325 angstrom
                   Q00  =   0.216166

H          x = -1.899159  y =  1.954474  z =  1.449069 angstrom
           Maximum rank =  0   Radius =  0.325 angstrom
                   Q00  =   0.072441

H          x = -2.200159  y = -2.436526  z = -0.986931 angstrom
           Maximum rank =  0   Radius =  0.325 angstrom
                   Q00  =   0.101549

H          x =  0.243841  y =  2.700474  z =  2.438069 angstrom
           Maximum rank =  0   Radius =  0.325 angstrom
                   Q00  =   0.064461

H          x =  2.215841  y = -0.851526  z =  1.036069 angstrom
           Maximum rank =  0   Radius =  0.325 angstrom
                   Q00  =   0.069779

H          x = -0.003159  y = -3.835526  z = -0.912931 angstrom
           Maximum rank =  0   Radius =  0.325 angstrom
                   Q00  =   0.104844

H          x =  1.125841  y = -3.316526  z =  0.330069 angstrom
           Maximum rank =  0   Radius =  0.325 angstrom
                   Q00  =   0.096979

H          x =  2.272841  y =  1.319474  z =  2.233069 angstrom
           Maximum rank =  0   Radius =  0.325 angstrom
                   Q00  =   0.059844

H          x =  1.360502  y = -2.753766  z = -1.341531 angstrom
           Maximum rank =  0   Radius =  0.325 angstrom
                   Q00  =   0.098245

Total multipoles referred to origin at
           x =   0.000000,  y =    0.000000,  z =    0.000000 angstrom
                   Q00  =  -0.000000

Finished at 22:32:51 on 27 Apr 2020

  DMA results are available in the Python driver through the
	  variable('DMA DISTRIBUTED MULTIPOLES')
  and
	  variable('DMA TOTAL MULTIPOLES')
  commands.

    Psi4 stopped on: Monday, 27 April 2020 10:32PM
    Psi4 wall time for execution: 0:04:38.46

*** Psi4 exiting successfully. Buy a developer a beer!
