                               Psi4 1.3.2 release

  ==> Input File <==

--------------------------------------------------------------------------
import numpy as np
set {scf_type pk
basis cc-pvdz
d_convergence 10
gdma_switch   0
gdma_limit    0
gdma_origin   [ 0.0,  0.0,  0.0 ]
}
molecule test {
    units Angstrom
    0 1
    --
    0 1
    C                2.688382076969751    -0.277601702064098     0.790017505199541
    C                3.861382076969751     0.705398297935902     0.924017505199541
    C                2.516382076969751    -1.328601702064098     1.898017505199541
    H                1.789382076969751     0.335398297935902     0.742017505199541
    H                2.823382076969751    -0.790601702064098    -0.161982494800459
    H                3.764382076969751     1.243398297935902     1.868017505199541
    H                3.402382076969751    -1.963601702064098     1.921017505199541
    H                3.815424076969751     1.402298297935902     0.074177505199541
    H                4.835422076969752     0.199698297935902     0.849917505199541
    H                2.395125076969751    -0.845701702064098     2.878907505199541
    H                1.630695076969751    -1.945501702064098     1.685987505199541
    C               -2.376617923030249    -1.249601702064098     1.917017505199541
    C               -0.588617923030249     0.937398297935902    -0.631982494800459
    C               -1.264617923030249    -0.276601702064098    -0.294982494800459
    C               -1.747617923030249    -0.154601702064098     1.071017505199541
    C               -1.387617923030249     1.087398297935902     1.486017505199541
    C                0.028382076969751     1.160398297935902    -1.882982494800459
    C               -0.036617923030249     0.133398297935902    -2.820982494800459
    C               -1.308617923030249    -1.295601702064098    -1.263982494800459
    C               -0.701617923030249    -1.073601702064098    -2.512982494800459
    N               -0.693617923030249     1.741398297935902     0.484017505199541
    H               -0.313617923030249     2.677398297935902     0.561017505199541
    H                0.528382076969751     2.101398297935902    -2.085982494800459
    H               -1.648617923030248     1.414398297935902     2.488017505199541
    H                0.423382076969751     0.256398297935902    -3.788982494800459
    H               -1.781617923030249    -2.252601702064098    -1.064982494800459
    H               -1.801617923030249    -1.301601702064098     2.848017505199541
    H               -2.230617923030249    -2.181601702064098     1.372017505199541
    H               -0.750617923030249    -1.860601702064098    -3.253982494800459
    H               -3.464473923030249    -1.249601702064098     2.080017505199541

}
e, wfn = energy('scf', return_wfn=True)
gdma(wfn)
dmavals = variable('DMA DISTRIBUTED MULTIPOLES')
charges = np.array(dmavals)
print(charges)
np.save('SSI-234LEU-286TRP-2-dimer.npy', np.array(charges))--------------------------------------------------------------------------

*** tstart() called on ds3
*** at Mon Apr 27 16:06:23 2020

   => Loading Basis Set <=

    Name: CC-PVDZ
    Role: ORBITAL
    Keyword: BASIS
    atoms 1-3, 12-20  entry C          line   138 file /theoryfs2/ds/metcalf/miniconda2/envs/tf2gpu/share/psi4/basis/cc-pvdz.gbs
    atoms 4-11, 22-30 entry H          line    22 file /theoryfs2/ds/metcalf/miniconda2/envs/tf2gpu/share/psi4/basis/cc-pvdz.gbs
    atoms 21          entry N          line   168 file /theoryfs2/ds/metcalf/miniconda2/envs/tf2gpu/share/psi4/basis/cc-pvdz.gbs

         ---------------------------------------------------------
                                   SCF
               by Justin Turney, Rob Parrish, Andy Simmonett
                          and Daniel G. A. Smith
                              RHF Reference
                        1 Threads,    500 MiB Core
         ---------------------------------------------------------

  ==> Geometry <==

    Molecular point group: c1
    Full point group: C1

    Geometry (in Angstrom), charge = 0, multiplicity = 1:

       Center              X                  Y                   Z               Mass
    ------------   -----------------  -----------------  -----------------  -----------------
         C            2.688382076970    -0.277601702064     0.790017505200    12.000000000000
         C            3.861382076970     0.705398297936     0.924017505200    12.000000000000
         C            2.516382076970    -1.328601702064     1.898017505200    12.000000000000
         H            1.789382076970     0.335398297936     0.742017505200     1.007825032230
         H            2.823382076970    -0.790601702064    -0.161982494800     1.007825032230
         H            3.764382076970     1.243398297936     1.868017505200     1.007825032230
         H            3.402382076970    -1.963601702064     1.921017505200     1.007825032230
         H            3.815424076970     1.402298297936     0.074177505200     1.007825032230
         H            4.835422076970     0.199698297936     0.849917505200     1.007825032230
         H            2.395125076970    -0.845701702064     2.878907505200     1.007825032230
         H            1.630695076970    -1.945501702064     1.685987505200     1.007825032230
         C           -2.376617923030    -1.249601702064     1.917017505200    12.000000000000
         C           -0.588617923030     0.937398297936    -0.631982494800    12.000000000000
         C           -1.264617923030    -0.276601702064    -0.294982494800    12.000000000000
         C           -1.747617923030    -0.154601702064     1.071017505200    12.000000000000
         C           -1.387617923030     1.087398297936     1.486017505200    12.000000000000
         C            0.028382076970     1.160398297936    -1.882982494800    12.000000000000
         C           -0.036617923030     0.133398297936    -2.820982494800    12.000000000000
         C           -1.308617923030    -1.295601702064    -1.263982494800    12.000000000000
         C           -0.701617923030    -1.073601702064    -2.512982494800    12.000000000000
         N           -0.693617923030     1.741398297936     0.484017505200    14.003074004430
         H           -0.313617923030     2.677398297936     0.561017505200     1.007825032230
         H            0.528382076970     2.101398297936    -2.085982494800     1.007825032230
         H           -1.648617923030     1.414398297936     2.488017505200     1.007825032230
         H            0.423382076970     0.256398297936    -3.788982494800     1.007825032230
         H           -1.781617923030    -2.252601702064    -1.064982494800     1.007825032230
         H           -1.801617923030    -1.301601702064     2.848017505200     1.007825032230
         H           -2.230617923030    -2.181601702064     1.372017505200     1.007825032230
         H           -0.750617923030    -1.860601702064    -3.253982494800     1.007825032230
         H           -3.464473923030    -1.249601702064     2.080017505200     1.007825032230

  Running in c1 symmetry.

  Rotational constants: A =      0.02650  B =      0.01930  C =      0.01533 [cm^-1]
  Rotational constants: A =    794.51347  B =    578.52271  C =    459.53156 [MHz]
  Nuclear repulsion =  759.544799973359545

  Charge       = 0
  Multiplicity = 1
  Electrons    = 96
  Nalpha       = 48
  Nbeta        = 48

  ==> Algorithm <==

  SCF Algorithm Type is PK.
  DIIS enabled.
  MOM disabled.
  Fractional occupation disabled.
  Guess Type is SAD.
  Energy threshold   = 1.00e-06
  Density threshold  = 1.00e-10
  Integral threshold = 0.00e+00

  ==> Primary Basis <==

  Basis Set: CC-PVDZ
    Blend: CC-PVDZ
    Number of shells: 129
    Number of basis function: 267
    Number of Cartesian functions: 280
    Spherical Harmonics?: true
    Max angular momentum: 2

  ==> Pre-Iterations <==

   -------------------------------------------------------
    Irrep   Nso     Nmo     Nalpha   Nbeta   Ndocc  Nsocc
   -------------------------------------------------------
     A        267     267       0       0       0       0
   -------------------------------------------------------
    Total     267     267      48      48      48       0
   -------------------------------------------------------

  ==> Integral Setup <==

  Using integral reordering PK algorithm.
  Sizing the integral batches needed.
  Building batch lookup table.
   Calculation information:
      Number of atoms:                  30
      Number of AO shells:             129
      Number of primitives:            371
      Number of atomic orbitals:       280
      Number of basis functions:       267

      Integral cutoff                 1.00e-12
      Number of threads:                 1

	Batch   1 pq = [       0,    9405] index = [             0,44231715] size =     44231715
	Batch   2 pq = [    9405,   13301] index = [      44231715,88464951] size =     44233236
	Batch   3 pq = [   13301,   16290] index = [      88464951,132690195] size =     44225244
	Batch   4 pq = [   16290,   18810] index = [     132690195,176917455] size =     44227260
	Batch   5 pq = [   18810,   21030] index = [     176917455,221140965] size =     44223510
	Batch   6 pq = [   21030,   23037] index = [     221140965,265363203] size =     44222238
	Batch   7 pq = [   23037,   24883] index = [     265363203,309594286] size =     44231083
	Batch   8 pq = [   24883,   26601] index = [     309594286,353819901] size =     44225615
	Batch   9 pq = [   26601,   28214] index = [     353819901,398029005] size =     44209104
	Batch  10 pq = [   28214,   29740] index = [     398029005,442248670] size =     44219665
	Batch  11 pq = [   29740,   31191] index = [     442248670,486454836] size =     44206166
	Batch  12 pq = [   31191,   32578] index = [     486454836,530679331] size =     44224495
	Batch  13 pq = [   32578,   33908] index = [     530679331,574893186] size =     44213855
	Batch  14 pq = [   33908,   35188] index = [     574893186,619115266] size =     44222080
	Batch  15 pq = [   35188,   35778] index = [     619115266,640050531] size =     20935265
  Task number: 58
  Buffer size: 11059200
  Buffer per thread: 2
  We computed 39370038 shell quartets total.
  Whereas there are 35158305 unique shell quartets.
    11.98 percent of shell quartets recomputed by reordering.

  ==> DiskJK: Disk-Based J/K Matrices <==

    J tasked:                  Yes
    K tasked:                  Yes
    wK tasked:                  No
    Memory [MiB]:              375
    Schwarz Cutoff:          1E-12

    OpenMP threads:              1

  Minimum eigenvalue in the overlap matrix is 2.5469145239E-04.
  Using Symmetric Orthogonalization.

  SCF Guess: Superposition of Atomic Densities via on-the-fly atomic UHF.

  ==> Iterations <==

                        Total Energy        Delta E     RMS |[F,P]|

   @RHF iter SAD:  -517.77096910304942   -5.17771e+02   0.00000e+00
   @RHF iter   1:  -518.49154298525912   -7.20574e-01   2.46098e-03 DIIS
   @RHF iter   2:  -518.74518685711109   -2.53644e-01   1.08479e-03 DIIS
   @RHF iter   3:  -518.78989101983962   -4.47042e-02   2.82303e-04 DIIS
   @RHF iter   4:  -518.79396417259818   -4.07315e-03   1.30724e-04 DIIS
   @RHF iter   5:  -518.79465061185920   -6.86439e-04   1.92469e-05 DIIS
   @RHF iter   6:  -518.79468124257312   -3.06307e-05   8.43565e-06 DIIS
   @RHF iter   7:  -518.79468718754970   -5.94498e-06   3.35410e-06 DIIS
   @RHF iter   8:  -518.79468874109637   -1.55355e-06   1.39222e-06 DIIS
   @RHF iter   9:  -518.79468907056480   -3.29468e-07   6.28480e-07 DIIS
   @RHF iter  10:  -518.79468914180029   -7.12355e-08   2.79161e-07 DIIS
   @RHF iter  11:  -518.79468915895120   -1.71509e-08   1.12231e-07 DIIS
   @RHF iter  12:  -518.79468916162796   -2.67676e-09   4.29683e-08 DIIS
   @RHF iter  13:  -518.79468916186170   -2.33740e-10   1.18963e-08 DIIS
   @RHF iter  14:  -518.79468916188455   -2.28511e-11   4.77420e-09 DIIS
   @RHF iter  15:  -518.79468916187966    4.88853e-12   2.21781e-09 DIIS
   @RHF iter  16:  -518.79468916188307   -3.41061e-12   9.73291e-10 DIIS
   @RHF iter  17:  -518.79468916188603   -2.95586e-12   4.91478e-10 DIIS
   @RHF iter  18:  -518.79468916188250    3.52429e-12   1.90635e-10 DIIS
   @RHF iter  19:  -518.79468916188944   -6.93490e-12   6.70791e-11 DIIS
  Energy and wave function converged.

  ==> Post-Iterations <==

    Orbital Energies [Eh]
    ---------------------

    Doubly Occupied:

       1A    -15.605131     2A    -11.270091     3A    -11.265877
       4A    -11.236746     5A    -11.235287     6A    -11.234019
       7A    -11.230563     8A    -11.226278     9A    -11.224588
      10A    -11.221818    11A    -11.212320    12A    -11.210269
      13A    -11.208284    14A     -1.290534    15A     -1.122224
      16A     -1.069934    17A     -1.039976    18A     -0.993132
      19A     -0.985442    20A     -0.932350    21A     -0.918688
      22A     -0.837439    23A     -0.802704    24A     -0.783752
      25A     -0.749651    26A     -0.718641    27A     -0.666799
      28A     -0.638925    29A     -0.618542    30A     -0.600822
      31A     -0.591898    32A     -0.587793    33A     -0.580216
      34A     -0.565055    35A     -0.556089    36A     -0.541735
      37A     -0.534603    38A     -0.528802    39A     -0.522655
      40A     -0.492479    41A     -0.471358    42A     -0.466226
      43A     -0.460223    44A     -0.456863    45A     -0.451043
      46A     -0.372563    47A     -0.293029    48A     -0.278157

    Virtual:

      49A      0.121950    50A      0.165502    51A      0.169646
      52A      0.179485    53A      0.199446    54A      0.201061
      55A      0.214992    56A      0.226984    57A      0.230030
      58A      0.238682    59A      0.244737    60A      0.256927
      61A      0.259044    62A      0.263788    63A      0.277643
      64A      0.294196    65A      0.299693    66A      0.305961
      67A      0.309639    68A      0.317361    69A      0.366253
      70A      0.374113    71A      0.377295    72A      0.397566
      73A      0.418965    74A      0.434427    75A      0.441025
      76A      0.461167    77A      0.473408    78A      0.515752
      79A      0.523607    80A      0.570560    81A      0.591823
      82A      0.602586    83A      0.609662    84A      0.618838
      85A      0.625764    86A      0.627222    87A      0.640131
      88A      0.661976    89A      0.678372    90A      0.685307
      91A      0.711744    92A      0.718457    93A      0.725029
      94A      0.731491    95A      0.741550    96A      0.752016
      97A      0.754308    98A      0.760999    99A      0.762119
     100A      0.783466   101A      0.787645   102A      0.794011
     103A      0.799687   104A      0.821757   105A      0.840202
     106A      0.854885   107A      0.865328   108A      0.871914
     109A      0.880365   110A      0.890147   111A      0.893360
     112A      0.900448   113A      0.904386   114A      0.904896
     115A      0.907626   116A      0.912011   117A      0.919026
     118A      0.921455   119A      0.930290   120A      0.945329
     121A      0.948466   122A      0.957151   123A      0.960747
     124A      0.976127   125A      0.984426   126A      0.994137
     127A      1.007575   128A      1.014449   129A      1.066778
     130A      1.084785   131A      1.117471   132A      1.124363
     133A      1.130005   134A      1.132060   135A      1.144592
     136A      1.146636   137A      1.161020   138A      1.167742
     139A      1.190258   140A      1.217809   141A      1.227715
     142A      1.242833   143A      1.247842   144A      1.270481
     145A      1.278230   146A      1.283621   147A      1.301278
     148A      1.317339   149A      1.336785   150A      1.355242
     151A      1.369415   152A      1.383421   153A      1.428143
     154A      1.438337   155A      1.477415   156A      1.487200
     157A      1.492646   158A      1.523151   159A      1.526824
     160A      1.551168   161A      1.580576   162A      1.608479
     163A      1.633428   164A      1.649502   165A      1.673692
     166A      1.683193   167A      1.688719   168A      1.690055
     169A      1.692633   170A      1.701201   171A      1.731166
     172A      1.755423   173A      1.764177   174A      1.773929
     175A      1.820411   176A      1.826284   177A      1.834640
     178A      1.865284   179A      1.870150   180A      1.877091
     181A      1.877454   182A      1.886497   183A      1.894360
     184A      1.901126   185A      1.904364   186A      1.917539
     187A      1.925977   188A      1.927752   189A      1.948610
     190A      1.956968   191A      1.958862   192A      1.971771
     193A      1.976674   194A      1.982727   195A      1.987412
     196A      1.991268   197A      2.001926   198A      2.008736
     199A      2.011168   200A      2.018757   201A      2.032951
     202A      2.049170   203A      2.064142   204A      2.075969
     205A      2.085551   206A      2.097616   207A      2.111343
     208A      2.115493   209A      2.124162   210A      2.136785
     211A      2.154619   212A      2.161153   213A      2.176258
     214A      2.195433   215A      2.232751   216A      2.263737
     217A      2.275066   218A      2.285487   219A      2.292869
     220A      2.297710   221A      2.307496   222A      2.321117
     223A      2.331165   224A      2.342458   225A      2.355031
     226A      2.381774   227A      2.399957   228A      2.443978
     229A      2.458519   230A      2.498147   231A      2.516804
     232A      2.547440   233A      2.572466   234A      2.580276
     235A      2.587086   236A      2.593955   237A      2.619154
     238A      2.633492   239A      2.659109   240A      2.669621
     241A      2.726321   242A      2.757663   243A      2.761790
     244A      2.762854   245A      2.769579   246A      2.774024
     247A      2.781849   248A      2.788217   249A      2.816697
     250A      2.826061   251A      2.841944   252A      2.887230
     253A      2.906825   254A      2.921943   255A      2.957742
     256A      2.976060   257A      2.986779   258A      2.993777
     259A      3.030678   260A      3.061301   261A      3.090235
     262A      3.103780   263A      3.175436   264A      3.250038
     265A      3.356701   266A      3.722935   267A      3.906743

    Final Occupation by Irrep:
              A
    DOCC [    48 ]

  @RHF Final Energy:  -518.79468916188944

   => Energetics <=

    Nuclear Repulsion Energy =            759.5447999733595452
    One-Electron Energy =               -2208.8757555121478617
    Two-Electron Energy =                 930.5362663768987659
    Total Energy =                       -518.7946891618894369

Computation Completed

Properties will be evaluated at   0.000000,   0.000000,   0.000000 [a0]

Properties computed using the SCF density matrix

  Nuclear Dipole Moment: [e a0]
     X:    12.5798      Y:    -4.4684      Z:     8.4482

  Electronic Dipole Moment: [e a0]
     X:   -12.5739      Y:     5.0331      Z:    -8.0614

  Dipole Moment: [e a0]
     X:     0.0060      Y:     0.5647      Z:     0.3868     Total:     0.6845

  Dipole Moment: [D]
     X:     0.0152      Y:     1.4353      Z:     0.9832     Total:     1.7398

*** tstop() called on ds3 at Mon Apr 27 16:13:27 2020
Module time:
	user time   =     319.53 seconds =       5.33 minutes
	system time =     105.34 seconds =       1.76 minutes
	total time  =        424 seconds =       7.07 minutes
Total time:
	user time   =     319.53 seconds =       5.33 minutes
	system time =     105.34 seconds =       1.76 minutes
	total time  =        424 seconds =       7.07 minutes
                                     G D M A

                                 by Anthony Stone

                           version 2.2.06, 22 June 2011

               Distributed Multipoles from Gaussian wavefunctions

Starting at 16:13:27 on 27 Apr 2020

Using SCF density matrix from file ./SSI/SSI-234LEU-286TRP-2-dimer.test.22546.fchk

                         Distributed Multipole Analysis

Standard DMA

Positions and radii in angstrom
Multipole moments in atomic units, ea_0^k for rank k

C          x =  2.688382  y = -0.277602  z =  0.790018 angstrom
           Maximum rank =  0   Radius =  0.650 angstrom
                   Q00  =  -0.076361

C          x =  3.861382  y =  0.705398  z =  0.924018 angstrom
           Maximum rank =  0   Radius =  0.650 angstrom
                   Q00  =  -0.247896

C          x =  2.516382  y = -1.328602  z =  1.898018 angstrom
           Maximum rank =  0   Radius =  0.650 angstrom
                   Q00  =  -0.236940

H          x =  1.789382  y =  0.335398  z =  0.742018 angstrom
           Maximum rank =  0   Radius =  0.325 angstrom
                   Q00  =   0.043990

H          x =  2.823382  y = -0.790602  z = -0.161982 angstrom
           Maximum rank =  0   Radius =  0.325 angstrom
                   Q00  =   0.047861

H          x =  3.764382  y =  1.243398  z =  1.868018 angstrom
           Maximum rank =  0   Radius =  0.325 angstrom
                   Q00  =   0.072349

H          x =  3.402382  y = -1.963602  z =  1.921018 angstrom
           Maximum rank =  0   Radius =  0.325 angstrom
                   Q00  =   0.073118

H          x =  3.815424  y =  1.402298  z =  0.074178 angstrom
           Maximum rank =  0   Radius =  0.325 angstrom
                   Q00  =   0.076568

H          x =  4.835422  y =  0.199698  z =  0.849918 angstrom
           Maximum rank =  0   Radius =  0.325 angstrom
                   Q00  =   0.076530

H          x =  2.395125  y = -0.845702  z =  2.878908 angstrom
           Maximum rank =  0   Radius =  0.325 angstrom
                   Q00  =   0.071182

H          x =  1.630695  y = -1.945502  z =  1.685988 angstrom
           Maximum rank =  0   Radius =  0.325 angstrom
                   Q00  =   0.090454

C          x = -2.376618  y = -1.249602  z =  1.917018 angstrom
           Maximum rank =  0   Radius =  0.650 angstrom
                   Q00  =  -0.223148

C          x = -0.588618  y =  0.937398  z = -0.631982 angstrom
           Maximum rank =  0   Radius =  0.650 angstrom
                   Q00  =   0.257117

C          x = -1.264618  y = -0.276602  z = -0.294982 angstrom
           Maximum rank =  0   Radius =  0.650 angstrom
                   Q00  =  -0.052366

C          x = -1.747618  y = -0.154602  z =  1.071018 angstrom
           Maximum rank =  0   Radius =  0.650 angstrom
                   Q00  =  -0.118520

C          x = -1.387618  y =  1.087398  z =  1.486018 angstrom
           Maximum rank =  0   Radius =  0.650 angstrom
                   Q00  =   0.085706

C          x =  0.028382  y =  1.160398  z = -1.882982 angstrom
           Maximum rank =  0   Radius =  0.650 angstrom
                   Q00  =  -0.119027

C          x = -0.036618  y =  0.133398  z = -2.820982 angstrom
           Maximum rank =  0   Radius =  0.650 angstrom
                   Q00  =  -0.082235

C          x = -1.308618  y = -1.295602  z = -1.263982 angstrom
           Maximum rank =  0   Radius =  0.650 angstrom
                   Q00  =  -0.097205

C          x = -0.701618  y = -1.073602  z = -2.512982 angstrom
           Maximum rank =  0   Radius =  0.650 angstrom
                   Q00  =  -0.049361

N          x = -0.693618  y =  1.741398  z =  0.484018 angstrom
           Maximum rank =  0   Radius =  0.650 angstrom
                   Q00  =  -0.502154

H          x = -0.313618  y =  2.677398  z =  0.561018 angstrom
           Maximum rank =  0   Radius =  0.325 angstrom
                   Q00  =   0.215271

H          x =  0.528382  y =  2.101398  z = -2.085982 angstrom
           Maximum rank =  0   Radius =  0.325 angstrom
                   Q00  =   0.072822

H          x = -1.648618  y =  1.414398  z =  2.488018 angstrom
           Maximum rank =  0   Radius =  0.325 angstrom
                   Q00  =   0.105715

H          x =  0.423382  y =  0.256398  z = -3.788982 angstrom
           Maximum rank =  0   Radius =  0.325 angstrom
                   Q00  =   0.068951

H          x = -1.781618  y = -2.252602  z = -1.064982 angstrom
           Maximum rank =  0   Radius =  0.325 angstrom
                   Q00  =   0.072386

H          x = -1.801618  y = -1.301602  z =  2.848018 angstrom
           Maximum rank =  0   Radius =  0.325 angstrom
                   Q00  =   0.105119

H          x = -2.230618  y = -2.181602  z =  1.372018 angstrom
           Maximum rank =  0   Radius =  0.325 angstrom
                   Q00  =   0.104961

H          x = -0.750618  y = -1.860602  z = -3.253982 angstrom
           Maximum rank =  0   Radius =  0.325 angstrom
                   Q00  =   0.061538

H          x = -3.464474  y = -1.249602  z =  2.080018 angstrom
           Maximum rank =  0   Radius =  0.325 angstrom
                   Q00  =   0.103578

Total multipoles referred to origin at
           x =   0.000000,  y =    0.000000,  z =    0.000000 angstrom
                   Q00  =  -0.000000

Finished at 16:13:27 on 27 Apr 2020

  DMA results are available in the Python driver through the
	  variable('DMA DISTRIBUTED MULTIPOLES')
  and
	  variable('DMA TOTAL MULTIPOLES')
  commands.

    Psi4 stopped on: Monday, 27 April 2020 04:13PM
    Psi4 wall time for execution: 0:07:04.91

*** Psi4 exiting successfully. Buy a developer a beer!
