                               Psi4 1.3.2 release

  ==> Input File <==

--------------------------------------------------------------------------
import numpy as np
set {scf_type pk
basis cc-pvdz
d_convergence 10
gdma_switch   0
gdma_limit    0
gdma_origin   [ 0.0,  0.0,  0.0 ]
}
molecule test {
    units Angstrom
    0 1
    --
    0 1
    C               -1.751686106982151    -1.193185417025739     0.945442693963315
    C               -2.619686106982151    -2.393185417025738     0.557442693963315
    H               -2.028686106982151    -0.834185417025738     1.936442693963315
    H               -0.702686106982151    -1.476185417025738     0.948442693963315
    H               -1.880686106982151    -0.387185417025738     0.223442693963315
    H               -2.514686106982151    -3.146185417025738     1.339442693963315
    H               -3.679808106982150    -2.111579417025739     0.474742693963315
    H               -2.240656106982151    -2.842244417025738    -0.372437306036685
    C                2.037313893017849     0.316814582974262     0.537442693963315
    C                1.052313893017849     0.982814582974262    -0.385557306036685
    O                0.682313893017849     2.137814582974261    -0.202557306036685
    N                0.681313893017849     0.254814582974262    -1.413557306036685
    H                1.908313893017849    -0.767185417025739     0.521442693963315
    H                1.836313893017849     0.673814582974262     1.548442693963315
    H                0.092313893017849     0.694814582974262    -2.101557306036685
    H                1.112313893017849    -0.633185417025738    -1.617557306036685
    H                3.064233893017849     0.587996582974262     0.251272693963315

}
e, wfn = energy('scf', return_wfn=True)
gdma(wfn)
dmavals = variable('DMA DISTRIBUTED MULTIPOLES')
charges = np.array(dmavals)
print(charges)
np.save('SSI-074VAL-083ASN-1-dimer.npy', np.array(charges))--------------------------------------------------------------------------

*** tstart() called on ds3
*** at Tue Apr 28 14:10:14 2020

   => Loading Basis Set <=

    Name: CC-PVDZ
    Role: ORBITAL
    Keyword: BASIS
    atoms 1-2, 9-10  entry C          line   138 file /theoryfs2/ds/metcalf/miniconda2/envs/tf2gpu/share/psi4/basis/cc-pvdz.gbs
    atoms 3-8, 13-17 entry H          line    22 file /theoryfs2/ds/metcalf/miniconda2/envs/tf2gpu/share/psi4/basis/cc-pvdz.gbs
    atoms 11         entry O          line   198 file /theoryfs2/ds/metcalf/miniconda2/envs/tf2gpu/share/psi4/basis/cc-pvdz.gbs
    atoms 12         entry N          line   168 file /theoryfs2/ds/metcalf/miniconda2/envs/tf2gpu/share/psi4/basis/cc-pvdz.gbs

         ---------------------------------------------------------
                                   SCF
               by Justin Turney, Rob Parrish, Andy Simmonett
                          and Daniel G. A. Smith
                              RHF Reference
                        1 Threads,    500 MiB Core
         ---------------------------------------------------------

  ==> Geometry <==

    Molecular point group: c1
    Full point group: C1

    Geometry (in Angstrom), charge = 0, multiplicity = 1:

       Center              X                  Y                   Z               Mass
    ------------   -----------------  -----------------  -----------------  -----------------
         C           -1.751686106982    -1.193185417026     0.945442693963    12.000000000000
         C           -2.619686106982    -2.393185417026     0.557442693963    12.000000000000
         H           -2.028686106982    -0.834185417026     1.936442693963     1.007825032230
         H           -0.702686106982    -1.476185417026     0.948442693963     1.007825032230
         H           -1.880686106982    -0.387185417026     0.223442693963     1.007825032230
         H           -2.514686106982    -3.146185417026     1.339442693963     1.007825032230
         H           -3.679808106982    -2.111579417026     0.474742693963     1.007825032230
         H           -2.240656106982    -2.842244417026    -0.372437306037     1.007825032230
         C            2.037313893018     0.316814582974     0.537442693963    12.000000000000
         C            1.052313893018     0.982814582974    -0.385557306037    12.000000000000
         O            0.682313893018     2.137814582974    -0.202557306037    15.994914619570
         N            0.681313893018     0.254814582974    -1.413557306037    14.003074004430
         H            1.908313893018    -0.767185417026     0.521442693963     1.007825032230
         H            1.836313893018     0.673814582974     1.548442693963     1.007825032230
         H            0.092313893018     0.694814582974    -2.101557306037     1.007825032230
         H            1.112313893018    -0.633185417026    -1.617557306037     1.007825032230
         H            3.064233893018     0.587996582974     0.251272693963     1.007825032230

  Running in c1 symmetry.

  Rotational constants: A =      0.16936  B =      0.03674  C =      0.03605 [cm^-1]
  Rotational constants: A =   5077.41154  B =   1101.49064  C =   1080.87744 [MHz]
  Nuclear repulsion =  232.965948137390285

  Charge       = 0
  Multiplicity = 1
  Electrons    = 50
  Nalpha       = 25
  Nbeta        = 25

  ==> Algorithm <==

  SCF Algorithm Type is PK.
  DIIS enabled.
  MOM disabled.
  Fractional occupation disabled.
  Guess Type is SAD.
  Energy threshold   = 1.00e-06
  Density threshold  = 1.00e-10
  Integral threshold = 0.00e+00

  ==> Primary Basis <==

  Basis Set: CC-PVDZ
    Blend: CC-PVDZ
    Number of shells: 69
    Number of basis function: 139
    Number of Cartesian functions: 145
    Spherical Harmonics?: true
    Max angular momentum: 2

  ==> Pre-Iterations <==

   -------------------------------------------------------
    Irrep   Nso     Nmo     Nalpha   Nbeta   Ndocc  Nsocc
   -------------------------------------------------------
     A        139     139       0       0       0       0
   -------------------------------------------------------
    Total     139     139      25      25      25       0
   -------------------------------------------------------

  ==> Integral Setup <==

  Using integral reordering PK algorithm.
  Sizing the integral batches needed.
  Building batch lookup table.
   Calculation information:
      Number of atoms:                  17
      Number of AO shells:              69
      Number of primitives:            187
      Number of atomic orbitals:       145
      Number of basis functions:       139

      Integral cutoff                 1.00e-12
      Number of threads:                 1

	Batch   1 pq = [       0,    9730] index = [             0,47341315] size =     47341315
  Task number: 5
  Buffer size: 11059200
  Buffer per thread: 2
  We computed 2513636 shell quartets total.
  Whereas there are 2917320 unique shell quartets.

  ==> DiskJK: Disk-Based J/K Matrices <==

    J tasked:                  Yes
    K tasked:                  Yes
    wK tasked:                  No
    Memory [MiB]:              375
    Schwarz Cutoff:          1E-12

    OpenMP threads:              1

  Minimum eigenvalue in the overlap matrix is 4.3053357066E-03.
  Using Symmetric Orthogonalization.

  SCF Guess: Superposition of Atomic Densities via on-the-fly atomic UHF.

  ==> Iterations <==

                        Total Energy        Delta E     RMS |[F,P]|

   @RHF iter SAD:  -285.98437834575191   -2.85984e+02   0.00000e+00
   @RHF iter   1:  -286.99718673769866   -1.01281e+00   4.62082e-03 DIIS
   @RHF iter   2:  -287.17354962802801   -1.76363e-01   2.55405e-03 DIIS
   @RHF iter   3:  -287.22196080699615   -4.84112e-02   5.36695e-04 DIIS
   @RHF iter   4:  -287.22526915120932   -3.30834e-03   2.18907e-04 DIIS
   @RHF iter   5:  -287.22586303346441   -5.93882e-04   3.39086e-05 DIIS
   @RHF iter   6:  -287.22589250655074   -2.94731e-05   1.50298e-05 DIIS
   @RHF iter   7:  -287.22589706555465   -4.55900e-06   6.03087e-06 DIIS
   @RHF iter   8:  -287.22589807454921   -1.00899e-06   2.08118e-06 DIIS
   @RHF iter   9:  -287.22589820067503   -1.26126e-07   5.09904e-07 DIIS
   @RHF iter  10:  -287.22589820623864   -5.56361e-09   1.61962e-07 DIIS
   @RHF iter  11:  -287.22589820683180   -5.93161e-10   3.66845e-08 DIIS
   @RHF iter  12:  -287.22589820686511   -3.33102e-11   8.63304e-09 DIIS
   @RHF iter  13:  -287.22589820686835   -3.24007e-12   2.19157e-09 DIIS
   @RHF iter  14:  -287.22589820686670    1.64846e-12   1.01115e-09 DIIS
   @RHF iter  15:  -287.22589820686841   -1.70530e-12   4.78125e-10 DIIS
   @RHF iter  16:  -287.22589820686807    3.41061e-13   1.59523e-10 DIIS
   @RHF iter  17:  -287.22589820686727    7.95808e-13   5.55762e-11 DIIS
  Energy and wave function converged.

  ==> Post-Iterations <==

    Orbital Energies [Eh]
    ---------------------

    Doubly Occupied:

       1A    -20.502124     2A    -15.589268     3A    -11.344155
       4A    -11.239012     5A    -11.222004     6A    -11.217131
       7A     -1.368829     8A     -1.223456     9A     -1.019488
      10A     -1.000402    11A     -0.838610    12A     -0.802950
      13A     -0.730126    14A     -0.654573    15A     -0.616221
      16A     -0.601160    17A     -0.596997    18A     -0.569239
      19A     -0.553471    20A     -0.523196    21A     -0.501020
      22A     -0.491055    23A     -0.483458    24A     -0.409999
      25A     -0.404119

    Virtual:

      26A      0.153756    27A      0.191919    28A      0.203603
      29A      0.207038    30A      0.221931    31A      0.248169
      32A      0.251217    33A      0.261447    34A      0.269936
      35A      0.283196    36A      0.290922    37A      0.324264
      38A      0.385764    39A      0.391974    40A      0.470384
      41A      0.548884    42A      0.594892    43A      0.595354
      44A      0.615006    45A      0.635393    46A      0.658671
      47A      0.678843    48A      0.690462    49A      0.704647
      50A      0.722197    51A      0.753494    52A      0.810958
      53A      0.831565    54A      0.847722    55A      0.878831
      56A      0.889418    57A      0.891469    58A      0.899726
      59A      0.910159    60A      0.916905    61A      0.923756
      62A      0.942266    63A      0.944091    64A      0.992435
      65A      1.008541    66A      1.043466    67A      1.053656
      68A      1.109524    69A      1.122354    70A      1.132648
      71A      1.144549    72A      1.239695    73A      1.319291
      74A      1.352568    75A      1.381451    76A      1.410892
      77A      1.427980    78A      1.460509    79A      1.468157
      80A      1.479316    81A      1.495434    82A      1.575030
      83A      1.652289    84A      1.659210    85A      1.676372
      86A      1.693966    87A      1.730170    88A      1.820519
      89A      1.846989    90A      1.854391    91A      1.868114
      92A      1.884226    93A      1.902990    94A      1.907466
      95A      1.925690    96A      1.940248    97A      1.944099
      98A      1.949731    99A      1.959351   100A      1.982602
     101A      1.997543   102A      2.002603   103A      2.051483
     104A      2.090009   105A      2.097434   106A      2.126002
     107A      2.156163   108A      2.225509   109A      2.287270
     110A      2.293740   111A      2.314031   112A      2.407110
     113A      2.442883   114A      2.454626   115A      2.471427
     116A      2.489661   117A      2.507413   118A      2.557496
     119A      2.573824   120A      2.599458   121A      2.645176
     122A      2.755313   123A      2.759125   124A      2.777439
     125A      2.789712   126A      2.798545   127A      2.840709
     128A      2.855062   129A      2.865622   130A      2.941602
     131A      2.973383   132A      2.997111   133A      3.093098
     134A      3.137619   135A      3.273640   136A      3.516577
     137A      3.548117   138A      3.871928   139A      3.908877

    Final Occupation by Irrep:
              A
    DOCC [    25 ]

  @RHF Final Energy:  -287.22589820686727

   => Energetics <=

    Nuclear Repulsion Energy =            232.9659481373902850
    One-Electron Energy =                -851.3795704682859196
    Two-Electron Energy =                 331.1877241240283070
    Total Energy =                       -287.2258982068672708

Computation Completed

Properties will be evaluated at   0.000000,   0.000000,   0.000000 [a0]

Properties computed using the SCF density matrix

  Nuclear Dipole Moment: [e a0]
     X:    -4.7177      Y:    -9.5914      Z:     2.9581

  Electronic Dipole Moment: [e a0]
     X:     5.1528      Y:     8.1067      Z:    -3.5525

  Dipole Moment: [e a0]
     X:     0.4351      Y:    -1.4847      Z:    -0.5943     Total:     1.6573

  Dipole Moment: [D]
     X:     1.1059      Y:    -3.7736      Z:    -1.5106     Total:     4.2125

*** tstop() called on ds3 at Tue Apr 28 14:10:39 2020
Module time:
	user time   =      17.72 seconds =       0.30 minutes
	system time =       7.79 seconds =       0.13 minutes
	total time  =         25 seconds =       0.42 minutes
Total time:
	user time   =      17.72 seconds =       0.30 minutes
	system time =       7.79 seconds =       0.13 minutes
	total time  =         25 seconds =       0.42 minutes
                                     G D M A

                                 by Anthony Stone

                           version 2.2.06, 22 June 2011

               Distributed Multipoles from Gaussian wavefunctions

Starting at 14:10:39 on 28 Apr 2020

Using SCF density matrix from file ./SSI/SSI-074VAL-083ASN-1-dimer.test.2314.fchk

                         Distributed Multipole Analysis

Standard DMA

Positions and radii in angstrom
Multipole moments in atomic units, ea_0^k for rank k

C          x = -1.751686  y = -1.193185  z =  0.945443 angstrom
           Maximum rank =  0   Radius =  0.650 angstrom
                   Q00  =  -0.234019

C          x = -2.619686  y = -2.393185  z =  0.557443 angstrom
           Maximum rank =  0   Radius =  0.650 angstrom
                   Q00  =  -0.237883

H          x = -2.028686  y = -0.834185  z =  1.936443 angstrom
           Maximum rank =  0   Radius =  0.325 angstrom
                   Q00  =   0.082709

H          x = -0.702686  y = -1.476185  z =  0.948443 angstrom
           Maximum rank =  0   Radius =  0.325 angstrom
                   Q00  =   0.068675

H          x = -1.880686  y = -0.387185  z =  0.223443 angstrom
           Maximum rank =  0   Radius =  0.325 angstrom
                   Q00  =   0.086722

H          x = -2.514686  y = -3.146185  z =  1.339443 angstrom
           Maximum rank =  0   Radius =  0.325 angstrom
                   Q00  =   0.075371

H          x = -3.679808  y = -2.111579  z =  0.474743 angstrom
           Maximum rank =  0   Radius =  0.325 angstrom
                   Q00  =   0.084631

H          x = -2.240656  y = -2.842244  z = -0.372437 angstrom
           Maximum rank =  0   Radius =  0.325 angstrom
                   Q00  =   0.072223

C          x =  2.037314  y =  0.316815  z =  0.537443 angstrom
           Maximum rank =  0   Radius =  0.650 angstrom
                   Q00  =  -0.268940

C          x =  1.052314  y =  0.982815  z = -0.385557 angstrom
           Maximum rank =  0   Radius =  0.650 angstrom
                   Q00  =   0.825242

O          x =  0.682314  y =  2.137815  z = -0.202557 angstrom
           Maximum rank =  0   Radius =  0.650 angstrom
                   Q00  =  -0.796799

N          x =  0.681314  y =  0.254815  z = -1.413557 angstrom
           Maximum rank =  0   Radius =  0.650 angstrom
                   Q00  =  -0.513664

H          x =  1.908314  y = -0.767185  z =  0.521443 angstrom
           Maximum rank =  0   Radius =  0.325 angstrom
                   Q00  =   0.078410

H          x =  1.836314  y =  0.673815  z =  1.548443 angstrom
           Maximum rank =  0   Radius =  0.325 angstrom
                   Q00  =   0.128748

H          x =  0.092314  y =  0.694815  z = -2.101557 angstrom
           Maximum rank =  0   Radius =  0.325 angstrom
                   Q00  =   0.211411

H          x =  1.112314  y = -0.633185  z = -1.617557 angstrom
           Maximum rank =  0   Radius =  0.325 angstrom
                   Q00  =   0.207758

H          x =  3.064234  y =  0.587997  z =  0.251273 angstrom
           Maximum rank =  0   Radius =  0.325 angstrom
                   Q00  =   0.129406

Total multipoles referred to origin at
           x =   0.000000,  y =    0.000000,  z =    0.000000 angstrom
                   Q00  =  -0.000000

Finished at 14:10:39 on 28 Apr 2020

  DMA results are available in the Python driver through the
	  variable('DMA DISTRIBUTED MULTIPOLES')
  and
	  variable('DMA TOTAL MULTIPOLES')
  commands.

    Psi4 stopped on: Tuesday, 28 April 2020 02:10PM
    Psi4 wall time for execution: 0:00:25.17

*** Psi4 exiting successfully. Buy a developer a beer!
