                               Psi4 1.3.2 release

  ==> Input File <==

--------------------------------------------------------------------------
import numpy as np
set {scf_type pk
basis cc-pvdz
d_convergence 10
gdma_switch   0
gdma_limit    0
gdma_origin   [ 0.0,  0.0,  0.0 ]
}
molecule test {
    units Angstrom
    0 1
    --
    0 1
    C                0.575471285281219    -1.899755172418037    -2.524459190004896
    C                0.101471285281219     0.685244827581963     0.261540809995105
    C                0.808471285281219     1.771244827581963    -0.212459190004895
    C                0.050471285281219    -0.497755172418037    -0.486459190004895
    C                0.705471285281219    -0.613755172418037    -1.712459190004895
    C                1.482471285281219     1.691244827581963    -1.445459190004895
    C                1.431471285281219     0.487244827581963    -2.197459190004895
    H               -0.408528714718781     0.760244827581963     1.210540809995105
    H                0.835471285281219     2.680244827581964     0.371540809995105
    H               -0.508528714718781    -1.344755172418036    -0.112459190004895
    H                2.023471285281218     2.555244827581963    -1.803459190004895
    H                0.407471285281219    -1.599755172418037    -3.556459190004895
    H               -0.314528714718781    -2.421755172418037    -2.165459190004895
    H                1.945471285281219     0.410244827581963    -3.147459190004895
    H                1.420631285281218    -2.599855172418037    -2.449429190004895
    C               -1.957528714718781    -0.943755172418037     3.100540809995105
    C               -2.524528714718782    -0.247755172418037     4.324540809995105
    H               -2.000528714718782    -0.268755172418037     2.247540809995105
    H               -0.922528714718781    -1.230755172418037     3.289540809995105
    H               -2.545528714718781    -1.834755172418037     2.884540809995105
    H               -2.478528714718781    -0.924755172418037     5.176540809995104
    H               -3.568688714718781     0.041044827581963     4.133920809995105
    H               -1.901298714718781     0.631944827581963     4.543030809995105

}
e, wfn = energy('scf', return_wfn=True)
gdma(wfn)
dmavals = variable('DMA DISTRIBUTED MULTIPOLES')
charges = np.array(dmavals)
print(charges)
np.save('SSI-128PHE-235LEU-1-dimer.npy', np.array(charges))--------------------------------------------------------------------------

*** tstart() called on ds3
*** at Tue Apr 28 16:40:50 2020

   => Loading Basis Set <=

    Name: CC-PVDZ
    Role: ORBITAL
    Keyword: BASIS
    atoms 1-7, 16-17  entry C          line   138 file /theoryfs2/ds/metcalf/miniconda2/envs/tf2gpu/share/psi4/basis/cc-pvdz.gbs
    atoms 8-15, 18-23 entry H          line    22 file /theoryfs2/ds/metcalf/miniconda2/envs/tf2gpu/share/psi4/basis/cc-pvdz.gbs

         ---------------------------------------------------------
                                   SCF
               by Justin Turney, Rob Parrish, Andy Simmonett
                          and Daniel G. A. Smith
                              RHF Reference
                        1 Threads,    500 MiB Core
         ---------------------------------------------------------

  ==> Geometry <==

    Molecular point group: c1
    Full point group: C1

    Geometry (in Angstrom), charge = 0, multiplicity = 1:

       Center              X                  Y                   Z               Mass
    ------------   -----------------  -----------------  -----------------  -----------------
         C            0.575471285281    -1.899755172418    -2.524459190005    12.000000000000
         C            0.101471285281     0.685244827582     0.261540809995    12.000000000000
         C            0.808471285281     1.771244827582    -0.212459190005    12.000000000000
         C            0.050471285281    -0.497755172418    -0.486459190005    12.000000000000
         C            0.705471285281    -0.613755172418    -1.712459190005    12.000000000000
         C            1.482471285281     1.691244827582    -1.445459190005    12.000000000000
         C            1.431471285281     0.487244827582    -2.197459190005    12.000000000000
         H           -0.408528714719     0.760244827582     1.210540809995     1.007825032230
         H            0.835471285281     2.680244827582     0.371540809995     1.007825032230
         H           -0.508528714719    -1.344755172418    -0.112459190005     1.007825032230
         H            2.023471285281     2.555244827582    -1.803459190005     1.007825032230
         H            0.407471285281    -1.599755172418    -3.556459190005     1.007825032230
         H           -0.314528714719    -2.421755172418    -2.165459190005     1.007825032230
         H            1.945471285281     0.410244827582    -3.147459190005     1.007825032230
         H            1.420631285281    -2.599855172418    -2.449429190005     1.007825032230
         C           -1.957528714719    -0.943755172418     3.100540809995    12.000000000000
         C           -2.524528714719    -0.247755172418     4.324540809995    12.000000000000
         H           -2.000528714719    -0.268755172418     2.247540809995     1.007825032230
         H           -0.922528714719    -1.230755172418     3.289540809995     1.007825032230
         H           -2.545528714719    -1.834755172418     2.884540809995     1.007825032230
         H           -2.478528714719    -0.924755172418     5.176540809995     1.007825032230
         H           -3.568688714719     0.041044827582     4.133920809995     1.007825032230
         H           -1.901298714719     0.631944827582     4.543030809995     1.007825032230

  Running in c1 symmetry.

  Rotational constants: A =      0.08318  B =      0.01902  C =      0.01563 [cm^-1]
  Rotational constants: A =   2493.59955  B =    570.16369  C =    468.43284 [MHz]
  Nuclear repulsion =  393.943223561813284

  Charge       = 0
  Multiplicity = 1
  Electrons    = 68
  Nalpha       = 34
  Nbeta        = 34

  ==> Algorithm <==

  SCF Algorithm Type is PK.
  DIIS enabled.
  MOM disabled.
  Fractional occupation disabled.
  Guess Type is SAD.
  Energy threshold   = 1.00e-06
  Density threshold  = 1.00e-10
  Integral threshold = 0.00e+00

  ==> Primary Basis <==

  Basis Set: CC-PVDZ
    Blend: CC-PVDZ
    Number of shells: 96
    Number of basis function: 196
    Number of Cartesian functions: 205
    Spherical Harmonics?: true
    Max angular momentum: 2

  ==> Pre-Iterations <==

   -------------------------------------------------------
    Irrep   Nso     Nmo     Nalpha   Nbeta   Ndocc  Nsocc
   -------------------------------------------------------
     A        196     196       0       0       0       0
   -------------------------------------------------------
    Total     196     196      34      34      34       0
   -------------------------------------------------------

  ==> Integral Setup <==

  Using integral reordering PK algorithm.
  Sizing the integral batches needed.
  Building batch lookup table.
   Calculation information:
      Number of atoms:                  23
      Number of AO shells:              96
      Number of primitives:            268
      Number of atomic orbitals:       205
      Number of basis functions:       196

      Integral cutoff                 1.00e-12
      Number of threads:                 1

	Batch   1 pq = [       0,    9405] index = [             0,44231715] size =     44231715
	Batch   2 pq = [    9405,   13301] index = [      44231715,88464951] size =     44233236
	Batch   3 pq = [   13301,   16290] index = [      88464951,132690195] size =     44225244
	Batch   4 pq = [   16290,   18810] index = [     132690195,176917455] size =     44227260
	Batch   5 pq = [   18810,   19306] index = [     176917455,186370471] size =      9453016
  Task number: 17
  Buffer size: 11059200
  Buffer per thread: 2
  We computed 8115985 shell quartets total.
  Whereas there are 10841496 unique shell quartets.

  ==> DiskJK: Disk-Based J/K Matrices <==

    J tasked:                  Yes
    K tasked:                  Yes
    wK tasked:                  No
    Memory [MiB]:              375
    Schwarz Cutoff:          1E-12

    OpenMP threads:              1

  Minimum eigenvalue in the overlap matrix is 3.1942469607E-04.
  Using Symmetric Orthogonalization.

  SCF Guess: Superposition of Atomic Densities via on-the-fly atomic UHF.

  ==> Iterations <==

                        Total Energy        Delta E     RMS |[F,P]|

   @RHF iter SAD:  -347.76774872157426   -3.47768e+02   0.00000e+00
   @RHF iter   1:  -348.76756647118441   -9.99818e-01   2.86860e-03 DIIS
   @RHF iter   2:  -348.95779121564402   -1.90225e-01   1.17976e-03 DIIS
   @RHF iter   3:  -348.98706295306653   -2.92717e-02   2.56989e-04 DIIS
   @RHF iter   4:  -348.98952846552385   -2.46551e-03   5.08642e-05 DIIS
   @RHF iter   5:  -348.98959769014868   -6.92246e-05   1.73752e-05 DIIS
   @RHF iter   6:  -348.98960525745690   -7.56731e-06   4.61686e-06 DIIS
   @RHF iter   7:  -348.98960588090989   -6.23453e-07   1.27745e-06 DIIS
   @RHF iter   8:  -348.98960594029103   -5.93811e-08   3.44788e-07 DIIS
   @RHF iter   9:  -348.98960594961784   -9.32681e-09   1.64232e-07 DIIS
   @RHF iter  10:  -348.98960595201493   -2.39709e-09   7.91900e-08 DIIS
   @RHF iter  11:  -348.98960595284109   -8.26162e-10   3.08190e-08 DIIS
   @RHF iter  12:  -348.98960595295614   -1.15051e-10   1.45188e-08 DIIS
   @RHF iter  13:  -348.98960595296990   -1.37561e-11   4.02952e-09 DIIS
   @RHF iter  14:  -348.98960595297325   -3.35376e-12   1.18686e-09 DIIS
   @RHF iter  15:  -348.98960595297370   -4.54747e-13   4.35537e-10 DIIS
   @RHF iter  16:  -348.98960595297211    1.59162e-12   1.74508e-10 DIIS
   @RHF iter  17:  -348.98960595297160    5.11591e-13   7.38687e-11 DIIS
  Energy and wave function converged.

  ==> Post-Iterations <==

    Orbital Energies [Eh]
    ---------------------

    Doubly Occupied:

       1A    -11.242816     2A    -11.240490     3A    -11.236088
       4A    -11.233389     5A    -11.231165     6A    -11.231155
       7A    -11.230343     8A    -11.220187     9A    -11.217978
      10A     -1.145916    11A     -1.040875    12A     -1.024385
      13A     -1.004554    14A     -0.929438    15A     -0.836764
      16A     -0.825050    17A     -0.790406    18A     -0.688186
      19A     -0.631689    20A     -0.626505    21A     -0.604150
      22A     -0.603327    23A     -0.578352    24A     -0.576331
      25A     -0.558299    26A     -0.534790    27A     -0.501300
      28A     -0.489818    29A     -0.488655    30A     -0.483895
      31A     -0.481315    32A     -0.477180    33A     -0.327360
      34A     -0.322226

    Virtual:

      35A      0.133373    36A      0.141091    37A      0.174165
      38A      0.190175    39A      0.206538    40A      0.215891
      41A      0.233475    42A      0.246359    43A      0.253973
      44A      0.257146    45A      0.260594    46A      0.275554
      47A      0.277146    48A      0.286958    49A      0.299520
      50A      0.336660    51A      0.362808    52A      0.372035
      53A      0.404595    54A      0.451622    55A      0.458958
      56A      0.477439    57A      0.494096    58A      0.559986
      59A      0.591405    60A      0.601967    61A      0.611393
      62A      0.630106    63A      0.636829    64A      0.667201
      65A      0.672745    66A      0.695714    67A      0.698111
      68A      0.715482    69A      0.723814    70A      0.737687
      71A      0.741232    72A      0.750804    73A      0.757614
      74A      0.773297    75A      0.783658    76A      0.794814
      77A      0.832654    78A      0.847203    79A      0.857820
      80A      0.869390    81A      0.874142    82A      0.880339
      83A      0.888370    84A      0.891252    85A      0.894891
      86A      0.900155    87A      0.912240    88A      0.917368
      89A      0.925948    90A      0.935768    91A      0.941438
      92A      0.949565    93A      0.982333    94A      0.995140
      95A      1.028693    96A      1.049114    97A      1.109870
      98A      1.121435    99A      1.127037   100A      1.148735
     101A      1.153566   102A      1.168441   103A      1.201425
     104A      1.237103   105A      1.240633   106A      1.247302
     107A      1.252691   108A      1.275714   109A      1.299261
     110A      1.318446   111A      1.322122   112A      1.331792
     113A      1.412049   114A      1.478860   115A      1.489169
     116A      1.503193   117A      1.516888   118A      1.543033
     119A      1.583658   120A      1.610087   121A      1.674712
     122A      1.682993   123A      1.691352   124A      1.695858
     125A      1.726778   126A      1.743417   127A      1.758639
     128A      1.786567   129A      1.801407   130A      1.846337
     131A      1.853509   132A      1.869341   133A      1.883272
     134A      1.894734   135A      1.898894   136A      1.916449
     137A      1.921726   138A      1.925254   139A      1.933645
     140A      1.937906   141A      1.944783   142A      1.953773
     143A      1.958772   144A      1.970497   145A      1.977334
     146A      1.983796   147A      1.986422   148A      1.997452
     149A      2.038352   150A      2.049827   151A      2.064239
     152A      2.102111   153A      2.108351   154A      2.112636
     155A      2.133712   156A      2.150840   157A      2.161448
     158A      2.167060   159A      2.202423   160A      2.247026
     161A      2.271087   162A      2.282560   163A      2.293248
     164A      2.294144   165A      2.309100   166A      2.318370
     167A      2.335572   168A      2.454619   169A      2.459806
     170A      2.467376   171A      2.481824   172A      2.501727
     173A      2.537047   174A      2.569955   175A      2.579646
     176A      2.609222   177A      2.738049   178A      2.745839
     179A      2.762959   180A      2.768860   181A      2.775883
     182A      2.794623   183A      2.816423   184A      2.836427
     185A      2.846339   186A      2.849591   187A      2.864625
     188A      2.946681   189A      2.961720   190A      2.966987
     191A      2.986569   192A      3.028610   193A      3.137196
     194A      3.174717   195A      3.284279   196A      3.932871

    Final Occupation by Irrep:
              A
    DOCC [    34 ]

  @RHF Final Energy:  -348.98960595297160

   => Energetics <=

    Nuclear Repulsion Energy =            393.9432235618132836
    One-Electron Energy =               -1250.5568978699106992
    Two-Electron Energy =                 507.6240683551258144
    Total Energy =                       -348.9896059529716013

Computation Completed

Properties will be evaluated at   0.000000,   0.000000,   0.000000 [a0]

Properties computed using the SCF density matrix

  Nuclear Dipole Moment: [e a0]
     X:    -7.5149      Y:    -4.8244      Z:     9.9582

  Electronic Dipole Moment: [e a0]
     X:     7.4834      Y:     4.7103      Z:   -10.0088

  Dipole Moment: [e a0]
     X:    -0.0315      Y:    -0.1141      Z:    -0.0506     Total:     0.1287

  Dipole Moment: [D]
     X:    -0.0801      Y:    -0.2900      Z:    -0.1286     Total:     0.3272

*** tstop() called on ds3 at Tue Apr 28 16:42:10 2020
Module time:
	user time   =      55.63 seconds =       0.93 minutes
	system time =      27.99 seconds =       0.47 minutes
	total time  =         80 seconds =       1.33 minutes
Total time:
	user time   =      55.63 seconds =       0.93 minutes
	system time =      27.99 seconds =       0.47 minutes
	total time  =         80 seconds =       1.33 minutes
                                     G D M A

                                 by Anthony Stone

                           version 2.2.06, 22 June 2011

               Distributed Multipoles from Gaussian wavefunctions

Starting at 16:42:10 on 28 Apr 2020

Using SCF density matrix from file ./SSI/SSI-128PHE-235LEU-1-dimer.test.17060.fchk

                         Distributed Multipole Analysis

Standard DMA

Positions and radii in angstrom
Multipole moments in atomic units, ea_0^k for rank k

C          x =  0.575471  y = -1.899755  z = -2.524459 angstrom
           Maximum rank =  0   Radius =  0.650 angstrom
                   Q00  =  -0.200390

C          x =  0.101471  y =  0.685245  z =  0.261541 angstrom
           Maximum rank =  0   Radius =  0.650 angstrom
                   Q00  =  -0.075949

C          x =  0.808471  y =  1.771245  z = -0.212459 angstrom
           Maximum rank =  0   Radius =  0.650 angstrom
                   Q00  =  -0.076747

C          x =  0.050471  y = -0.497755  z = -0.486459 angstrom
           Maximum rank =  0   Radius =  0.650 angstrom
                   Q00  =   0.007793

C          x =  0.705471  y = -0.613755  z = -1.712459 angstrom
           Maximum rank =  0   Radius =  0.650 angstrom
                   Q00  =  -0.112708

C          x =  1.482471  y =  1.691245  z = -1.445459 angstrom
           Maximum rank =  0   Radius =  0.650 angstrom
                   Q00  =  -0.065567

C          x =  1.431471  y =  0.487245  z = -2.197459 angstrom
           Maximum rank =  0   Radius =  0.650 angstrom
                   Q00  =  -0.094377

H          x = -0.408529  y =  0.760245  z =  1.210541 angstrom
           Maximum rank =  0   Radius =  0.325 angstrom
                   Q00  =   0.064447

H          x =  0.835471  y =  2.680245  z =  0.371541 angstrom
           Maximum rank =  0   Radius =  0.325 angstrom
                   Q00  =   0.061125

H          x = -0.508529  y = -1.344755  z = -0.112459 angstrom
           Maximum rank =  0   Radius =  0.325 angstrom
                   Q00  =   0.057910

H          x =  2.023471  y =  2.555245  z = -1.803459 angstrom
           Maximum rank =  0   Radius =  0.325 angstrom
                   Q00  =   0.068960

H          x =  0.407471  y = -1.599755  z = -3.556459 angstrom
           Maximum rank =  0   Radius =  0.325 angstrom
                   Q00  =   0.100445

H          x = -0.314529  y = -2.421755  z = -2.165459 angstrom
           Maximum rank =  0   Radius =  0.325 angstrom
                   Q00  =   0.096324

H          x =  1.945471  y =  0.410245  z = -3.147459 angstrom
           Maximum rank =  0   Radius =  0.325 angstrom
                   Q00  =   0.061921

H          x =  1.420631  y = -2.599855  z = -2.449429 angstrom
           Maximum rank =  0   Radius =  0.325 angstrom
                   Q00  =   0.106704

C          x = -1.957529  y = -0.943755  z =  3.100541 angstrom
           Maximum rank =  0   Radius =  0.650 angstrom
                   Q00  =  -0.235251

C          x = -2.524529  y = -0.247755  z =  4.324541 angstrom
           Maximum rank =  0   Radius =  0.650 angstrom
                   Q00  =  -0.231237

H          x = -2.000529  y = -0.268755  z =  2.247541 angstrom
           Maximum rank =  0   Radius =  0.325 angstrom
                   Q00  =   0.074785

H          x = -0.922529  y = -1.230755  z =  3.289541 angstrom
           Maximum rank =  0   Radius =  0.325 angstrom
                   Q00  =   0.078765

H          x = -2.545529  y = -1.834755  z =  2.884541 angstrom
           Maximum rank =  0   Radius =  0.325 angstrom
                   Q00  =   0.078468

H          x = -2.478529  y = -0.924755  z =  5.176541 angstrom
           Maximum rank =  0   Radius =  0.325 angstrom
                   Q00  =   0.079876

H          x = -3.568689  y =  0.041045  z =  4.133921 angstrom
           Maximum rank =  0   Radius =  0.325 angstrom
                   Q00  =   0.079103

H          x = -1.901299  y =  0.631945  z =  4.543031 angstrom
           Maximum rank =  0   Radius =  0.325 angstrom
                   Q00  =   0.075598

Total multipoles referred to origin at
           x =   0.000000,  y =    0.000000,  z =    0.000000 angstrom
                   Q00  =  -0.000000

Finished at 16:42:11 on 28 Apr 2020

  DMA results are available in the Python driver through the
	  variable('DMA DISTRIBUTED MULTIPOLES')
  and
	  variable('DMA TOTAL MULTIPOLES')
  commands.

    Psi4 stopped on: Tuesday, 28 April 2020 04:42PM
    Psi4 wall time for execution: 0:01:20.77

*** Psi4 exiting successfully. Buy a developer a beer!
