                               Psi4 1.3.2 release

  ==> Input File <==

--------------------------------------------------------------------------
import numpy as np
set {scf_type pk
basis cc-pvdz
d_convergence 10
gdma_switch   0
gdma_limit    0
gdma_origin   [ 0.0,  0.0,  0.0 ]
}
molecule test {
    units Angstrom
    0 1
    --
    0 1
    C               -1.808381759614447     2.287000412681777     1.524108253157925
    C               -1.564381759614447     2.714000412681777     2.970108253157925
    O               -1.671381759614447     3.405000412681777     0.666108253157925
    H               -1.089381759614447     1.515000412681778     1.250108253157925
    H               -2.814381759614446     1.873000412681778     1.430108253157925
    H               -1.661381759614447     1.835000412681778     3.606108253157926
    H               -1.939381759614447     3.145000412681777    -0.226891746842075
    H               -2.312896759614447     3.460260412681778     3.274778253157926
    H               -0.534980759614447     3.087930412681777     3.072618253157926
    C                2.965618240385553    -2.591999587318223    -0.517891746842075
    C                0.378618240385553     0.191000412681778    -0.704891746842075
    C               -0.758381759614447    -0.507999587318223    -1.074891746842075
    C                1.579618240385553    -0.483999587318223    -0.528891746842075
    C                1.657618240385553    -1.862999587318222    -0.727891746842075
    C               -0.696381759614447    -1.882999587318222    -1.260891746842075
    C                0.507618240385553    -2.557999587318223    -1.081891746842075
    H                0.337618240385553     1.264000412681778    -0.569891746842075
    H               -1.694381759614447     0.016000412681778    -1.222891746842075
    H                2.458618240385553     0.077000412681777    -0.247891746842075
    H               -1.585381759614447    -2.429999587318223    -1.546891746842075
    H                3.679618240385553    -2.241999587318223    -1.263891746842075
    H                2.819618240385553    -3.660999587318223    -0.679891746842075
    H                0.543618240385553    -3.629999587318223    -1.225891746842075
    H                3.391061240385553    -2.435599587318223     0.484378253157925

}
e, wfn = energy('scf', return_wfn=True)
gdma(wfn)
dmavals = variable('DMA DISTRIBUTED MULTIPOLES')
charges = np.array(dmavals)
print(charges)
np.save('SSI-052SER-063PHE-1-dimer.npy', np.array(charges))--------------------------------------------------------------------------

*** tstart() called on ds3
*** at Mon Apr 27 22:39:37 2020

   => Loading Basis Set <=

    Name: CC-PVDZ
    Role: ORBITAL
    Keyword: BASIS
    atoms 1-2, 10-16 entry C          line   138 file /theoryfs2/ds/metcalf/miniconda2/envs/tf2gpu/share/psi4/basis/cc-pvdz.gbs
    atoms 3          entry O          line   198 file /theoryfs2/ds/metcalf/miniconda2/envs/tf2gpu/share/psi4/basis/cc-pvdz.gbs
    atoms 4-9, 17-24 entry H          line    22 file /theoryfs2/ds/metcalf/miniconda2/envs/tf2gpu/share/psi4/basis/cc-pvdz.gbs

         ---------------------------------------------------------
                                   SCF
               by Justin Turney, Rob Parrish, Andy Simmonett
                          and Daniel G. A. Smith
                              RHF Reference
                        1 Threads,    500 MiB Core
         ---------------------------------------------------------

  ==> Geometry <==

    Molecular point group: c1
    Full point group: C1

    Geometry (in Angstrom), charge = 0, multiplicity = 1:

       Center              X                  Y                   Z               Mass
    ------------   -----------------  -----------------  -----------------  -----------------
         C           -1.808381759614     2.287000412682     1.524108253158    12.000000000000
         C           -1.564381759614     2.714000412682     2.970108253158    12.000000000000
         O           -1.671381759614     3.405000412682     0.666108253158    15.994914619570
         H           -1.089381759614     1.515000412682     1.250108253158     1.007825032230
         H           -2.814381759614     1.873000412682     1.430108253158     1.007825032230
         H           -1.661381759614     1.835000412682     3.606108253158     1.007825032230
         H           -1.939381759614     3.145000412682    -0.226891746842     1.007825032230
         H           -2.312896759614     3.460260412682     3.274778253158     1.007825032230
         H           -0.534980759614     3.087930412682     3.072618253158     1.007825032230
         C            2.965618240386    -2.591999587318    -0.517891746842    12.000000000000
         C            0.378618240386     0.191000412682    -0.704891746842    12.000000000000
         C           -0.758381759614    -0.507999587318    -1.074891746842    12.000000000000
         C            1.579618240386    -0.483999587318    -0.528891746842    12.000000000000
         C            1.657618240386    -1.862999587318    -0.727891746842    12.000000000000
         C           -0.696381759614    -1.882999587318    -1.260891746842    12.000000000000
         C            0.507618240386    -2.557999587318    -1.081891746842    12.000000000000
         H            0.337618240386     1.264000412682    -0.569891746842     1.007825032230
         H           -1.694381759614     0.016000412682    -1.222891746842     1.007825032230
         H            2.458618240386     0.077000412682    -0.247891746842     1.007825032230
         H           -1.585381759614    -2.429999587318    -1.546891746842     1.007825032230
         H            3.679618240386    -2.241999587318    -1.263891746842     1.007825032230
         H            2.819618240386    -3.660999587318    -0.679891746842     1.007825032230
         H            0.543618240386    -3.629999587318    -1.225891746842     1.007825032230
         H            3.391061240386    -2.435599587318     0.484378253158     1.007825032230

  Running in c1 symmetry.

  Rotational constants: A =      0.07930  B =      0.01475  C =      0.01375 [cm^-1]
  Rotational constants: A =   2377.44856  B =    442.34276  C =    412.29271 [MHz]
  Nuclear repulsion =  476.531634948879002

  Charge       = 0
  Multiplicity = 1
  Electrons    = 76
  Nalpha       = 38
  Nbeta        = 38

  ==> Algorithm <==

  SCF Algorithm Type is PK.
  DIIS enabled.
  MOM disabled.
  Fractional occupation disabled.
  Guess Type is SAD.
  Energy threshold   = 1.00e-06
  Density threshold  = 1.00e-10
  Integral threshold = 0.00e+00

  ==> Primary Basis <==

  Basis Set: CC-PVDZ
    Blend: CC-PVDZ
    Number of shells: 102
    Number of basis function: 210
    Number of Cartesian functions: 220
    Spherical Harmonics?: true
    Max angular momentum: 2

  ==> Pre-Iterations <==

   -------------------------------------------------------
    Irrep   Nso     Nmo     Nalpha   Nbeta   Ndocc  Nsocc
   -------------------------------------------------------
     A        210     210       0       0       0       0
   -------------------------------------------------------
    Total     210     210      38      38      38       0
   -------------------------------------------------------

  ==> Integral Setup <==

  Using integral reordering PK algorithm.
  Sizing the integral batches needed.
  Building batch lookup table.
   Calculation information:
      Number of atoms:                  24
      Number of AO shells:             102
      Number of primitives:            290
      Number of atomic orbitals:       220
      Number of basis functions:       210

      Integral cutoff                 1.00e-12
      Number of threads:                 1

	Batch   1 pq = [       0,    9405] index = [             0,44231715] size =     44231715
	Batch   2 pq = [    9405,   13301] index = [      44231715,88464951] size =     44233236
	Batch   3 pq = [   13301,   16290] index = [      88464951,132690195] size =     44225244
	Batch   4 pq = [   16290,   18810] index = [     132690195,176917455] size =     44227260
	Batch   5 pq = [   18810,   21030] index = [     176917455,221140965] size =     44223510
	Batch   6 pq = [   21030,   22155] index = [     221140965,245433090] size =     24292125
  Task number: 23
  Buffer size: 11059200
  Buffer per thread: 2
  We computed 10387345 shell quartets total.
  Whereas there are 13799631 unique shell quartets.

  ==> DiskJK: Disk-Based J/K Matrices <==

    J tasked:                  Yes
    K tasked:                  Yes
    wK tasked:                  No
    Memory [MiB]:              375
    Schwarz Cutoff:          1E-12

    OpenMP threads:              1

  Minimum eigenvalue in the overlap matrix is 3.0469906831E-04.
  Using Symmetric Orthogonalization.

  SCF Guess: Superposition of Atomic Densities via on-the-fly atomic UHF.

  ==> Iterations <==

                        Total Energy        Delta E     RMS |[F,P]|

   @RHF iter SAD:  -422.60795032186962   -4.22608e+02   0.00000e+00
   @RHF iter   1:  -423.60248268573315   -9.94532e-01   2.96472e-03 DIIS
   @RHF iter   2:  -423.81131472005779   -2.08832e-01   1.35517e-03 DIIS
   @RHF iter   3:  -423.84853398242024   -3.72193e-02   2.85299e-04 DIIS
   @RHF iter   4:  -423.85135571265528   -2.82173e-03   8.81281e-05 DIIS
   @RHF iter   5:  -423.85154153175677   -1.85819e-04   1.77888e-05 DIIS
   @RHF iter   6:  -423.85155194752991   -1.04158e-05   5.14660e-06 DIIS
   @RHF iter   7:  -423.85155287804332   -9.30513e-07   1.88935e-06 DIIS
   @RHF iter   8:  -423.85155300669317   -1.28650e-07   5.22962e-07 DIIS
   @RHF iter   9:  -423.85155302594745   -1.92543e-08   2.27624e-07 DIIS
   @RHF iter  10:  -423.85155303094825   -5.00080e-09   9.29059e-08 DIIS
   @RHF iter  11:  -423.85155303239645   -1.44820e-09   3.41763e-08 DIIS
   @RHF iter  12:  -423.85155303258273   -1.86276e-10   1.19370e-08 DIIS
   @RHF iter  13:  -423.85155303259961   -1.68825e-11   3.90691e-09 DIIS
   @RHF iter  14:  -423.85155303260012   -5.11591e-13   9.42895e-10 DIIS
   @RHF iter  15:  -423.85155303259995    1.70530e-13   3.66526e-10 DIIS
   @RHF iter  16:  -423.85155303260103   -1.08002e-12   1.82619e-10 DIIS
   @RHF iter  17:  -423.85155303259779    3.24007e-12   7.92030e-11 DIIS
  Energy and wave function converged.

  ==> Post-Iterations <==

    Orbital Energies [Eh]
    ---------------------

    Doubly Occupied:

       1A    -20.547884     2A    -11.270802     3A    -11.244140
       4A    -11.238653     5A    -11.237826     6A    -11.234542
       7A    -11.233528     8A    -11.232798     9A    -11.232288
      10A    -11.218700    11A     -1.350393    12A     -1.157435
      13A     -1.047517    14A     -1.015736    15A     -1.005180
      16A     -0.934416    17A     -0.830383    18A     -0.826459
      19A     -0.799360    20A     -0.696317    21A     -0.688934
      22A     -0.643579    23A     -0.634530    24A     -0.630684
      25A     -0.585896    26A     -0.578169    27A     -0.566239
      28A     -0.562415    29A     -0.538583    30A     -0.527369
      31A     -0.524955    32A     -0.492361    33A     -0.488090
      34A     -0.484131    35A     -0.473779    36A     -0.433204
      37A     -0.335957    38A     -0.325994

    Virtual:

      39A      0.130807    40A      0.140012    41A      0.159026
      42A      0.189081    43A      0.203480    44A      0.211346
      45A      0.222868    46A      0.240007    47A      0.252244
      48A      0.265122    49A      0.266644    50A      0.269960
      51A      0.274254    52A      0.293372    53A      0.299346
      54A      0.320010    55A      0.363669    56A      0.371986
      57A      0.384694    58A      0.403673    59A      0.451626
      60A      0.461100    61A      0.469838    62A      0.499218
      63A      0.560679    64A      0.593232    65A      0.614290
      66A      0.622276    67A      0.623397    68A      0.662277
      69A      0.680826    70A      0.690743    71A      0.706705
      72A      0.710963    73A      0.731546    74A      0.739532
      75A      0.742898    76A      0.751656    77A      0.752374
      78A      0.757342    79A      0.763001    80A      0.781387
      81A      0.796406    82A      0.807636    83A      0.846832
      84A      0.849469    85A      0.855264    86A      0.873318
      87A      0.880160    88A      0.887329    89A      0.893074
      90A      0.895332    91A      0.897585    92A      0.903625
      93A      0.911941    94A      0.921587    95A      0.928726
      96A      0.939426    97A      0.942546    98A      0.973781
      99A      0.995431   100A      1.015805   101A      1.069627
     102A      1.114434   103A      1.135967   104A      1.138222
     105A      1.143545   106A      1.153012   107A      1.184167
     108A      1.193576   109A      1.214356   110A      1.220158
     111A      1.247771   112A      1.250409   113A      1.254703
     114A      1.279241   115A      1.298428   116A      1.307000
     117A      1.314521   118A      1.325042   119A      1.354959
     120A      1.411729   121A      1.457214   122A      1.480965
     123A      1.506600   124A      1.523013   125A      1.539658
     126A      1.549891   127A      1.566123   128A      1.607174
     129A      1.613934   130A      1.674752   131A      1.680971
     132A      1.681945   133A      1.732528   134A      1.740175
     135A      1.749591   136A      1.784752   137A      1.801732
     138A      1.815628   139A      1.858985   140A      1.874248
     141A      1.875200   142A      1.882276   143A      1.894759
     144A      1.897604   145A      1.903543   146A      1.908454
     147A      1.918299   148A      1.930007   149A      1.941301
     150A      1.955576   151A      1.956815   152A      1.970210
     153A      1.976941   154A      1.982270   155A      1.997798
     156A      2.006229   157A      2.024745   158A      2.031972
     159A      2.051936   160A      2.079913   161A      2.101135
     162A      2.109626   163A      2.122959   164A      2.153301
     165A      2.163519   166A      2.178259   167A      2.194290
     168A      2.208234   169A      2.245684   170A      2.257143
     171A      2.274914   172A      2.280001   173A      2.284247
     174A      2.297621   175A      2.306942   176A      2.344088
     177A      2.363434   178A      2.440047   179A      2.468747
     180A      2.475651   181A      2.511753   182A      2.521558
     183A      2.534507   184A      2.543775   185A      2.584430
     186A      2.633341   187A      2.722839   188A      2.752972
     189A      2.764662   190A      2.766655   191A      2.780136
     192A      2.786163   193A      2.799130   194A      2.808953
     195A      2.841367   196A      2.864896   197A      2.902132
     198A      2.939514   199A      2.988655   200A      3.009617
     201A      3.031286   202A      3.161249   203A      3.200158
     204A      3.301042   205A      3.328736   206A      3.420125
     207A      3.460096   208A      3.618902   209A      3.969807
     210A      4.116173

    Final Occupation by Irrep:
              A
    DOCC [    38 ]

  @RHF Final Energy:  -423.85155303259779

   => Energetics <=

    Nuclear Repulsion Energy =            476.5316349488790024
    One-Electron Energy =               -1519.0279220886561689
    Two-Electron Energy =                 618.6447341071794881
    Total Energy =                       -423.8515530325977352

Computation Completed

Properties will be evaluated at   0.000000,   0.000000,   0.000000 [a0]

Properties computed using the SCF density matrix

  Nuclear Dipole Moment: [e a0]
     X:    -0.3849      Y:     1.7737      Z:     5.7536

  Electronic Dipole Moment: [e a0]
     X:     0.3493      Y:    -2.4914      Z:    -5.9386

  Dipole Moment: [e a0]
     X:    -0.0356      Y:    -0.7176      Z:    -0.1850     Total:     0.7420

  Dipole Moment: [D]
     X:    -0.0905      Y:    -1.8241      Z:    -0.4701     Total:     1.8859

*** tstop() called on ds3 at Mon Apr 27 22:41:46 2020
Module time:
	user time   =      77.46 seconds =       1.29 minutes
	system time =      39.36 seconds =       0.66 minutes
	total time  =        129 seconds =       2.15 minutes
Total time:
	user time   =      77.46 seconds =       1.29 minutes
	system time =      39.36 seconds =       0.66 minutes
	total time  =        129 seconds =       2.15 minutes
                                     G D M A

                                 by Anthony Stone

                           version 2.2.06, 22 June 2011

               Distributed Multipoles from Gaussian wavefunctions

Starting at 22:41:46 on 27 Apr 2020

Using SCF density matrix from file ./SSI/SSI-052SER-063PHE-1-dimer.test.31572.fchk

                         Distributed Multipole Analysis

Standard DMA

Positions and radii in angstrom
Multipole moments in atomic units, ea_0^k for rank k

C          x = -1.808382  y =  2.287000  z =  1.524108 angstrom
           Maximum rank =  0   Radius =  0.650 angstrom
                   Q00  =   0.099466

C          x = -1.564382  y =  2.714000  z =  2.970108 angstrom
           Maximum rank =  0   Radius =  0.650 angstrom
                   Q00  =  -0.236699

O          x = -1.671382  y =  3.405000  z =  0.666108 angstrom
           Maximum rank =  0   Radius =  0.650 angstrom
                   Q00  =  -0.590893

H          x = -1.089382  y =  1.515000  z =  1.250108 angstrom
           Maximum rank =  0   Radius =  0.325 angstrom
                   Q00  =   0.035406

H          x = -2.814382  y =  1.873000  z =  1.430108 angstrom
           Maximum rank =  0   Radius =  0.325 angstrom
                   Q00  =   0.035797

H          x = -1.661382  y =  1.835000  z =  3.606108 angstrom
           Maximum rank =  0   Radius =  0.325 angstrom
                   Q00  =   0.083874

H          x = -1.939382  y =  3.145000  z = -0.226892 angstrom
           Maximum rank =  0   Radius =  0.325 angstrom
                   Q00  =   0.387752

H          x = -2.312897  y =  3.460260  z =  3.274778 angstrom
           Maximum rank =  0   Radius =  0.325 angstrom
                   Q00  =   0.089965

H          x = -0.534981  y =  3.087930  z =  3.072618 angstrom
           Maximum rank =  0   Radius =  0.325 angstrom
                   Q00  =   0.090105

C          x =  2.965618  y = -2.592000  z = -0.517892 angstrom
           Maximum rank =  0   Radius =  0.650 angstrom
                   Q00  =  -0.202921

C          x =  0.378618  y =  0.191000  z = -0.704892 angstrom
           Maximum rank =  0   Radius =  0.650 angstrom
                   Q00  =  -0.051325

C          x = -0.758382  y = -0.508000  z = -1.074892 angstrom
           Maximum rank =  0   Radius =  0.650 angstrom
                   Q00  =  -0.096892

C          x =  1.579618  y = -0.484000  z = -0.528892 angstrom
           Maximum rank =  0   Radius =  0.650 angstrom
                   Q00  =   0.009211

C          x =  1.657618  y = -1.863000  z = -0.727892 angstrom
           Maximum rank =  0   Radius =  0.650 angstrom
                   Q00  =  -0.100868

C          x = -0.696382  y = -1.883000  z = -1.260892 angstrom
           Maximum rank =  0   Radius =  0.650 angstrom
                   Q00  =  -0.057868

C          x =  0.507618  y = -2.558000  z = -1.081892 angstrom
           Maximum rank =  0   Radius =  0.650 angstrom
                   Q00  =  -0.083742

H          x =  0.337618  y =  1.264000  z = -0.569892 angstrom
           Maximum rank =  0   Radius =  0.325 angstrom
                   Q00  =   0.050566

H          x = -1.694382  y =  0.016000  z = -1.222892 angstrom
           Maximum rank =  0   Radius =  0.325 angstrom
                   Q00  =   0.052948

H          x =  2.458618  y =  0.077000  z = -0.247892 angstrom
           Maximum rank =  0   Radius =  0.325 angstrom
                   Q00  =   0.056485

H          x = -1.585382  y = -2.430000  z = -1.546892 angstrom
           Maximum rank =  0   Radius =  0.325 angstrom
                   Q00  =   0.065263

H          x =  3.679618  y = -2.242000  z = -1.263892 angstrom
           Maximum rank =  0   Radius =  0.325 angstrom
                   Q00  =   0.103355

H          x =  2.819618  y = -3.661000  z = -0.679892 angstrom
           Maximum rank =  0   Radius =  0.325 angstrom
                   Q00  =   0.097762

H          x =  0.543618  y = -3.630000  z = -1.225892 angstrom
           Maximum rank =  0   Radius =  0.325 angstrom
                   Q00  =   0.059552

H          x =  3.391061  y = -2.435600  z =  0.484378 angstrom
           Maximum rank =  0   Radius =  0.325 angstrom
                   Q00  =   0.103700

Total multipoles referred to origin at
           x =   0.000000,  y =    0.000000,  z =    0.000000 angstrom
                   Q00  =  -0.000000

Finished at 22:41:46 on 27 Apr 2020

  DMA results are available in the Python driver through the
	  variable('DMA DISTRIBUTED MULTIPOLES')
  and
	  variable('DMA TOTAL MULTIPOLES')
  commands.

    Psi4 stopped on: Monday, 27 April 2020 10:41PM
    Psi4 wall time for execution: 0:02:09.32

*** Psi4 exiting successfully. Buy a developer a beer!
