                               Psi4 1.3.2 release

  ==> Input File <==

--------------------------------------------------------------------------
import numpy as np
set {scf_type pk
basis cc-pvdz
d_convergence 10
gdma_switch   0
gdma_limit    0
gdma_origin   [ 0.0,  0.0,  0.0 ]
}
molecule test {
    units Angstrom
    0 1
    --
    0 1
    C                1.274361579254384    -0.816895930739563    -0.980277774911827
    C                1.788361579254384     0.059104069260437    -2.118277774911827
    H                0.280361579254384    -1.208895930739563    -1.184277774911827
    H                1.938361579254384    -1.675895930739563    -0.880277774911827
    H                1.310361579254384    -0.263895930739563    -0.042277774911827
    H                1.852361579254384    -0.562895930739563    -3.006277774911827
    H                1.087481579254384     0.889834069260437    -2.287579774911827
    H                2.795651579254384     0.438814069260437    -1.892033774911827
    C               -1.441638420745616     0.705104069260437     0.863722225088173
    C               -1.619638420745616     0.061104069260437     2.239722225088173
    H               -0.746638420745616     0.137104069260437     0.269722225088173
    H               -2.402638420745616     0.687104069260437     0.347722225088173
    H               -1.119638420745616     1.742104069260437     0.922722225088173
    H               -2.402638420745616     0.595104069260438     2.778722225088173
    H               -0.684638420745616     0.107284069260437     2.817342225088173
    H               -1.925608420745616    -0.985975930739563     2.098282225088173

}
e, wfn = energy('scf', return_wfn=True)
gdma(wfn)
dmavals = variable('DMA DISTRIBUTED MULTIPOLES')
charges = np.array(dmavals)
print(charges)
np.save('SSI-007LEU-026VAL-1-dimer.npy', np.array(charges))--------------------------------------------------------------------------

*** tstart() called on ds3
*** at Mon Apr 27 22:00:43 2020

   => Loading Basis Set <=

    Name: CC-PVDZ
    Role: ORBITAL
    Keyword: BASIS
    atoms 1-2, 9-10  entry C          line   138 file /theoryfs2/ds/metcalf/miniconda2/envs/tf2gpu/share/psi4/basis/cc-pvdz.gbs
    atoms 3-8, 11-16 entry H          line    22 file /theoryfs2/ds/metcalf/miniconda2/envs/tf2gpu/share/psi4/basis/cc-pvdz.gbs

         ---------------------------------------------------------
                                   SCF
               by Justin Turney, Rob Parrish, Andy Simmonett
                          and Daniel G. A. Smith
                              RHF Reference
                        1 Threads,    500 MiB Core
         ---------------------------------------------------------

  ==> Geometry <==

    Molecular point group: c1
    Full point group: C1

    Geometry (in Angstrom), charge = 0, multiplicity = 1:

       Center              X                  Y                   Z               Mass
    ------------   -----------------  -----------------  -----------------  -----------------
         C            1.274361579254    -0.816895930740    -0.980277774912    12.000000000000
         C            1.788361579254     0.059104069260    -2.118277774912    12.000000000000
         H            0.280361579254    -1.208895930740    -1.184277774912     1.007825032230
         H            1.938361579254    -1.675895930740    -0.880277774912     1.007825032230
         H            1.310361579254    -0.263895930740    -0.042277774912     1.007825032230
         H            1.852361579254    -0.562895930740    -3.006277774912     1.007825032230
         H            1.087481579254     0.889834069260    -2.287579774912     1.007825032230
         H            2.795651579254     0.438814069260    -1.892033774912     1.007825032230
         C           -1.441638420746     0.705104069260     0.863722225088    12.000000000000
         C           -1.619638420746     0.061104069260     2.239722225088    12.000000000000
         H           -0.746638420746     0.137104069260     0.269722225088     1.007825032230
         H           -2.402638420746     0.687104069260     0.347722225088     1.007825032230
         H           -1.119638420746     1.742104069260     0.922722225088     1.007825032230
         H           -2.402638420746     0.595104069260     2.778722225088     1.007825032230
         H           -0.684638420746     0.107284069260     2.817342225088     1.007825032230
         H           -1.925608420746    -0.985975930740     2.098282225088     1.007825032230

  Running in c1 symmetry.

  Rotational constants: A =      0.50500  B =      0.05193  C =      0.04909 [cm^-1]
  Rotational constants: A =  15139.52634  B =   1556.68135  C =   1471.75269 [MHz]
  Nuclear repulsion =  123.601963845578112

  Charge       = 0
  Multiplicity = 1
  Electrons    = 36
  Nalpha       = 18
  Nbeta        = 18

  ==> Algorithm <==

  SCF Algorithm Type is PK.
  DIIS enabled.
  MOM disabled.
  Fractional occupation disabled.
  Guess Type is SAD.
  Energy threshold   = 1.00e-06
  Density threshold  = 1.00e-10
  Integral threshold = 0.00e+00

  ==> Primary Basis <==

  Basis Set: CC-PVDZ
    Blend: CC-PVDZ
    Number of shells: 60
    Number of basis function: 116
    Number of Cartesian functions: 120
    Spherical Harmonics?: true
    Max angular momentum: 2

  ==> Pre-Iterations <==

   -------------------------------------------------------
    Irrep   Nso     Nmo     Nalpha   Nbeta   Ndocc  Nsocc
   -------------------------------------------------------
     A        116     116       0       0       0       0
   -------------------------------------------------------
    Total     116     116      18      18      18       0
   -------------------------------------------------------

  ==> Integral Setup <==

  Using integral reordering PK algorithm.
  Sizing the integral batches needed.
  Building batch lookup table.
   Calculation information:
      Number of atoms:                  16
      Number of AO shells:              60
      Number of primitives:            148
      Number of atomic orbitals:       120
      Number of basis functions:       116

      Integral cutoff                 1.00e-12
      Number of threads:                 1

	Batch   1 pq = [       0,    6786] index = [             0,23028291] size =     23028291
  Task number: 3
  Buffer size: 11059200
  Buffer per thread: 2
  We computed 1474727 shell quartets total.
  Whereas there are 1675365 unique shell quartets.

  ==> DiskJK: Disk-Based J/K Matrices <==

    J tasked:                  Yes
    K tasked:                  Yes
    wK tasked:                  No
    Memory [MiB]:              375
    Schwarz Cutoff:          1E-12

    OpenMP threads:              1

  Minimum eigenvalue in the overlap matrix is 7.3203670323E-03.
  Using Symmetric Orthogonalization.

  SCF Guess: Superposition of Atomic Densities via on-the-fly atomic UHF.

  ==> Iterations <==

                        Total Energy        Delta E     RMS |[F,P]|

   @RHF iter SAD:  -157.39281652779380   -1.57393e+02   0.00000e+00
   @RHF iter   1:  -158.30423308535026   -9.11417e-01   4.21284e-03 DIIS
   @RHF iter   2:  -158.43813962459095   -1.33907e-01   1.77915e-03 DIIS
   @RHF iter   3:  -158.46116629643427   -2.30267e-02   3.50419e-04 DIIS
   @RHF iter   4:  -158.46301099850820   -1.84470e-03   3.91041e-05 DIIS
   @RHF iter   5:  -158.46303523839282   -2.42399e-05   6.52713e-06 DIIS
   @RHF iter   6:  -158.46303586667636   -6.28284e-07   1.18142e-06 DIIS
   @RHF iter   7:  -158.46303588032754   -1.36512e-08   3.20047e-07 DIIS
   @RHF iter   8:  -158.46303588128268   -9.55140e-10   4.34338e-08 DIIS
   @RHF iter   9:  -158.46303588131443   -3.17470e-11   9.54396e-09 DIIS
   @RHF iter  10:  -158.46303588131553   -1.10845e-12   2.79695e-09 DIIS
   @RHF iter  11:  -158.46303588131556   -2.84217e-14   7.89580e-10 DIIS
   @RHF iter  12:  -158.46303588131582   -2.55795e-13   1.78651e-10 DIIS
   @RHF iter  13:  -158.46303588131570    1.13687e-13   2.71955e-11 DIIS
  Energy and wave function converged.

  ==> Post-Iterations <==

    Orbital Energies [Eh]
    ---------------------

    Doubly Occupied:

       1A    -11.219586     2A    -11.218458     3A    -11.216756
       4A    -11.211066     5A     -1.021960     6A     -1.016021
       7A     -0.840717     8A     -0.833495     9A     -0.608453
      10A     -0.602276    11A     -0.595196    12A     -0.590443
      13A     -0.505878    14A     -0.497801    15A     -0.492555
      16A     -0.487753    17A     -0.483146    18A     -0.472830

    Virtual:

      19A      0.174344    20A      0.196813    21A      0.230314
      22A      0.235414    23A      0.248159    24A      0.257315
      25A      0.263637    26A      0.276751    27A      0.279909
      28A      0.282842    29A      0.309091    30A      0.355815
      31A      0.392499    32A      0.403301    33A      0.578714
      34A      0.597685    35A      0.602285    36A      0.607495
      37A      0.622356    38A      0.633217    39A      0.673825
      40A      0.683339    41A      0.702894    42A      0.829647
      43A      0.845748    44A      0.849776    45A      0.886410
      46A      0.888665    47A      0.892857    48A      0.896856
      49A      0.897515    50A      0.899438    51A      0.924433
      52A      0.931434    53A      0.941170    54A      0.947908
      55A      0.963800    56A      1.024935    57A      1.124902
      58A      1.126244    59A      1.134348    60A      1.165902
      61A      1.235236    62A      1.367727    63A      1.466692
      64A      1.472061    65A      1.479430    66A      1.496740
      67A      1.550776    68A      1.614830    69A      1.671987
      70A      1.681497    71A      1.684308    72A      1.729532
      73A      1.850524    74A      1.861671    75A      1.872804
      76A      1.880552    77A      1.882067    78A      1.914742
      79A      1.933670    80A      1.941044    81A      1.945931
      82A      1.958039    83A      1.962886    84A      1.964352
      85A      1.970606    86A      1.974893    87A      1.978936
      88A      2.045337    89A      2.085281    90A      2.101920
      91A      2.132082    92A      2.137752    93A      2.284413
      94A      2.299596    95A      2.314445    96A      2.327950
      97A      2.454410    98A      2.460525    99A      2.466679
     100A      2.491889   101A      2.553106   102A      2.575700
     103A      2.583040   104A      2.593576   105A      2.761469
     106A      2.767207   107A      2.791993   108A      2.800058
     109A      2.844877   110A      2.851054   111A      2.862909
     112A      2.872145   113A      2.935512   114A      2.966466
     115A      2.999685   116A      3.019242

    Final Occupation by Irrep:
              A
    DOCC [    18 ]

  @RHF Final Energy:  -158.46303588131570

   => Energetics <=

    Nuclear Repulsion Energy =            123.6019638455781120
    One-Electron Energy =                -456.3012146467781349
    Two-Electron Energy =                 174.2362149198843326
    Total Energy =                       -158.4630358813157045

Computation Completed

Properties will be evaluated at   0.000000,   0.000000,   0.000000 [a0]

Properties computed using the SCF density matrix

  Nuclear Dipole Moment: [e a0]
     X:    -0.0161      Y:    -0.0939      Z:    -0.0546

  Electronic Dipole Moment: [e a0]
     X:     0.0502      Y:     0.0641      Z:     0.0155

  Dipole Moment: [e a0]
     X:     0.0341      Y:    -0.0299      Z:    -0.0391     Total:     0.0598

  Dipole Moment: [D]
     X:     0.0866      Y:    -0.0759      Z:    -0.0993     Total:     0.1520

*** tstop() called on ds3 at Mon Apr 27 22:00:54 2020
Module time:
	user time   =       7.77 seconds =       0.13 minutes
	system time =       2.90 seconds =       0.05 minutes
	total time  =         11 seconds =       0.18 minutes
Total time:
	user time   =       7.77 seconds =       0.13 minutes
	system time =       2.90 seconds =       0.05 minutes
	total time  =         11 seconds =       0.18 minutes
                                     G D M A

                                 by Anthony Stone

                           version 2.2.06, 22 June 2011

               Distributed Multipoles from Gaussian wavefunctions

Starting at 22:0:54 on 27 Apr 2020

Using SCF density matrix from file ./SSI/SSI-007LEU-026VAL-1-dimer.test.30318.fchk

                         Distributed Multipole Analysis

Standard DMA

Positions and radii in angstrom
Multipole moments in atomic units, ea_0^k for rank k

C          x =  1.274362  y = -0.816896  z = -0.980278 angstrom
           Maximum rank =  0   Radius =  0.650 angstrom
                   Q00  =  -0.239583

C          x =  1.788362  y =  0.059104  z = -2.118278 angstrom
           Maximum rank =  0   Radius =  0.650 angstrom
                   Q00  =  -0.231500

H          x =  0.280362  y = -1.208896  z = -1.184278 angstrom
           Maximum rank =  0   Radius =  0.325 angstrom
                   Q00  =   0.080192

H          x =  1.938362  y = -1.675896  z = -0.880278 angstrom
           Maximum rank =  0   Radius =  0.325 angstrom
                   Q00  =   0.074290

H          x =  1.310362  y = -0.263896  z = -0.042278 angstrom
           Maximum rank =  0   Radius =  0.325 angstrom
                   Q00  =   0.079215

H          x =  1.852362  y = -0.562896  z = -3.006278 angstrom
           Maximum rank =  0   Radius =  0.325 angstrom
                   Q00  =   0.077424

H          x =  1.087482  y =  0.889834  z = -2.287580 angstrom
           Maximum rank =  0   Radius =  0.325 angstrom
                   Q00  =   0.078121

H          x =  2.795652  y =  0.438814  z = -1.892034 angstrom
           Maximum rank =  0   Radius =  0.325 angstrom
                   Q00  =   0.080146

C          x = -1.441638  y =  0.705104  z =  0.863722 angstrom
           Maximum rank =  0   Radius =  0.650 angstrom
                   Q00  =  -0.255487

C          x = -1.619638  y =  0.061104  z =  2.239722 angstrom
           Maximum rank =  0   Radius =  0.650 angstrom
                   Q00  =  -0.230346

H          x = -0.746638  y =  0.137104  z =  0.269722 angstrom
           Maximum rank =  0   Radius =  0.325 angstrom
                   Q00  =   0.101485

H          x = -2.402638  y =  0.687104  z =  0.347722 angstrom
           Maximum rank =  0   Radius =  0.325 angstrom
                   Q00  =   0.072677

H          x = -1.119638  y =  1.742104  z =  0.922722 angstrom
           Maximum rank =  0   Radius =  0.325 angstrom
                   Q00  =   0.078417

H          x = -2.402638  y =  0.595104  z =  2.778722 angstrom
           Maximum rank =  0   Radius =  0.325 angstrom
                   Q00  =   0.079645

H          x = -0.684638  y =  0.107284  z =  2.817342 angstrom
           Maximum rank =  0   Radius =  0.325 angstrom
                   Q00  =   0.077627

H          x = -1.925608  y = -0.985976  z =  2.098282 angstrom
           Maximum rank =  0   Radius =  0.325 angstrom
                   Q00  =   0.077677

Total multipoles referred to origin at
           x =   0.000000,  y =    0.000000,  z =    0.000000 angstrom
                   Q00  =  -0.000000

Finished at 22:0:54 on 27 Apr 2020

  DMA results are available in the Python driver through the
	  variable('DMA DISTRIBUTED MULTIPOLES')
  and
	  variable('DMA TOTAL MULTIPOLES')
  commands.

    Psi4 stopped on: Monday, 27 April 2020 10:00PM
    Psi4 wall time for execution: 0:00:10.67

*** Psi4 exiting successfully. Buy a developer a beer!
