                               Psi4 1.3.2 release

  ==> Input File <==

--------------------------------------------------------------------------
import numpy as np
set {scf_type pk
basis cc-pvdz
d_convergence 10
gdma_switch   0
gdma_limit    0
gdma_origin   [ 0.0,  0.0,  0.0 ]
}
molecule test {
    units Angstrom
    0 1
    --
    0 1
    C               -1.836889672531212    -0.221562903126012    -1.189192245096958
    C               -2.837889672531212    -1.340562903126012    -1.397192245096958
    C               -0.723889672531212    -0.542562903126012    -0.201192245096958
    C               -1.012889672531212    -0.990562903126012     1.098807754903042
    C                0.624110327468788    -0.378562903126012    -0.552192245096958
    C                0.003110327468788    -1.295562903126012     2.002807754903043
    C                1.634110327468788    -0.669562903126012     0.342807754903042
    C                1.332110327468788    -1.123562903126012     1.624807754903042
    O                2.345110327468788    -1.393562903126012     2.483807754903042
    H               -1.396889672531212     0.045437096873988    -2.151192245096958
    H               -2.360889672531212     0.659437096873988    -0.813192245096958
    H               -3.253889672531213    -1.614562903126012    -0.427192245096958
    H               -2.041889672531212    -1.088562903126012     1.414807754903042
    H                0.883110327468788    -0.035562903126012    -1.545192245096958
    H               -0.233889672531212    -1.637562903126012     2.999807754903042
    H                2.668110327468788    -0.547562903126012     0.052807754903042
    H                2.038110327468788    -1.525562903126012     3.399807754903042
    H               -2.352569672531212    -2.219552903126012    -1.846454245096958
    H               -3.675819672531212    -0.971872903126012    -2.007060245096957
    C                0.049110327468788     2.936437096873988    -1.803192245096958
    C                0.356110327468788     4.391437096873989    -2.156192245096958
    H               -0.378889672531212     2.856437096873988    -0.804192245096958
    H               -0.658889672531212     2.528437096873988    -2.525192245096957
    H                0.969110327468788     2.352437096873988    -1.845192245096958
    H                0.759110327468788     4.417437096873988    -3.171192245096958
    H                1.109780327468788     4.788387096873988    -1.460200245096958
    H               -0.562369672531212     4.996507096873988    -2.139505245096958

}
e, wfn = energy('scf', return_wfn=True)
gdma(wfn)
dmavals = variable('DMA DISTRIBUTED MULTIPOLES')
charges = np.array(dmavals)
print(charges)
np.save('SSI-161TYR-204ALA-1-dimer.npy', np.array(charges))--------------------------------------------------------------------------

*** tstart() called on ds3
*** at Mon Apr 27 15:56:28 2020

   => Loading Basis Set <=

    Name: CC-PVDZ
    Role: ORBITAL
    Keyword: BASIS
    atoms 1-8, 20-21   entry C          line   138 file /theoryfs2/ds/metcalf/miniconda2/envs/tf2gpu/share/psi4/basis/cc-pvdz.gbs
    atoms 9            entry O          line   198 file /theoryfs2/ds/metcalf/miniconda2/envs/tf2gpu/share/psi4/basis/cc-pvdz.gbs
    atoms 10-19, 22-27 entry H          line    22 file /theoryfs2/ds/metcalf/miniconda2/envs/tf2gpu/share/psi4/basis/cc-pvdz.gbs

         ---------------------------------------------------------
                                   SCF
               by Justin Turney, Rob Parrish, Andy Simmonett
                          and Daniel G. A. Smith
                              RHF Reference
                        1 Threads,    500 MiB Core
         ---------------------------------------------------------

  ==> Geometry <==

    Molecular point group: c1
    Full point group: C1

    Geometry (in Angstrom), charge = 0, multiplicity = 1:

       Center              X                  Y                   Z               Mass
    ------------   -----------------  -----------------  -----------------  -----------------
         C           -1.836889672531    -0.221562903126    -1.189192245097    12.000000000000
         C           -2.837889672531    -1.340562903126    -1.397192245097    12.000000000000
         C           -0.723889672531    -0.542562903126    -0.201192245097    12.000000000000
         C           -1.012889672531    -0.990562903126     1.098807754903    12.000000000000
         C            0.624110327469    -0.378562903126    -0.552192245097    12.000000000000
         C            0.003110327469    -1.295562903126     2.002807754903    12.000000000000
         C            1.634110327469    -0.669562903126     0.342807754903    12.000000000000
         C            1.332110327469    -1.123562903126     1.624807754903    12.000000000000
         O            2.345110327469    -1.393562903126     2.483807754903    15.994914619570
         H           -1.396889672531     0.045437096874    -2.151192245097     1.007825032230
         H           -2.360889672531     0.659437096874    -0.813192245097     1.007825032230
         H           -3.253889672531    -1.614562903126    -0.427192245097     1.007825032230
         H           -2.041889672531    -1.088562903126     1.414807754903     1.007825032230
         H            0.883110327469    -0.035562903126    -1.545192245097     1.007825032230
         H           -0.233889672531    -1.637562903126     2.999807754903     1.007825032230
         H            2.668110327469    -0.547562903126     0.052807754903     1.007825032230
         H            2.038110327469    -1.525562903126     3.399807754903     1.007825032230
         H           -2.352569672531    -2.219552903126    -1.846454245097     1.007825032230
         H           -3.675819672531    -0.971872903126    -2.007060245097     1.007825032230
         C            0.049110327469     2.936437096874    -1.803192245097    12.000000000000
         C            0.356110327469     4.391437096874    -2.156192245097    12.000000000000
         H           -0.378889672531     2.856437096874    -0.804192245097     1.007825032230
         H           -0.658889672531     2.528437096874    -2.525192245097     1.007825032230
         H            0.969110327469     2.352437096874    -1.845192245097     1.007825032230
         H            0.759110327469     4.417437096874    -3.171192245097     1.007825032230
         H            1.109780327469     4.788387096874    -1.460200245097     1.007825032230
         H           -0.562369672531     4.996507096874    -2.139505245097     1.007825032230

  Running in c1 symmetry.

  Rotational constants: A =      0.03524  B =      0.01903  C =      0.01343 [cm^-1]
  Rotational constants: A =   1056.38320  B =    570.55276  C =    402.68681 [MHz]
  Nuclear repulsion =  578.907779781534032

  Charge       = 0
  Multiplicity = 1
  Electrons    = 84
  Nalpha       = 42
  Nbeta        = 42

  ==> Algorithm <==

  SCF Algorithm Type is PK.
  DIIS enabled.
  MOM disabled.
  Fractional occupation disabled.
  Guess Type is SAD.
  Energy threshold   = 1.00e-06
  Density threshold  = 1.00e-10
  Integral threshold = 0.00e+00

  ==> Primary Basis <==

  Basis Set: CC-PVDZ
    Blend: CC-PVDZ
    Number of shells: 114
    Number of basis function: 234
    Number of Cartesian functions: 245
    Spherical Harmonics?: true
    Max angular momentum: 2

  ==> Pre-Iterations <==

   -------------------------------------------------------
    Irrep   Nso     Nmo     Nalpha   Nbeta   Ndocc  Nsocc
   -------------------------------------------------------
     A        234     234       0       0       0       0
   -------------------------------------------------------
    Total     234     234      42      42      42       0
   -------------------------------------------------------

  ==> Integral Setup <==

  Using integral reordering PK algorithm.
  Sizing the integral batches needed.
  Building batch lookup table.
   Calculation information:
      Number of atoms:                  27
      Number of AO shells:             114
      Number of primitives:            322
      Number of atomic orbitals:       245
      Number of basis functions:       234

      Integral cutoff                 1.00e-12
      Number of threads:                 1

	Batch   1 pq = [       0,    9405] index = [             0,44231715] size =     44231715
	Batch   2 pq = [    9405,   13301] index = [      44231715,88464951] size =     44233236
	Batch   3 pq = [   13301,   16290] index = [      88464951,132690195] size =     44225244
	Batch   4 pq = [   16290,   18810] index = [     132690195,176917455] size =     44227260
	Batch   5 pq = [   18810,   21030] index = [     176917455,221140965] size =     44223510
	Batch   6 pq = [   21030,   23037] index = [     221140965,265363203] size =     44222238
	Batch   7 pq = [   23037,   24883] index = [     265363203,309594286] size =     44231083
	Batch   8 pq = [   24883,   26601] index = [     309594286,353819901] size =     44225615
	Batch   9 pq = [   26601,   27495] index = [     353819901,378001260] size =     24181359
  Task number: 35
  Buffer size: 11059200
  Buffer per thread: 2
  We computed 18927638 shell quartets total.
  Whereas there are 21487290 unique shell quartets.

  ==> DiskJK: Disk-Based J/K Matrices <==

    J tasked:                  Yes
    K tasked:                  Yes
    wK tasked:                  No
    Memory [MiB]:              375
    Schwarz Cutoff:          1E-12

    OpenMP threads:              1

  Minimum eigenvalue in the overlap matrix is 3.1959312960E-04.
  Using Symmetric Orthogonalization.

  SCF Guess: Superposition of Atomic Densities via on-the-fly atomic UHF.

  ==> Iterations <==

                        Total Energy        Delta E     RMS |[F,P]|

   @RHF iter SAD:  -461.68798044023379   -4.61688e+02   0.00000e+00
   @RHF iter   1:  -462.60600693831373   -9.18026e-01   2.81068e-03 DIIS
   @RHF iter   2:  -462.84789450864139   -2.41888e-01   1.18759e-03 DIIS
   @RHF iter   3:  -462.88711003735693   -3.92155e-02   2.68799e-04 DIIS
   @RHF iter   4:  -462.89036462363322   -3.25459e-03   1.10336e-04 DIIS
   @RHF iter   5:  -462.89075158369519   -3.86960e-04   1.99857e-05 DIIS
   @RHF iter   6:  -462.89077186139889   -2.02777e-05   5.56582e-06 DIIS
   @RHF iter   7:  -462.89077345508781   -1.59369e-06   2.07060e-06 DIIS
   @RHF iter   8:  -462.89077369691529   -2.41827e-07   7.15173e-07 DIIS
   @RHF iter   9:  -462.89077374064266   -4.37274e-08   2.67680e-07 DIIS
   @RHF iter  10:  -462.89077374785251   -7.20985e-09   1.22403e-07 DIIS
   @RHF iter  11:  -462.89077375007690   -2.22440e-09   5.69878e-08 DIIS
   @RHF iter  12:  -462.89077375057798   -5.01075e-10   2.49201e-08 DIIS
   @RHF iter  13:  -462.89077375065767   -7.96945e-11   8.35069e-09 DIIS
   @RHF iter  14:  -462.89077375066597   -8.29914e-12   2.15476e-09 DIIS
   @RHF iter  15:  -462.89077375066614   -1.70530e-13   7.43742e-10 DIIS
   @RHF iter  16:  -462.89077375066080    5.34328e-12   3.23162e-10 DIIS
   @RHF iter  17:  -462.89077375066262   -1.81899e-12   1.52188e-10 DIIS
   @RHF iter  18:  -462.89077375066415   -1.53477e-12   7.80091e-11 DIIS
  Energy and wave function converged.

  ==> Post-Iterations <==

    Orbital Energies [Eh]
    ---------------------

    Doubly Occupied:

       1A    -20.583672     2A    -11.298027     3A    -11.238956
       4A    -11.235552     5A    -11.232245     6A    -11.231707
       7A    -11.227326     8A    -11.226079     9A    -11.221342
      10A    -11.217746    11A    -11.214182    12A     -1.399522
      13A     -1.148464    14A     -1.056713    15A     -1.017753
      16A     -1.015836    17A     -0.975418    18A     -0.859040
      19A     -0.842479    20A     -0.833381    21A     -0.788179
      22A     -0.730857    23A     -0.670804    24A     -0.641028
      25A     -0.612943    26A     -0.600311    27A     -0.597377
      28A     -0.594977    29A     -0.589023    30A     -0.582822
      31A     -0.570281    32A     -0.538629    33A     -0.520294
      34A     -0.498701    35A     -0.496224    36A     -0.485176
      37A     -0.482838    38A     -0.473310    39A     -0.471851
      40A     -0.460626    41A     -0.338058    42A     -0.298137

    Virtual:

      43A      0.132554    44A      0.152803    45A      0.178176
      46A      0.180800    47A      0.193939    48A      0.208703
      49A      0.213504    50A      0.228581    51A      0.242193
      52A      0.253851    53A      0.262044    54A      0.266732
      55A      0.276290    56A      0.283593    57A      0.296607
      58A      0.305999    59A      0.326242    60A      0.340680
      61A      0.363243    62A      0.372524    63A      0.394397
      64A      0.422847    65A      0.430889    66A      0.474234
      67A      0.491367    68A      0.503759    69A      0.524244
      70A      0.566538    71A      0.599398    72A      0.602118
      73A      0.604474    74A      0.615625    75A      0.642157
      76A      0.651725    77A      0.668984    78A      0.677026
      79A      0.692054    80A      0.699724    81A      0.711370
      82A      0.728324    83A      0.728847    84A      0.732807
      85A      0.751463    86A      0.763052    87A      0.772028
      88A      0.788764    89A      0.815476    90A      0.821511
      91A      0.843682    92A      0.852821    93A      0.863266
      94A      0.873678    95A      0.884160    96A      0.889491
      97A      0.895024    98A      0.897412    99A      0.898487
     100A      0.907253   101A      0.910234   102A      0.916883
     103A      0.922400   104A      0.933634   105A      0.939621
     106A      0.955415   107A      0.961278   108A      0.972163
     109A      0.981889   110A      0.997143   111A      1.023195
     112A      1.039955   113A      1.049630   114A      1.074603
     115A      1.120069   116A      1.135949   117A      1.141308
     118A      1.151034   119A      1.152536   120A      1.170610
     121A      1.202863   122A      1.226160   123A      1.240416
     124A      1.250073   125A      1.270065   126A      1.282960
     127A      1.291064   128A      1.309429   129A      1.315865
     130A      1.342878   131A      1.364854   132A      1.386912
     133A      1.418267   134A      1.466172   135A      1.473074
     136A      1.483504   137A      1.497730   138A      1.508732
     139A      1.538394   140A      1.573996   141A      1.594615
     142A      1.624111   143A      1.630484   144A      1.678973
     145A      1.682742   146A      1.694555   147A      1.699827
     148A      1.724657   149A      1.742108   150A      1.780866
     151A      1.806262   152A      1.810613   153A      1.832639
     154A      1.863113   155A      1.868373   156A      1.880986
     157A      1.888183   158A      1.892354   159A      1.901191
     160A      1.906891   161A      1.914544   162A      1.926411
     163A      1.936303   164A      1.945908   165A      1.948353
     166A      1.951960   167A      1.958029   168A      1.958881
     169A      1.967439   170A      1.976355   171A      1.995608
     172A      2.004086   173A      2.011547   174A      2.034062
     175A      2.048181   176A      2.061244   177A      2.073587
     178A      2.080378   179A      2.088286   180A      2.104509
     181A      2.110415   182A      2.117709   183A      2.127571
     184A      2.156240   185A      2.191842   186A      2.194668
     187A      2.231122   188A      2.264379   189A      2.271339
     190A      2.302167   191A      2.311893   192A      2.316019
     193A      2.331065   194A      2.358656   195A      2.403764
     196A      2.417122   197A      2.440929   198A      2.455350
     199A      2.463583   200A      2.473265   201A      2.481487
     202A      2.520281   203A      2.539908   204A      2.547085
     205A      2.567247   206A      2.570703   207A      2.596546
     208A      2.637940   209A      2.639360   210A      2.748234
     211A      2.762326   212A      2.767943   213A      2.784168
     214A      2.795966   215A      2.814076   216A      2.847577
     217A      2.853591   218A      2.861758   219A      2.879054
     220A      2.909314   221A      2.947168   222A      2.960335
     223A      2.971305   224A      2.979099   225A      3.027256
     226A      3.092361   227A      3.160957   228A      3.249344
     229A      3.285932   230A      3.353562   231A      3.574006
     232A      3.671184   233A      3.965769   234A      4.176667

    Final Occupation by Irrep:
              A
    DOCC [    42 ]

  @RHF Final Energy:  -462.89077375066415

   => Energetics <=

    Nuclear Repulsion Energy =            578.9077797815340318
    One-Electron Energy =               -1775.3613368779629127
    Two-Electron Energy =                 733.5627833457648421
    Total Energy =                       -462.8907737506641524

Computation Completed

Properties will be evaluated at   0.000000,   0.000000,   0.000000 [a0]

Properties computed using the SCF density matrix

  Nuclear Dipole Moment: [e a0]
     X:    -7.9466      Y:    12.1839      Z:   -12.0519

  Electronic Dipole Moment: [e a0]
     X:     7.4808      Y:   -12.1684      Z:    12.3872

  Dipole Moment: [e a0]
     X:    -0.4658      Y:     0.0155      Z:     0.3352     Total:     0.5741

  Dipole Moment: [D]
     X:    -1.1840      Y:     0.0395      Z:     0.8521     Total:     1.4593

*** tstop() called on ds3 at Mon Apr 27 15:59:37 2020
Module time:
	user time   =     132.92 seconds =       2.22 minutes
	system time =      63.14 seconds =       1.05 minutes
	total time  =        189 seconds =       3.15 minutes
Total time:
	user time   =     132.92 seconds =       2.22 minutes
	system time =      63.14 seconds =       1.05 minutes
	total time  =        189 seconds =       3.15 minutes
                                     G D M A

                                 by Anthony Stone

                           version 2.2.06, 22 June 2011

               Distributed Multipoles from Gaussian wavefunctions

Starting at 15:59:37 on 27 Apr 2020

Using SCF density matrix from file ./SSI/SSI-161TYR-204ALA-1-dimer.test.20854.fchk

                         Distributed Multipole Analysis

Standard DMA

Positions and radii in angstrom
Multipole moments in atomic units, ea_0^k for rank k

C          x = -1.836890  y = -0.221563  z = -1.189192 angstrom
           Maximum rank =  0   Radius =  0.650 angstrom
                   Q00  =  -0.041027

C          x = -2.837890  y = -1.340563  z = -1.397192 angstrom
           Maximum rank =  0   Radius =  0.650 angstrom
                   Q00  =  -0.226646

C          x = -0.723890  y = -0.542563  z = -0.201192 angstrom
           Maximum rank =  0   Radius =  0.650 angstrom
                   Q00  =  -0.150733

C          x = -1.012890  y = -0.990563  z =  1.098808 angstrom
           Maximum rank =  0   Radius =  0.650 angstrom
                   Q00  =  -0.060673

C          x =  0.624110  y = -0.378563  z = -0.552192 angstrom
           Maximum rank =  0   Radius =  0.650 angstrom
                   Q00  =   0.008465

C          x =  0.003110  y = -1.295563  z =  2.002808 angstrom
           Maximum rank =  0   Radius =  0.650 angstrom
                   Q00  =  -0.190983

C          x =  1.634110  y = -0.669563  z =  0.342808 angstrom
           Maximum rank =  0   Radius =  0.650 angstrom
                   Q00  =  -0.057733

C          x =  1.332110  y = -1.123563  z =  1.624808 angstrom
           Maximum rank =  0   Radius =  0.650 angstrom
                   Q00  =   0.322155

O          x =  2.345110  y = -1.393563  z =  2.483808 angstrom
           Maximum rank =  0   Radius =  0.650 angstrom
                   Q00  =  -0.670066

H          x = -1.396890  y =  0.045437  z = -2.151192 angstrom
           Maximum rank =  0   Radius =  0.325 angstrom
                   Q00  =   0.062439

H          x = -2.360890  y =  0.659437  z = -0.813192 angstrom
           Maximum rank =  0   Radius =  0.325 angstrom
                   Q00  =   0.067174

H          x = -3.253890  y = -1.614563  z = -0.427192 angstrom
           Maximum rank =  0   Radius =  0.325 angstrom
                   Q00  =   0.075909

H          x = -2.041890  y = -1.088563  z =  1.414808 angstrom
           Maximum rank =  0   Radius =  0.325 angstrom
                   Q00  =   0.069041

H          x =  0.883110  y = -0.035563  z = -1.545192 angstrom
           Maximum rank =  0   Radius =  0.325 angstrom
                   Q00  =   0.064973

H          x = -0.233890  y = -1.637563  z =  2.999808 angstrom
           Maximum rank =  0   Radius =  0.325 angstrom
                   Q00  =   0.071714

H          x =  2.668110  y = -0.547563  z =  0.052808 angstrom
           Maximum rank =  0   Radius =  0.325 angstrom
                   Q00  =   0.077418

H          x =  2.038110  y = -1.525563  z =  3.399808 angstrom
           Maximum rank =  0   Radius =  0.325 angstrom
                   Q00  =   0.410457

H          x = -2.352570  y = -2.219553  z = -1.846454 angstrom
           Maximum rank =  0   Radius =  0.325 angstrom
                   Q00  =   0.083804

H          x = -3.675820  y = -0.971873  z = -2.007060 angstrom
           Maximum rank =  0   Radius =  0.325 angstrom
                   Q00  =   0.083137

C          x =  0.049110  y =  2.936437  z = -1.803192 angstrom
           Maximum rank =  0   Radius =  0.650 angstrom
                   Q00  =  -0.230525

C          x =  0.356110  y =  4.391437  z = -2.156192 angstrom
           Maximum rank =  0   Radius =  0.650 angstrom
                   Q00  =  -0.241148

H          x = -0.378890  y =  2.856437  z = -0.804192 angstrom
           Maximum rank =  0   Radius =  0.325 angstrom
                   Q00  =   0.085572

H          x = -0.658890  y =  2.528437  z = -2.525192 angstrom
           Maximum rank =  0   Radius =  0.325 angstrom
                   Q00  =   0.073967

H          x =  0.969110  y =  2.352437  z = -1.845192 angstrom
           Maximum rank =  0   Radius =  0.325 angstrom
                   Q00  =   0.077329

H          x =  0.759110  y =  4.417437  z = -3.171192 angstrom
           Maximum rank =  0   Radius =  0.325 angstrom
                   Q00  =   0.076386

H          x =  1.109780  y =  4.788387  z = -1.460200 angstrom
           Maximum rank =  0   Radius =  0.325 angstrom
                   Q00  =   0.080609

H          x = -0.562370  y =  4.996507  z = -2.139505 angstrom
           Maximum rank =  0   Radius =  0.325 angstrom
                   Q00  =   0.078987

Total multipoles referred to origin at
           x =   0.000000,  y =    0.000000,  z =    0.000000 angstrom
                   Q00  =  -0.000000

Finished at 15:59:37 on 27 Apr 2020

  DMA results are available in the Python driver through the
	  variable('DMA DISTRIBUTED MULTIPOLES')
  and
	  variable('DMA TOTAL MULTIPOLES')
  commands.

    Psi4 stopped on: Monday, 27 April 2020 03:59PM
    Psi4 wall time for execution: 0:03:09.23

*** Psi4 exiting successfully. Buy a developer a beer!
