                               Psi4 1.3.2 release

  ==> Input File <==

--------------------------------------------------------------------------
import numpy as np
set {scf_type pk
basis cc-pvdz
d_convergence 10
gdma_switch   0
gdma_limit    0
gdma_origin   [ 0.0,  0.0,  0.0 ]
}
molecule test {
    units Angstrom
    0 1
    --
    0 1
    C               -3.411875438637693     3.222492820198910     3.069043433291124
    C               -0.262875438637693     1.241492820198910     0.890043433291124
    C               -1.359875438637693     1.756492820198911     0.204043433291124
    C               -0.169875438637693     1.379492820198910     2.271043433291124
    C               -2.374875438637694     2.408492820198910     0.909043433291124
    C               -1.177875438637694     2.033492820198910     2.973043433291124
    C               -2.291875438637693     2.552492820198911     2.298043433291124
    H                0.505124561362307     0.727492820198910     0.344043433291124
    H               -1.410875438637693     1.655492820198910    -0.866956566708876
    H                0.684124561362307     0.970492820198910     2.788043433291123
    H               -3.231875438637693     2.793492820198910     0.376043433291124
    H               -1.089875438637694     2.136492820198911     4.046043433291124
    H               -3.972875438637693     3.862492820198910     2.387043433291124
    H               -2.980875438637693     3.865492820198911     3.838043433291124
    H               -4.105385438637693     2.503112820198910     3.528983433291124
    C                2.555124561362307    -0.763507179801090    -0.270956566708876
    C                4.009124561362307    -1.206507179801090    -0.447956566708876
    C                1.589124561362307    -1.473507179801089    -1.174956566708876
    C                1.159124561362306    -2.774507179801089    -0.888956566708876
    C                1.115124561362306    -0.838507179801090    -2.323956566708876
    C                0.260124561362307    -3.431507179801089    -1.747956566708876
    C                0.222124561362307    -1.494507179801090    -3.178956566708876
    C               -0.202875438637693    -2.787507179801089    -2.882956566708876
    H                2.254124561362306    -0.940507179801090     0.762043433291124
    H                2.500124561362306     0.309492820198910    -0.453956566708876
    H                4.075124561362307    -2.278507179801089    -0.262956566708876
    H                1.513124561362306    -3.277507179801090     0.000043433291124
    H                1.440124561362307     0.164492820198910    -2.564956566708876
    H               -0.078875438637693    -4.431507179801090    -1.515956566708876
    H               -0.129875438637693    -0.999507179801089    -4.071956566708876
    H               -0.895875438637693    -3.292507179801090    -3.539956566708876
    H                4.635634561362307    -0.666797179801090     0.277443433291124
    H                4.362584561362307    -1.010777179801090    -1.471066566708876

}
e, wfn = energy('scf', return_wfn=True)
gdma(wfn)
dmavals = variable('DMA DISTRIBUTED MULTIPOLES')
charges = np.array(dmavals)
print(charges)
np.save('SSI-038PHE-049PHE-1-dimer.npy', np.array(charges))--------------------------------------------------------------------------

*** tstart() called on ds3
*** at Mon Apr 27 12:31:47 2020

   => Loading Basis Set <=

    Name: CC-PVDZ
    Role: ORBITAL
    Keyword: BASIS
    atoms 1-7, 16-23  entry C          line   138 file /theoryfs2/ds/metcalf/miniconda2/envs/tf2gpu/share/psi4/basis/cc-pvdz.gbs
    atoms 8-15, 24-33 entry H          line    22 file /theoryfs2/ds/metcalf/miniconda2/envs/tf2gpu/share/psi4/basis/cc-pvdz.gbs

         ---------------------------------------------------------
                                   SCF
               by Justin Turney, Rob Parrish, Andy Simmonett
                          and Daniel G. A. Smith
                              RHF Reference
                        1 Threads,    500 MiB Core
         ---------------------------------------------------------

  ==> Geometry <==

    Molecular point group: c1
    Full point group: C1

    Geometry (in Angstrom), charge = 0, multiplicity = 1:

       Center              X                  Y                   Z               Mass
    ------------   -----------------  -----------------  -----------------  -----------------
         C           -3.411875438638     3.222492820199     3.069043433291    12.000000000000
         C           -0.262875438638     1.241492820199     0.890043433291    12.000000000000
         C           -1.359875438638     1.756492820199     0.204043433291    12.000000000000
         C           -0.169875438638     1.379492820199     2.271043433291    12.000000000000
         C           -2.374875438638     2.408492820199     0.909043433291    12.000000000000
         C           -1.177875438638     2.033492820199     2.973043433291    12.000000000000
         C           -2.291875438638     2.552492820199     2.298043433291    12.000000000000
         H            0.505124561362     0.727492820199     0.344043433291     1.007825032230
         H           -1.410875438638     1.655492820199    -0.866956566709     1.007825032230
         H            0.684124561362     0.970492820199     2.788043433291     1.007825032230
         H           -3.231875438638     2.793492820199     0.376043433291     1.007825032230
         H           -1.089875438638     2.136492820199     4.046043433291     1.007825032230
         H           -3.972875438638     3.862492820199     2.387043433291     1.007825032230
         H           -2.980875438638     3.865492820199     3.838043433291     1.007825032230
         H           -4.105385438638     2.503112820199     3.528983433291     1.007825032230
         C            2.555124561362    -0.763507179801    -0.270956566709    12.000000000000
         C            4.009124561362    -1.206507179801    -0.447956566709    12.000000000000
         C            1.589124561362    -1.473507179801    -1.174956566709    12.000000000000
         C            1.159124561362    -2.774507179801    -0.888956566709    12.000000000000
         C            1.115124561362    -0.838507179801    -2.323956566709    12.000000000000
         C            0.260124561362    -3.431507179801    -1.747956566709    12.000000000000
         C            0.222124561362    -1.494507179801    -3.178956566709    12.000000000000
         C           -0.202875438638    -2.787507179801    -2.882956566709    12.000000000000
         H            2.254124561362    -0.940507179801     0.762043433291     1.007825032230
         H            2.500124561362     0.309492820199    -0.453956566709     1.007825032230
         H            4.075124561362    -2.278507179801    -0.262956566709     1.007825032230
         H            1.513124561362    -3.277507179801     0.000043433291     1.007825032230
         H            1.440124561362     0.164492820199    -2.564956566709     1.007825032230
         H           -0.078875438638    -4.431507179801    -1.515956566709     1.007825032230
         H           -0.129875438638    -0.999507179801    -4.071956566709     1.007825032230
         H           -0.895875438638    -3.292507179801    -3.539956566709     1.007825032230
         H            4.635634561362    -0.666797179801     0.277443433291     1.007825032230
         H            4.362584561362    -1.010777179801    -1.471066566709     1.007825032230

  Running in c1 symmetry.

  Rotational constants: A =      0.03266  B =      0.00798  C =      0.00706 [cm^-1]
  Rotational constants: A =    979.04729  B =    239.14624  C =    211.78474 [MHz]
  Nuclear repulsion =  861.272273239594369

  Charge       = 0
  Multiplicity = 1
  Electrons    = 108
  Nalpha       = 54
  Nbeta        = 54

  ==> Algorithm <==

  SCF Algorithm Type is PK.
  DIIS enabled.
  MOM disabled.
  Fractional occupation disabled.
  Guess Type is SAD.
  Energy threshold   = 1.00e-06
  Density threshold  = 1.00e-10
  Integral threshold = 0.00e+00

  ==> Primary Basis <==

  Basis Set: CC-PVDZ
    Blend: CC-PVDZ
    Number of shells: 144
    Number of basis function: 300
    Number of Cartesian functions: 315
    Spherical Harmonics?: true
    Max angular momentum: 2

  ==> Pre-Iterations <==

   -------------------------------------------------------
    Irrep   Nso     Nmo     Nalpha   Nbeta   Ndocc  Nsocc
   -------------------------------------------------------
     A        300     300       0       0       0       0
   -------------------------------------------------------
    Total     300     300      54      54      54       0
   -------------------------------------------------------

  ==> Integral Setup <==

  Using integral reordering PK algorithm.
  Sizing the integral batches needed.
  Building batch lookup table.
   Calculation information:
      Number of atoms:                  33
      Number of AO shells:             144
      Number of primitives:            420
      Number of atomic orbitals:       315
      Number of basis functions:       300

      Integral cutoff                 1.00e-12
      Number of threads:                 1

	Batch   1 pq = [       0,    9405] index = [             0,44231715] size =     44231715
	Batch   2 pq = [    9405,   13301] index = [      44231715,88464951] size =     44233236
	Batch   3 pq = [   13301,   16290] index = [      88464951,132690195] size =     44225244
	Batch   4 pq = [   16290,   18810] index = [     132690195,176917455] size =     44227260
	Batch   5 pq = [   18810,   21030] index = [     176917455,221140965] size =     44223510
	Batch   6 pq = [   21030,   23037] index = [     221140965,265363203] size =     44222238
	Batch   7 pq = [   23037,   24883] index = [     265363203,309594286] size =     44231083
	Batch   8 pq = [   24883,   26601] index = [     309594286,353819901] size =     44225615
	Batch   9 pq = [   26601,   28214] index = [     353819901,398029005] size =     44209104
	Batch  10 pq = [   28214,   29740] index = [     398029005,442248670] size =     44219665
	Batch  11 pq = [   29740,   31191] index = [     442248670,486454836] size =     44206166
	Batch  12 pq = [   31191,   32578] index = [     486454836,530679331] size =     44224495
	Batch  13 pq = [   32578,   33908] index = [     530679331,574893186] size =     44213855
	Batch  14 pq = [   33908,   35188] index = [     574893186,619115266] size =     44222080
	Batch  15 pq = [   35188,   36423] index = [     619115266,663335676] size =     44220410
	Batch  16 pq = [   36423,   37617] index = [     663335676,707538153] size =     44202477
	Batch  17 pq = [   37617,   38775] index = [     707538153,751769700] size =     44231547
	Batch  18 pq = [   38775,   39899] index = [     751769700,795985050] size =     44215350
	Batch  19 pq = [   39899,   40992] index = [     795985050,840192528] size =     44207478
	Batch  20 pq = [   40992,   42057] index = [     840192528,884416653] size =     44224125
	Batch  21 pq = [   42057,   43095] index = [     884416653,928611060] size =     44194407
	Batch  22 pq = [   43095,   44109] index = [     928611060,972823995] size =     44212935
	Batch  23 pq = [   44109,   45150] index = [     972823995,1019283825] size =     46459830
  Task number: 93
  Buffer size: 11059200
  Buffer per thread: 2
  We computed 47684935 shell quartets total.
  Whereas there are 54502020 unique shell quartets.

  ==> DiskJK: Disk-Based J/K Matrices <==

    J tasked:                  Yes
    K tasked:                  Yes
    wK tasked:                  No
    Memory [MiB]:              375
    Schwarz Cutoff:          1E-12

    OpenMP threads:              1

  Minimum eigenvalue in the overlap matrix is 3.0068646348E-04.
  Using Symmetric Orthogonalization.

  SCF Guess: Superposition of Atomic Densities via on-the-fly atomic UHF.

  ==> Iterations <==

                        Total Energy        Delta E     RMS |[F,P]|

   @RHF iter SAD:  -577.33366388394029   -5.77334e+02   0.00000e+00
   @RHF iter   1:  -578.23958287984840   -9.05919e-01   2.20392e-03 DIIS
   @RHF iter   2:  -578.51205191955239   -2.72469e-01   8.96224e-04 DIIS
   @RHF iter   3:  -578.55190674980668   -3.98548e-02   2.06784e-04 DIIS
   @RHF iter   4:  -578.55540409983155   -3.49735e-03   4.35421e-05 DIIS
   @RHF iter   5:  -578.55551698376348   -1.12884e-04   1.48778e-05 DIIS
   @RHF iter   6:  -578.55552959733313   -1.26136e-05   3.89955e-06 DIIS
   @RHF iter   7:  -578.55553068042809   -1.08309e-06   1.09903e-06 DIIS
   @RHF iter   8:  -578.55553078710841   -1.06680e-07   3.50571e-07 DIIS
   @RHF iter   9:  -578.55553080670074   -1.95923e-08   1.67601e-07 DIIS
   @RHF iter  10:  -578.55553081199696   -5.29622e-09   8.87795e-08 DIIS
   @RHF iter  11:  -578.55553081395635   -1.95939e-09   3.56204e-08 DIIS
   @RHF iter  12:  -578.55553081421272   -2.56364e-10   1.38592e-08 DIIS
   @RHF iter  13:  -578.55553081424864   -3.59250e-11   4.58183e-09 DIIS
   @RHF iter  14:  -578.55553081424830    3.41061e-13   1.33469e-09 DIIS
   @RHF iter  15:  -578.55553081424762    6.82121e-13   4.60304e-10 DIIS
   @RHF iter  16:  -578.55553081424603    1.59162e-12   1.91963e-10 DIIS
   @RHF iter  17:  -578.55553081424773   -1.70530e-12   9.71421e-11 DIIS
  Energy and wave function converged.

  ==> Post-Iterations <==

    Orbital Energies [Eh]
    ---------------------

    Doubly Occupied:

       1A    -11.240075     2A    -11.239263     3A    -11.237653
       4A    -11.237406     5A    -11.234348     6A    -11.233447
       7A    -11.231828     8A    -11.231306     9A    -11.231259
      10A    -11.230635    11A    -11.228204    12A    -11.228039
      13A    -11.227866    14A    -11.225363    15A    -11.223946
      16A     -1.153277    17A     -1.146168    18A     -1.065868
      19A     -1.038180    20A     -1.010084    21A     -1.007093
      22A     -0.983218    23A     -0.926991    24A     -0.863816
      25A     -0.827021    26A     -0.820406    27A     -0.791494
      28A     -0.785240    29A     -0.691831    30A     -0.687030
      31A     -0.641499    32A     -0.636642    33A     -0.627766
      34A     -0.625290    35A     -0.593867    36A     -0.587806
      37A     -0.579349    38A     -0.576982    39A     -0.573740
      40A     -0.559703    41A     -0.540601    42A     -0.531913
      43A     -0.519761    44A     -0.501907    45A     -0.483002
      46A     -0.482555    47A     -0.480748    48A     -0.479924
      49A     -0.473561    50A     -0.469272    51A     -0.331194
      52A     -0.328189    53A     -0.323750    54A     -0.316465

    Virtual:

      55A      0.131300    56A      0.136379    57A      0.139370
      58A      0.145462    59A      0.176630    60A      0.190834
      61A      0.194781    62A      0.203524    63A      0.208751
      64A      0.225385    65A      0.238125    66A      0.240949
      67A      0.241995    68A      0.258381    69A      0.263319
      70A      0.267516    71A      0.278749    72A      0.291576
      73A      0.294874    74A      0.300130    75A      0.310957
      76A      0.325256    77A      0.352398    78A      0.369432
      79A      0.380371    80A      0.388375    81A      0.420826
      82A      0.449546    83A      0.451516    84A      0.462996
      85A      0.476571    86A      0.481775    87A      0.487585
      88A      0.496093    89A      0.504014    90A      0.561211
      91A      0.572125    92A      0.596134    93A      0.603977
      94A      0.621091    95A      0.628385    96A      0.639389
      97A      0.673891    98A      0.678979    99A      0.683444
     100A      0.691437   101A      0.700444   102A      0.705496
     103A      0.716355   104A      0.725298   105A      0.728047
     106A      0.737016   107A      0.738773   108A      0.739801
     109A      0.745367   110A      0.746596   111A      0.748846
     112A      0.753770   113A      0.755797   114A      0.768044
     115A      0.781041   116A      0.782467   117A      0.794266
     118A      0.806240   119A      0.834899   120A      0.843392
     121A      0.844620   122A      0.850125   123A      0.863249
     124A      0.870031   125A      0.877505   126A      0.880945
     127A      0.885453   128A      0.887736   129A      0.895494
     130A      0.899110   131A      0.906807   132A      0.908568
     133A      0.915547   134A      0.925516   135A      0.932423
     136A      0.935366   137A      0.939814   138A      0.945850
     139A      0.957506   140A      0.967378   141A      0.972910
     142A      0.990974   143A      0.996574   144A      1.017663
     145A      1.032869   146A      1.055699   147A      1.062416
     148A      1.102613   149A      1.119509   150A      1.128800
     151A      1.142367   152A      1.147411   153A      1.157613
     154A      1.159824   155A      1.169310   156A      1.174021
     157A      1.192099   158A      1.217538   159A      1.225913
     160A      1.242216   161A      1.244849   162A      1.248072
     163A      1.249911   164A      1.256440   165A      1.262916
     166A      1.286646   167A      1.296888   168A      1.297104
     169A      1.304958   170A      1.315036   171A      1.321032
     172A      1.322697   173A      1.326361   174A      1.375865
     175A      1.397119   176A      1.427116   177A      1.434470
     178A      1.475717   179A      1.509057   180A      1.510811
     181A      1.530286   182A      1.542524   183A      1.567716
     184A      1.601340   185A      1.616557   186A      1.621659
     187A      1.679003   188A      1.679765   189A      1.686287
     190A      1.699404   191A      1.730030   192A      1.736020
     193A      1.744508   194A      1.747260   195A      1.757065
     196A      1.767506   197A      1.775133   198A      1.790739
     199A      1.812421   200A      1.843766   201A      1.848204
     202A      1.859161   203A      1.871261   204A      1.876039
     205A      1.888743   206A      1.894828   207A      1.896313
     208A      1.898142   209A      1.905326   210A      1.915013
     211A      1.919470   212A      1.926008   213A      1.930099
     214A      1.934582   215A      1.937000   216A      1.943272
     217A      1.950529   218A      1.955460   219A      1.964365
     220A      1.965449   221A      1.980874   222A      1.988176
     223A      1.988443   224A      1.998688   225A      2.005953
     226A      2.011764   227A      2.027218   228A      2.051471
     229A      2.053729   230A      2.057734   231A      2.072445
     232A      2.073259   233A      2.100211   234A      2.114790
     235A      2.120916   236A      2.140444   237A      2.155209
     238A      2.158022   239A      2.162792   240A      2.163765
     241A      2.170421   242A      2.181136   243A      2.185812
     244A      2.194719   245A      2.206199   246A      2.237627
     247A      2.248200   248A      2.259468   249A      2.269955
     250A      2.280155   251A      2.292205   252A      2.294970
     253A      2.309368   254A      2.317786   255A      2.323042
     256A      2.332115   257A      2.379059   258A      2.432308
     259A      2.449702   260A      2.464405   261A      2.475668
     262A      2.481985   263A      2.489828   264A      2.504807
     265A      2.517845   266A      2.537881   267A      2.539811
     268A      2.583012   269A      2.625024   270A      2.643290
     271A      2.739935   272A      2.746779   273A      2.759234
     274A      2.760871   275A      2.769448   276A      2.773547
     277A      2.778120   278A      2.796222   279A      2.812487
     280A      2.835066   281A      2.840205   282A      2.865258
     283A      2.870821   284A      2.883443   285A      2.912955
     286A      2.955994   287A      2.981762   288A      2.985525
     289A      3.014341   290A      3.026251   291A      3.033643
     292A      3.054626   293A      3.155054   294A      3.182847
     295A      3.195578   296A      3.221483   297A      3.298368
     298A      3.303741   299A      3.959521   300A      3.968343

    Final Occupation by Irrep:
              A
    DOCC [    54 ]

  @RHF Final Energy:  -578.55553081424773

   => Energetics <=

    Nuclear Repulsion Energy =            861.2722732395943694
    One-Electron Energy =               -2490.5679292321024150
    Two-Electron Energy =                1050.7401251782603140
    Total Energy =                       -578.5555308142477315

Computation Completed

Properties will be evaluated at   0.000000,   0.000000,   0.000000 [a0]

Properties computed using the SCF density matrix

  Nuclear Dipole Moment: [e a0]
     X:     3.8190      Y:     1.9602      Z:     3.3749

  Electronic Dipole Moment: [e a0]
     X:    -3.8008      Y:    -1.9666      Z:    -3.3120

  Dipole Moment: [e a0]
     X:     0.0182      Y:    -0.0064      Z:     0.0629     Total:     0.0658

  Dipole Moment: [D]
     X:     0.0462      Y:    -0.0163      Z:     0.1598     Total:     0.1672

*** tstop() called on ds3 at Mon Apr 27 12:46:23 2020
Module time:
	user time   =     426.89 seconds =       7.11 minutes
	system time =     171.06 seconds =       2.85 minutes
	total time  =        876 seconds =      14.60 minutes
Total time:
	user time   =     426.89 seconds =       7.11 minutes
	system time =     171.06 seconds =       2.85 minutes
	total time  =        876 seconds =      14.60 minutes
                                     G D M A

                                 by Anthony Stone

                           version 2.2.06, 22 June 2011

               Distributed Multipoles from Gaussian wavefunctions

Starting at 12:46:23 on 27 Apr 2020

Using SCF density matrix from file ./SSI/SSI-038PHE-049PHE-1-dimer.test.3439.fchk

                         Distributed Multipole Analysis

Standard DMA

Positions and radii in angstrom
Multipole moments in atomic units, ea_0^k for rank k

C          x = -3.411875  y =  3.222493  z =  3.069043 angstrom
           Maximum rank =  0   Radius =  0.650 angstrom
                   Q00  =  -0.198807

C          x = -0.262875  y =  1.241493  z =  0.890043 angstrom
           Maximum rank =  0   Radius =  0.650 angstrom
                   Q00  =   0.001270

C          x = -1.359875  y =  1.756493  z =  0.204043 angstrom
           Maximum rank =  0   Radius =  0.650 angstrom
                   Q00  =  -0.064189

C          x = -0.169875  y =  1.379493  z =  2.271043 angstrom
           Maximum rank =  0   Radius =  0.650 angstrom
                   Q00  =  -0.079315

C          x = -2.374875  y =  2.408493  z =  0.909043 angstrom
           Maximum rank =  0   Radius =  0.650 angstrom
                   Q00  =  -0.089436

C          x = -1.177875  y =  2.033493  z =  2.973043 angstrom
           Maximum rank =  0   Radius =  0.650 angstrom
                   Q00  =  -0.052034

C          x = -2.291875  y =  2.552493  z =  2.298043 angstrom
           Maximum rank =  0   Radius =  0.650 angstrom
                   Q00  =  -0.106087

H          x =  0.505125  y =  0.727493  z =  0.344043 angstrom
           Maximum rank =  0   Radius =  0.325 angstrom
                   Q00  =   0.050422

H          x = -1.410875  y =  1.655493  z = -0.866957 angstrom
           Maximum rank =  0   Radius =  0.325 angstrom
                   Q00  =   0.061363

H          x =  0.684125  y =  0.970493  z =  2.788043 angstrom
           Maximum rank =  0   Radius =  0.325 angstrom
                   Q00  =   0.056902

H          x = -3.231875  y =  2.793493  z =  0.376043 angstrom
           Maximum rank =  0   Radius =  0.325 angstrom
                   Q00  =   0.056896

H          x = -1.089875  y =  2.136493  z =  4.046043 angstrom
           Maximum rank =  0   Radius =  0.325 angstrom
                   Q00  =   0.054780

H          x = -3.972875  y =  3.862493  z =  2.387043 angstrom
           Maximum rank =  0   Radius =  0.325 angstrom
                   Q00  =   0.096441

H          x = -2.980875  y =  3.865493  z =  3.838043 angstrom
           Maximum rank =  0   Radius =  0.325 angstrom
                   Q00  =   0.098574

H          x = -4.105385  y =  2.503113  z =  3.528983 angstrom
           Maximum rank =  0   Radius =  0.325 angstrom
                   Q00  =   0.104948

C          x =  2.555125  y = -0.763507  z = -0.270957 angstrom
           Maximum rank =  0   Radius =  0.650 angstrom
                   Q00  =  -0.046809

C          x =  4.009125  y = -1.206507  z = -0.447957 angstrom
           Maximum rank =  0   Radius =  0.650 angstrom
                   Q00  =  -0.223962

C          x =  1.589125  y = -1.473507  z = -1.174957 angstrom
           Maximum rank =  0   Radius =  0.650 angstrom
                   Q00  =  -0.102822

C          x =  1.159125  y = -2.774507  z = -0.888957 angstrom
           Maximum rank =  0   Radius =  0.650 angstrom
                   Q00  =  -0.046461

C          x =  1.115125  y = -0.838507  z = -2.323957 angstrom
           Maximum rank =  0   Radius =  0.650 angstrom
                   Q00  =  -0.087151

C          x =  0.260125  y = -3.431507  z = -1.747957 angstrom
           Maximum rank =  0   Radius =  0.650 angstrom
                   Q00  =  -0.066914

C          x =  0.222125  y = -1.494507  z = -3.178957 angstrom
           Maximum rank =  0   Radius =  0.650 angstrom
                   Q00  =  -0.017492

C          x = -0.202875  y = -2.787507  z = -2.882957 angstrom
           Maximum rank =  0   Radius =  0.650 angstrom
                   Q00  =  -0.092591

H          x =  2.254125  y = -0.940507  z =  0.762043 angstrom
           Maximum rank =  0   Radius =  0.325 angstrom
                   Q00  =   0.066683

H          x =  2.500125  y =  0.309493  z = -0.453957 angstrom
           Maximum rank =  0   Radius =  0.325 angstrom
                   Q00  =   0.058981

H          x =  4.075125  y = -2.278507  z = -0.262957 angstrom
           Maximum rank =  0   Radius =  0.325 angstrom
                   Q00  =   0.084359

H          x =  1.513125  y = -3.277507  z =  0.000043 angstrom
           Maximum rank =  0   Radius =  0.325 angstrom
                   Q00  =   0.059299

H          x =  1.440125  y =  0.164493  z = -2.564957 angstrom
           Maximum rank =  0   Radius =  0.325 angstrom
                   Q00  =   0.058144

H          x = -0.078875  y = -4.431507  z = -1.515957 angstrom
           Maximum rank =  0   Radius =  0.325 angstrom
                   Q00  =   0.066958

H          x = -0.129875  y = -0.999507  z = -4.071957 angstrom
           Maximum rank =  0   Radius =  0.325 angstrom
                   Q00  =   0.065885

H          x = -0.895875  y = -3.292507  z = -3.539957 angstrom
           Maximum rank =  0   Radius =  0.325 angstrom
                   Q00  =   0.061329

H          x =  4.635635  y = -0.666797  z =  0.277443 angstrom
           Maximum rank =  0   Radius =  0.325 angstrom
                   Q00  =   0.083692

H          x =  4.362585  y = -1.010777  z = -1.471067 angstrom
           Maximum rank =  0   Radius =  0.325 angstrom
                   Q00  =   0.087144

Total multipoles referred to origin at
           x =   0.000000,  y =    0.000000,  z =    0.000000 angstrom
                   Q00  =  -0.000000

Finished at 12:46:23 on 27 Apr 2020

  DMA results are available in the Python driver through the
	  variable('DMA DISTRIBUTED MULTIPOLES')
  and
	  variable('DMA TOTAL MULTIPOLES')
  commands.

    Psi4 stopped on: Monday, 27 April 2020 12:46PM
    Psi4 wall time for execution: 0:14:35.62

*** Psi4 exiting successfully. Buy a developer a beer!
