                               Psi4 1.3.2 release

  ==> Input File <==

--------------------------------------------------------------------------
import numpy as np
set {scf_type pk
basis cc-pvdz
d_convergence 10
gdma_switch   0
gdma_limit    0
gdma_origin   [ 0.0,  0.0,  0.0 ]
}
molecule test {
    units Angstrom
    0 1
    --
    0 1
    C                4.954705937748008    -0.821802210323097    -1.778860501907925
    C                1.597705937748008    -0.047802210323097    -0.210860501907925
    C                2.947705937748008    -0.288802210323097    -0.358860501907925
    C                0.749705937748008    -0.085802210323097    -1.310860501907925
    C                3.471705937748008    -0.591802210323097    -1.601860501907925
    C                1.249705937748008    -0.401802210323097    -2.559860501907925
    C                2.609705937748008    -0.648802210323097    -2.688860501907925
    O               -0.574294062251992     0.157197789676903    -1.128860501907925
    H                1.205705937748007     0.173197789676903     0.769139498092075
    H                3.596705937748008    -0.245802210323097     0.502139498092075
    H               -0.801294062251992     0.276197789676903    -0.202860501907925
    H                0.585705937748008    -0.455802210323097    -3.408860501907925
    H                5.106705937748008    -1.721802210323097    -2.374860501907925
    H                5.404705937748007    -0.996802210323097    -0.801860501907925
    H                2.992705937748008    -0.923802210323097    -3.661860501907925
    H                5.465575937748008     0.027967789676903    -2.255190501907925
    C               -1.170294062251992     2.403197789676903     1.196139498092075
    C               -1.397294062251992     0.139197789676903     2.236139498092075
    C               -1.972294062251992     1.174197789676903     1.513139498092075
    C               -2.095294062251992    -1.025802210323097     2.489139498092075
    C               -3.286294062251992     1.049197789676903     1.066139498092075
    C               -3.395294062251992    -1.135802210323097     2.073139498092075
    C               -3.996294062251992    -0.115802210323097     1.335139498092075
    H               -0.382294062251992     0.232197789676903     2.599139498092075
    H               -1.632294062251992    -1.830802210323097     3.043139498092075
    H               -1.381294062251992     2.686197789676903     0.163139498092075
    H               -0.103294062251992     2.183197789676903     1.255139498092075
    H               -3.750294062251992     1.842197789676903     0.496139498092075
    H               -3.954294062251992    -2.034802210323097     2.294139498092075
    H               -5.017294062251993    -0.223802210323097     0.998139498092075
    H               -1.410634062251992     3.259087789676903     1.843979498092075

}
e, wfn = energy('scf', return_wfn=True)
gdma(wfn)
dmavals = variable('DMA DISTRIBUTED MULTIPOLES')
charges = np.array(dmavals)
print(charges)
np.save('SSI-179TYR-250PHE-1-dimer.npy', np.array(charges))--------------------------------------------------------------------------

*** tstart() called on ds3
*** at Tue Apr 28 20:40:29 2020

   => Loading Basis Set <=

    Name: CC-PVDZ
    Role: ORBITAL
    Keyword: BASIS
    atoms 1-7, 17-23  entry C          line   138 file /theoryfs2/ds/metcalf/miniconda2/envs/tf2gpu/share/psi4/basis/cc-pvdz.gbs
    atoms 8           entry O          line   198 file /theoryfs2/ds/metcalf/miniconda2/envs/tf2gpu/share/psi4/basis/cc-pvdz.gbs
    atoms 9-16, 24-31 entry H          line    22 file /theoryfs2/ds/metcalf/miniconda2/envs/tf2gpu/share/psi4/basis/cc-pvdz.gbs

         ---------------------------------------------------------
                                   SCF
               by Justin Turney, Rob Parrish, Andy Simmonett
                          and Daniel G. A. Smith
                              RHF Reference
                        1 Threads,    500 MiB Core
         ---------------------------------------------------------

  ==> Geometry <==

    Molecular point group: c1
    Full point group: C1

    Geometry (in Angstrom), charge = 0, multiplicity = 1:

       Center              X                  Y                   Z               Mass
    ------------   -----------------  -----------------  -----------------  -----------------
         C            4.954705937748    -0.821802210323    -1.778860501908    12.000000000000
         C            1.597705937748    -0.047802210323    -0.210860501908    12.000000000000
         C            2.947705937748    -0.288802210323    -0.358860501908    12.000000000000
         C            0.749705937748    -0.085802210323    -1.310860501908    12.000000000000
         C            3.471705937748    -0.591802210323    -1.601860501908    12.000000000000
         C            1.249705937748    -0.401802210323    -2.559860501908    12.000000000000
         C            2.609705937748    -0.648802210323    -2.688860501908    12.000000000000
         O           -0.574294062252     0.157197789677    -1.128860501908    15.994914619570
         H            1.205705937748     0.173197789677     0.769139498092     1.007825032230
         H            3.596705937748    -0.245802210323     0.502139498092     1.007825032230
         H           -0.801294062252     0.276197789677    -0.202860501908     1.007825032230
         H            0.585705937748    -0.455802210323    -3.408860501908     1.007825032230
         H            5.106705937748    -1.721802210323    -2.374860501908     1.007825032230
         H            5.404705937748    -0.996802210323    -0.801860501908     1.007825032230
         H            2.992705937748    -0.923802210323    -3.661860501908     1.007825032230
         H            5.465575937748     0.027967789677    -2.255190501908     1.007825032230
         C           -1.170294062252     2.403197789677     1.196139498092    12.000000000000
         C           -1.397294062252     0.139197789677     2.236139498092    12.000000000000
         C           -1.972294062252     1.174197789677     1.513139498092    12.000000000000
         C           -2.095294062252    -1.025802210323     2.489139498092    12.000000000000
         C           -3.286294062252     1.049197789677     1.066139498092    12.000000000000
         C           -3.395294062252    -1.135802210323     2.073139498092    12.000000000000
         C           -3.996294062252    -0.115802210323     1.335139498092    12.000000000000
         H           -0.382294062252     0.232197789677     2.599139498092     1.007825032230
         H           -1.632294062252    -1.830802210323     3.043139498092     1.007825032230
         H           -1.381294062252     2.686197789677     0.163139498092     1.007825032230
         H           -0.103294062252     2.183197789677     1.255139498092     1.007825032230
         H           -3.750294062252     1.842197789677     0.496139498092     1.007825032230
         H           -3.954294062252    -2.034802210323     2.294139498092     1.007825032230
         H           -5.017294062252    -0.223802210323     0.998139498092     1.007825032230
         H           -1.410634062252     3.259087789677     1.843979498092     1.007825032230

  Running in c1 symmetry.

  Rotational constants: A =      0.04628  B =      0.00820  C =      0.00808 [cm^-1]
  Rotational constants: A =   1387.52213  B =    245.89093  C =    242.11291 [MHz]
  Nuclear repulsion =  895.927243868233518

  Charge       = 0
  Multiplicity = 1
  Electrons    = 108
  Nalpha       = 54
  Nbeta        = 54

  ==> Algorithm <==

  SCF Algorithm Type is PK.
  DIIS enabled.
  MOM disabled.
  Fractional occupation disabled.
  Guess Type is SAD.
  Energy threshold   = 1.00e-06
  Density threshold  = 1.00e-10
  Integral threshold = 0.00e+00

  ==> Primary Basis <==

  Basis Set: CC-PVDZ
    Blend: CC-PVDZ
    Number of shells: 138
    Number of basis function: 290
    Number of Cartesian functions: 305
    Spherical Harmonics?: true
    Max angular momentum: 2

  ==> Pre-Iterations <==

   -------------------------------------------------------
    Irrep   Nso     Nmo     Nalpha   Nbeta   Ndocc  Nsocc
   -------------------------------------------------------
     A        290     290       0       0       0       0
   -------------------------------------------------------
    Total     290     290      54      54      54       0
   -------------------------------------------------------

  ==> Integral Setup <==

  Using integral reordering PK algorithm.
  Sizing the integral batches needed.
  Building batch lookup table.
   Calculation information:
      Number of atoms:                  31
      Number of AO shells:             138
      Number of primitives:            410
      Number of atomic orbitals:       305
      Number of basis functions:       290

      Integral cutoff                 1.00e-12
      Number of threads:                 1

	Batch   1 pq = [       0,    9405] index = [             0,44231715] size =     44231715
	Batch   2 pq = [    9405,   13301] index = [      44231715,88464951] size =     44233236
	Batch   3 pq = [   13301,   16290] index = [      88464951,132690195] size =     44225244
	Batch   4 pq = [   16290,   18810] index = [     132690195,176917455] size =     44227260
	Batch   5 pq = [   18810,   21030] index = [     176917455,221140965] size =     44223510
	Batch   6 pq = [   21030,   23037] index = [     221140965,265363203] size =     44222238
	Batch   7 pq = [   23037,   24883] index = [     265363203,309594286] size =     44231083
	Batch   8 pq = [   24883,   26601] index = [     309594286,353819901] size =     44225615
	Batch   9 pq = [   26601,   28214] index = [     353819901,398029005] size =     44209104
	Batch  10 pq = [   28214,   29740] index = [     398029005,442248670] size =     44219665
	Batch  11 pq = [   29740,   31191] index = [     442248670,486454836] size =     44206166
	Batch  12 pq = [   31191,   32578] index = [     486454836,530679331] size =     44224495
	Batch  13 pq = [   32578,   33908] index = [     530679331,574893186] size =     44213855
	Batch  14 pq = [   33908,   35188] index = [     574893186,619115266] size =     44222080
	Batch  15 pq = [   35188,   36423] index = [     619115266,663335676] size =     44220410
	Batch  16 pq = [   36423,   37617] index = [     663335676,707538153] size =     44202477
	Batch  17 pq = [   37617,   38775] index = [     707538153,751769700] size =     44231547
	Batch  18 pq = [   38775,   39899] index = [     751769700,795985050] size =     44215350
	Batch  19 pq = [   39899,   40992] index = [     795985050,840192528] size =     44207478
	Batch  20 pq = [   40992,   42057] index = [     840192528,884416653] size =     44224125
	Batch  21 pq = [   42057,   42195] index = [     884416653,890230110] size =      5813457
  Task number: 81
  Buffer size: 11059200
  Buffer per thread: 2
  We computed 42149329 shell quartets total.
  Whereas there are 45998436 unique shell quartets.

  ==> DiskJK: Disk-Based J/K Matrices <==

    J tasked:                  Yes
    K tasked:                  Yes
    wK tasked:                  No
    Memory [MiB]:              375
    Schwarz Cutoff:          1E-12

    OpenMP threads:              1

  Minimum eigenvalue in the overlap matrix is 2.9837336009E-04.
  Using Symmetric Orthogonalization.

  SCF Guess: Superposition of Atomic Densities via on-the-fly atomic UHF.

  ==> Iterations <==

                        Total Energy        Delta E     RMS |[F,P]|

   @RHF iter SAD:  -613.47435426438255   -6.13474e+02   0.00000e+00
   @RHF iter   1:  -614.06460202869062   -5.90248e-01   2.36735e-03 DIIS
   @RHF iter   2:  -614.33864496221918   -2.74043e-01   9.68437e-04 DIIS
   @RHF iter   3:  -614.37890524205216   -4.02603e-02   2.31634e-04 DIIS
   @RHF iter   4:  -614.38241697509852   -3.51173e-03   8.70509e-05 DIIS
   @RHF iter   5:  -614.38278715680042   -3.70182e-04   1.72044e-05 DIIS
   @RHF iter   6:  -614.38280820000648   -2.10432e-05   5.72944e-06 DIIS
   @RHF iter   7:  -614.38281060950828   -2.40950e-06   1.65029e-06 DIIS
   @RHF iter   8:  -614.38281093772775   -3.28219e-07   6.49525e-07 DIIS
   @RHF iter   9:  -614.38281099776191   -6.00342e-08   2.98296e-07 DIIS
   @RHF iter  10:  -614.38281101090627   -1.31444e-08   1.31511e-07 DIIS
   @RHF iter  11:  -614.38281101546067   -4.55441e-09   5.10956e-08 DIIS
   @RHF iter  12:  -614.38281101604639   -5.85715e-10   2.37389e-08 DIIS
   @RHF iter  13:  -614.38281101611881   -7.24185e-11   6.60726e-09 DIIS
   @RHF iter  14:  -614.38281101612438   -5.57066e-12   2.04714e-09 DIIS
   @RHF iter  15:  -614.38281101612074    3.63798e-12   7.13032e-10 DIIS
   @RHF iter  16:  -614.38281101612495   -4.20641e-12   3.13288e-10 DIIS
   @RHF iter  17:  -614.38281101612233    2.61480e-12   1.55938e-10 DIIS
   @RHF iter  18:  -614.38281101612779   -5.45697e-12   6.61945e-11 DIIS
  Energy and wave function converged.

  ==> Post-Iterations <==

    Orbital Energies [Eh]
    ---------------------

    Doubly Occupied:

       1A    -20.567880     2A    -11.290400     3A    -11.249614
       4A    -11.244938     5A    -11.241772     6A    -11.241037
       7A    -11.240110     8A    -11.238172     9A    -11.235372
      10A    -11.231359    11A    -11.230609    12A    -11.225455
      13A    -11.224505    14A    -11.222970    15A    -11.222904
      16A     -1.389653    17A     -1.168547    18A     -1.149913
      19A     -1.057401    20A     -1.033034    21A     -1.025084
      22A     -1.015386    23A     -0.940526    24A     -0.921966
      25A     -0.840770    26A     -0.835905    27A     -0.806144
      28A     -0.798762    29A     -0.727392    30A     -0.702339
      31A     -0.664689    32A     -0.644423    33A     -0.640109
      34A     -0.635908    35A     -0.602254    36A     -0.595279
      37A     -0.588010    38A     -0.581799    39A     -0.576713
      40A     -0.570600    41A     -0.565283    42A     -0.558297
      43A     -0.542732    44A     -0.521139    45A     -0.499917
      46A     -0.496848    47A     -0.490884    48A     -0.489605
      49A     -0.478850    50A     -0.462892    51A     -0.344545
      52A     -0.336006    53A     -0.334357    54A     -0.295925

    Virtual:

      55A      0.124768    56A      0.129044    57A      0.135569
      58A      0.164342    59A      0.174462    60A      0.190517
      61A      0.200193    62A      0.206449    63A      0.221693
      64A      0.228795    65A      0.240029    66A      0.251424
      67A      0.258077    68A      0.263043    69A      0.274048
      70A      0.279563    71A      0.287019    72A      0.289664
      73A      0.291557    74A      0.339903    75A      0.368216
      76A      0.370077    77A      0.382296    78A      0.386603
      79A      0.445524    80A      0.446656    81A      0.456725
      82A      0.459863    83A      0.470433    84A      0.482864
      85A      0.493378    86A      0.507188    87A      0.523342
      88A      0.555787    89A      0.589605    90A      0.613507
      91A      0.633602    92A      0.647857    93A      0.650914
      94A      0.659574    95A      0.674460    96A      0.678294
      97A      0.686666    98A      0.691433    99A      0.701132
     100A      0.707922   101A      0.711676   102A      0.727089
     103A      0.732841   104A      0.737706   105A      0.740632
     106A      0.742429   107A      0.743713   108A      0.753273
     109A      0.765396   110A      0.769568   111A      0.781098
     112A      0.788634   113A      0.797164   114A      0.803731
     115A      0.824601   116A      0.837083   117A      0.841539
     118A      0.843017   119A      0.860024   120A      0.865959
     121A      0.871254   122A      0.875351   123A      0.886173
     124A      0.888041   125A      0.892519   126A      0.901483
     127A      0.911512   128A      0.921398   129A      0.927342
     130A      0.936397   131A      0.948366   132A      0.950660
     133A      0.957185   134A      0.963012   135A      0.978989
     136A      0.988575   137A      0.998027   138A      1.012099
     139A      1.029676   140A      1.060118   141A      1.073589
     142A      1.109799   143A      1.118791   144A      1.134924
     145A      1.138913   146A      1.148900   147A      1.154974
     148A      1.160596   149A      1.182226   150A      1.193182
     151A      1.211492   152A      1.216896   153A      1.228234
     154A      1.236416   155A      1.240733   156A      1.252170
     157A      1.255803   158A      1.269435   159A      1.283881
     160A      1.291952   161A      1.305642   162A      1.309253
     163A      1.318441   164A      1.321613   165A      1.329405
     166A      1.349419   167A      1.352141   168A      1.393525
     169A      1.401381   170A      1.419618   171A      1.451866
     172A      1.496185   173A      1.502408   174A      1.508927
     175A      1.537069   176A      1.552897   177A      1.561926
     178A      1.593876   179A      1.602151   180A      1.637875
     181A      1.664266   182A      1.680144   183A      1.685354
     184A      1.697353   185A      1.706876   186A      1.739131
     187A      1.743173   188A      1.743614   189A      1.756561
     190A      1.766509   191A      1.786854   192A      1.797803
     193A      1.808581   194A      1.816556   195A      1.832941
     196A      1.855544   197A      1.875244   198A      1.877622
     199A      1.897411   200A      1.904369   201A      1.905775
     202A      1.913056   203A      1.917183   204A      1.921487
     205A      1.930527   206A      1.934984   207A      1.939745
     208A      1.950620   209A      1.951041   210A      1.960060
     211A      1.971093   212A      1.977905   213A      1.984130
     214A      1.994757   215A      2.000500   216A      2.023269
     217A      2.034828   218A      2.046721   219A      2.059265
     220A      2.067460   221A      2.070854   222A      2.078530
     223A      2.095276   224A      2.107623   225A      2.125323
     226A      2.140625   227A      2.149287   228A      2.156970
     229A      2.161221   230A      2.171145   231A      2.179122
     232A      2.184363   233A      2.189987   234A      2.211974
     235A      2.241843   236A      2.246188   237A      2.269755
     238A      2.270956   239A      2.279072   240A      2.291162
     241A      2.298874   242A      2.312082   243A      2.323877
     244A      2.333480   245A      2.360942   246A      2.397510
     247A      2.429520   248A      2.460435   249A      2.474162
     250A      2.485353   251A      2.500422   252A      2.512715
     253A      2.535231   254A      2.545593   255A      2.556317
     256A      2.601905   257A      2.618623   258A      2.631251
     259A      2.680137   260A      2.743130   261A      2.756391
     262A      2.769918   263A      2.776797   264A      2.779372
     265A      2.797835   266A      2.805640   267A      2.810556
     268A      2.831125   269A      2.848047   270A      2.861450
     271A      2.873351   272A      2.916614   273A      2.981774
     274A      3.000103   275A      3.014014   276A      3.025139
     277A      3.037123   278A      3.118913   279A      3.135181
     280A      3.162343   281A      3.202387   282A      3.278049
     283A      3.301297   284A      3.309253   285A      3.390732
     286A      3.601104   287A      3.721070   288A      3.980175
     289A      4.010777   290A      4.270681

    Final Occupation by Irrep:
              A
    DOCC [    54 ]

  @RHF Final Energy:  -614.38281101612779

   => Energetics <=

    Nuclear Repulsion Energy =            895.9272438682335178
    One-Electron Energy =               -2610.9461464196638190
    Two-Electron Energy =                1100.6360915353025121
    Total Energy =                       -614.3828110161277891

Computation Completed

Properties will be evaluated at   0.000000,   0.000000,   0.000000 [a0]

Properties computed using the SCF density matrix

  Nuclear Dipole Moment: [e a0]
     X:     5.5516      Y:     2.1071      Z:     1.1746

  Electronic Dipole Moment: [e a0]
     X:    -5.5641      Y:    -2.0333      Z:    -0.6084

  Dipole Moment: [e a0]
     X:    -0.0125      Y:     0.0738      Z:     0.5662     Total:     0.5711

  Dipole Moment: [D]
     X:    -0.0318      Y:     0.1875      Z:     1.4391     Total:     1.4516

*** tstop() called on ds3 at Tue Apr 28 20:49:07 2020
Module time:
	user time   =     364.77 seconds =       6.08 minutes
	system time =     137.44 seconds =       2.29 minutes
	total time  =        518 seconds =       8.63 minutes
Total time:
	user time   =     364.77 seconds =       6.08 minutes
	system time =     137.44 seconds =       2.29 minutes
	total time  =        518 seconds =       8.63 minutes
                                     G D M A

                                 by Anthony Stone

                           version 2.2.06, 22 June 2011

               Distributed Multipoles from Gaussian wavefunctions

Starting at 20:49:8 on 28 Apr 2020

Using SCF density matrix from file ./SSI/SSI-179TYR-250PHE-1-dimer.test.18514.fchk

                         Distributed Multipole Analysis

Standard DMA

Positions and radii in angstrom
Multipole moments in atomic units, ea_0^k for rank k

C          x =  4.954706  y = -0.821802  z = -1.778861 angstrom
           Maximum rank =  0   Radius =  0.650 angstrom
                   Q00  =  -0.195133

C          x =  1.597706  y = -0.047802  z = -0.210861 angstrom
           Maximum rank =  0   Radius =  0.650 angstrom
                   Q00  =  -0.173091

C          x =  2.947706  y = -0.288802  z = -0.358861 angstrom
           Maximum rank =  0   Radius =  0.650 angstrom
                   Q00  =  -0.045786

C          x =  0.749706  y = -0.085802  z = -1.310861 angstrom
           Maximum rank =  0   Radius =  0.650 angstrom
                   Q00  =   0.302495

C          x =  3.471706  y = -0.591802  z = -1.601861 angstrom
           Maximum rank =  0   Radius =  0.650 angstrom
                   Q00  =  -0.150453

C          x =  1.249706  y = -0.401802  z = -2.559861 angstrom
           Maximum rank =  0   Radius =  0.650 angstrom
                   Q00  =  -0.125813

C          x =  2.609706  y = -0.648802  z = -2.688861 angstrom
           Maximum rank =  0   Radius =  0.650 angstrom
                   Q00  =   0.070904

O          x = -0.574294  y =  0.157198  z = -1.128861 angstrom
           Maximum rank =  0   Radius =  0.650 angstrom
                   Q00  =  -0.692171

H          x =  1.205706  y =  0.173198  z =  0.769139 angstrom
           Maximum rank =  0   Radius =  0.325 angstrom
                   Q00  =   0.062230

H          x =  3.596706  y = -0.245802  z =  0.502139 angstrom
           Maximum rank =  0   Radius =  0.325 angstrom
                   Q00  =   0.063552

H          x = -0.801294  y =  0.276198  z = -0.202861 angstrom
           Maximum rank =  0   Radius =  0.325 angstrom
                   Q00  =   0.455565

H          x =  0.585706  y = -0.455802  z = -3.408861 angstrom
           Maximum rank =  0   Radius =  0.325 angstrom
                   Q00  =   0.077919

H          x =  5.106706  y = -1.721802  z = -2.374861 angstrom
           Maximum rank =  0   Radius =  0.325 angstrom
                   Q00  =   0.096025

H          x =  5.404706  y = -0.996802  z = -0.801861 angstrom
           Maximum rank =  0   Radius =  0.325 angstrom
                   Q00  =   0.093464

H          x =  2.992706  y = -0.923802  z = -3.661861 angstrom
           Maximum rank =  0   Radius =  0.325 angstrom
                   Q00  =   0.057290

H          x =  5.465576  y =  0.027968  z = -2.255191 angstrom
           Maximum rank =  0   Radius =  0.325 angstrom
                   Q00  =   0.098900

C          x = -1.170294  y =  2.403198  z =  1.196139 angstrom
           Maximum rank =  0   Radius =  0.650 angstrom
                   Q00  =  -0.195468

C          x = -1.397294  y =  0.139198  z =  2.236139 angstrom
           Maximum rank =  0   Radius =  0.650 angstrom
                   Q00  =  -0.018174

C          x = -1.972294  y =  1.174198  z =  1.513139 angstrom
           Maximum rank =  0   Radius =  0.650 angstrom
                   Q00  =  -0.162679

C          x = -2.095294  y = -1.025802  z =  2.489139 angstrom
           Maximum rank =  0   Radius =  0.650 angstrom
                   Q00  =  -0.059772

C          x = -3.286294  y =  1.049198  z =  1.066139 angstrom
           Maximum rank =  0   Radius =  0.650 angstrom
                   Q00  =  -0.077256

C          x = -3.395294  y = -1.135802  z =  2.073139 angstrom
           Maximum rank =  0   Radius =  0.650 angstrom
                   Q00  =  -0.054267

C          x = -3.996294  y = -0.115802  z =  1.335139 angstrom
           Maximum rank =  0   Radius =  0.650 angstrom
                   Q00  =  -0.064641

H          x = -0.382294  y =  0.232198  z =  2.599139 angstrom
           Maximum rank =  0   Radius =  0.325 angstrom
                   Q00  =   0.058124

H          x = -1.632294  y = -1.830802  z =  3.043139 angstrom
           Maximum rank =  0   Radius =  0.325 angstrom
                   Q00  =   0.068308

H          x = -1.381294  y =  2.686198  z =  0.163139 angstrom
           Maximum rank =  0   Radius =  0.325 angstrom
                   Q00  =   0.106202

H          x = -0.103294  y =  2.183198  z =  1.255139 angstrom
           Maximum rank =  0   Radius =  0.325 angstrom
                   Q00  =   0.094726

H          x = -3.750294  y =  1.842198  z =  0.496139 angstrom
           Maximum rank =  0   Radius =  0.325 angstrom
                   Q00  =   0.064642

H          x = -3.954294  y = -2.034802  z =  2.294139 angstrom
           Maximum rank =  0   Radius =  0.325 angstrom
                   Q00  =   0.063905

H          x = -5.017294  y = -0.223802  z =  0.998140 angstrom
           Maximum rank =  0   Radius =  0.325 angstrom
                   Q00  =   0.070805

H          x = -1.410634  y =  3.259088  z =  1.843979 angstrom
           Maximum rank =  0   Radius =  0.325 angstrom
                   Q00  =   0.109649

Total multipoles referred to origin at
           x =   0.000000,  y =    0.000000,  z =    0.000000 angstrom
                   Q00  =  -0.000000

Finished at 20:49:8 on 28 Apr 2020

  DMA results are available in the Python driver through the
	  variable('DMA DISTRIBUTED MULTIPOLES')
  and
	  variable('DMA TOTAL MULTIPOLES')
  commands.

    Psi4 stopped on: Tuesday, 28 April 2020 08:49PM
    Psi4 wall time for execution: 0:08:39.11

*** Psi4 exiting successfully. Buy a developer a beer!
