                               Psi4 1.3.2 release

  ==> Input File <==

--------------------------------------------------------------------------
import numpy as np
set {scf_type pk
basis cc-pvdz
d_convergence 10
gdma_switch   0
gdma_limit    0
gdma_origin   [ 0.0,  0.0,  0.0 ]
}
molecule test {
    units Angstrom
    0 1
    --
    0 1
    C               -0.653753753326369     0.019037021857595     1.885083968709722
    C                0.142246246673631    -0.330962978142405     3.147083968709721
    H               -0.230753753326369    -0.491962978142405     1.022083968709721
    H               -1.686753753326369    -0.308962978142405     2.001083968709722
    H               -0.635753753326369     1.096037021857595     1.726083968709721
    H                0.184246246673631    -1.412962978142405     3.234083968709721
    H                1.172228246673632     0.054204521857595     3.119113968709721
    H               -0.381331753326369     0.052370821857595     4.035293968709721
    C                0.066246246673631     0.069037021857595    -1.775916031290278
    C                0.452246246673631     0.246037021857595    -3.256916031290278
    H                0.592246246673631     0.779037021857594    -1.146916031290278
    H               -1.001753753326369     0.245037021857595    -1.658916031290279
    H                0.299246246673631    -0.945962978142405    -1.448916031290278
    H                0.282246246673631     1.284037021857595    -3.536916031290279
    H                1.506981246673631    -0.007560378142405    -3.439189031290279
    H               -0.184016753326369    -0.380794878142405    -3.898983031290279

}
e, wfn = energy('scf', return_wfn=True)
gdma(wfn)
dmavals = variable('DMA DISTRIBUTED MULTIPOLES')
charges = np.array(dmavals)
print(charges)
np.save('SSI-042LEU-105LEU-1-dimer.npy', np.array(charges))--------------------------------------------------------------------------

*** tstart() called on ds3
*** at Mon Apr 27 19:09:15 2020

   => Loading Basis Set <=

    Name: CC-PVDZ
    Role: ORBITAL
    Keyword: BASIS
    atoms 1-2, 9-10  entry C          line   138 file /theoryfs2/ds/metcalf/miniconda2/envs/tf2gpu/share/psi4/basis/cc-pvdz.gbs
    atoms 3-8, 11-16 entry H          line    22 file /theoryfs2/ds/metcalf/miniconda2/envs/tf2gpu/share/psi4/basis/cc-pvdz.gbs

         ---------------------------------------------------------
                                   SCF
               by Justin Turney, Rob Parrish, Andy Simmonett
                          and Daniel G. A. Smith
                              RHF Reference
                        1 Threads,    500 MiB Core
         ---------------------------------------------------------

  ==> Geometry <==

    Molecular point group: c1
    Full point group: C1

    Geometry (in Angstrom), charge = 0, multiplicity = 1:

       Center              X                  Y                   Z               Mass
    ------------   -----------------  -----------------  -----------------  -----------------
         C           -0.653753753326     0.019037021858     1.885083968710    12.000000000000
         C            0.142246246674    -0.330962978142     3.147083968710    12.000000000000
         H           -0.230753753326    -0.491962978142     1.022083968710     1.007825032230
         H           -1.686753753326    -0.308962978142     2.001083968710     1.007825032230
         H           -0.635753753326     1.096037021858     1.726083968710     1.007825032230
         H            0.184246246674    -1.412962978142     3.234083968710     1.007825032230
         H            1.172228246674     0.054204521858     3.119113968710     1.007825032230
         H           -0.381331753326     0.052370821858     4.035293968710     1.007825032230
         C            0.066246246674     0.069037021858    -1.775916031290    12.000000000000
         C            0.452246246674     0.246037021858    -3.256916031290    12.000000000000
         H            0.592246246674     0.779037021858    -1.146916031290     1.007825032230
         H           -1.001753753326     0.245037021858    -1.658916031290     1.007825032230
         H            0.299246246674    -0.945962978142    -1.448916031290     1.007825032230
         H            0.282246246674     1.284037021858    -3.536916031290     1.007825032230
         H            1.506981246674    -0.007560378142    -3.439189031290     1.007825032230
         H           -0.184016753326    -0.380794878142    -3.898983031290     1.007825032230

  Running in c1 symmetry.

  Rotational constants: A =      0.82387  B =      0.03927  C =      0.03860 [cm^-1]
  Rotational constants: A =  24699.03674  B =   1177.40628  C =   1157.11473 [MHz]
  Nuclear repulsion =  119.423996004875193

  Charge       = 0
  Multiplicity = 1
  Electrons    = 36
  Nalpha       = 18
  Nbeta        = 18

  ==> Algorithm <==

  SCF Algorithm Type is PK.
  DIIS enabled.
  MOM disabled.
  Fractional occupation disabled.
  Guess Type is SAD.
  Energy threshold   = 1.00e-06
  Density threshold  = 1.00e-10
  Integral threshold = 0.00e+00

  ==> Primary Basis <==

  Basis Set: CC-PVDZ
    Blend: CC-PVDZ
    Number of shells: 60
    Number of basis function: 116
    Number of Cartesian functions: 120
    Spherical Harmonics?: true
    Max angular momentum: 2

  ==> Pre-Iterations <==

   -------------------------------------------------------
    Irrep   Nso     Nmo     Nalpha   Nbeta   Ndocc  Nsocc
   -------------------------------------------------------
     A        116     116       0       0       0       0
   -------------------------------------------------------
    Total     116     116      18      18      18       0
   -------------------------------------------------------

  ==> Integral Setup <==

  Using integral reordering PK algorithm.
  Sizing the integral batches needed.
  Building batch lookup table.
   Calculation information:
      Number of atoms:                  16
      Number of AO shells:              60
      Number of primitives:            148
      Number of atomic orbitals:       120
      Number of basis functions:       116

      Integral cutoff                 1.00e-12
      Number of threads:                 1

	Batch   1 pq = [       0,    6786] index = [             0,23028291] size =     23028291
  Task number: 3
  Buffer size: 11059200
  Buffer per thread: 2
  We computed 1329118 shell quartets total.
  Whereas there are 1675365 unique shell quartets.

  ==> DiskJK: Disk-Based J/K Matrices <==

    J tasked:                  Yes
    K tasked:                  Yes
    wK tasked:                  No
    Memory [MiB]:              375
    Schwarz Cutoff:          1E-12

    OpenMP threads:              1

  Minimum eigenvalue in the overlap matrix is 6.0860635600E-03.
  Using Symmetric Orthogonalization.

  SCF Guess: Superposition of Atomic Densities via on-the-fly atomic UHF.

  ==> Iterations <==

                        Total Energy        Delta E     RMS |[F,P]|

   @RHF iter SAD:  -157.32314740795741   -1.57323e+02   0.00000e+00
   @RHF iter   1:  -158.30967639355146   -9.86529e-01   4.18797e-03 DIIS
   @RHF iter   2:  -158.44195656857988   -1.32280e-01   1.77830e-03 DIIS
   @RHF iter   3:  -158.46494625065685   -2.29897e-02   3.49017e-04 DIIS
   @RHF iter   4:  -158.46677291669661   -1.82667e-03   3.92528e-05 DIIS
   @RHF iter   5:  -158.46679701985258   -2.41032e-05   7.05359e-06 DIIS
   @RHF iter   6:  -158.46679771707949   -6.97227e-07   1.41265e-06 DIIS
   @RHF iter   7:  -158.46679773561084   -1.85314e-08   3.30444e-07 DIIS
   @RHF iter   8:  -158.46679773672710   -1.11626e-09   4.45860e-08 DIIS
   @RHF iter   9:  -158.46679773676198   -3.48734e-11   8.86304e-09 DIIS
   @RHF iter  10:  -158.46679773676340   -1.42109e-12   2.38217e-09 DIIS
   @RHF iter  11:  -158.46679773676362   -2.27374e-13   5.96310e-10 DIIS
   @RHF iter  12:  -158.46679773676328    3.41061e-13   1.58332e-10 DIIS
   @RHF iter  13:  -158.46679773676334   -5.68434e-14   2.90002e-11 DIIS
  Energy and wave function converged.

  ==> Post-Iterations <==

    Orbital Energies [Eh]
    ---------------------

    Doubly Occupied:

       1A    -11.219881     2A    -11.218057     3A    -11.217564
       4A    -11.215417     5A     -1.016826     6A     -1.014616
       7A     -0.841268     8A     -0.834597     9A     -0.598445
      10A     -0.596720    11A     -0.595768    12A     -0.593821
      13A     -0.505043    14A     -0.496752    15A     -0.488865
      16A     -0.486666    17A     -0.483814    18A     -0.480623

    Virtual:

      19A      0.177131    20A      0.193525    21A      0.222781
      22A      0.236561    23A      0.244794    24A      0.258312
      25A      0.267672    26A      0.277051    27A      0.282960
      28A      0.287648    29A      0.293602    30A      0.325510
      31A      0.392707    32A      0.413505    33A      0.576756
      34A      0.591025    35A      0.598488    36A      0.599728
      37A      0.602281    38A      0.656819    39A      0.668194
      40A      0.692965    41A      0.701095    42A      0.749631
      43A      0.838877    44A      0.885273    45A      0.891075
      46A      0.892352    47A      0.892920    48A      0.895554
      49A      0.901528    50A      0.908821    51A      0.911144
      52A      0.919416    53A      0.933067    54A      0.949705
      55A      0.959024    56A      1.014692    57A      1.121420
      58A      1.125496    59A      1.130530    60A      1.139155
      61A      1.235181    62A      1.247647    63A      1.461982
      64A      1.467197    65A      1.479397    66A      1.485729
      67A      1.580489    68A      1.588426    69A      1.684767
      70A      1.684975    71A      1.694970    72A      1.696091
      73A      1.858285    74A      1.862094    75A      1.869929
      76A      1.884974    77A      1.886359    78A      1.913293
      79A      1.923971    80A      1.933387    81A      1.940964
      82A      1.943985    83A      1.950061    84A      1.955326
      85A      1.959031    86A      1.961214    87A      1.980765
      88A      2.039802    89A      2.093310    90A      2.111582
      91A      2.123792    92A      2.125531    93A      2.299333
      94A      2.302377    95A      2.314470    96A      2.349877
      97A      2.442795    98A      2.453941    99A      2.455982
     100A      2.481698   101A      2.554041   102A      2.566089
     103A      2.571211   104A      2.581777   105A      2.753397
     106A      2.763957   107A      2.780587   108A      2.811186
     109A      2.851926   110A      2.854581   111A      2.858557
     112A      2.863826   113A      2.942559   114A      2.943799
     115A      2.958326   116A      2.970971

    Final Occupation by Irrep:
              A
    DOCC [    18 ]

  @RHF Final Energy:  -158.46679773676334

   => Energetics <=

    Nuclear Repulsion Energy =            119.4239960048751925
    One-Electron Energy =                -447.9721020216530860
    Two-Electron Energy =                 170.0813082800145253
    Total Energy =                       -158.4667977367633398

Computation Completed

Properties will be evaluated at   0.000000,   0.000000,   0.000000 [a0]

Properties computed using the SCF density matrix

  Nuclear Dipole Moment: [e a0]
     X:    -0.0780      Y:    -0.0351      Z:     0.0074

  Electronic Dipole Moment: [e a0]
     X:     0.0639      Y:     0.0325      Z:    -0.0204

  Dipole Moment: [e a0]
     X:    -0.0141      Y:    -0.0026      Z:    -0.0130     Total:     0.0194

  Dipole Moment: [D]
     X:    -0.0359      Y:    -0.0066      Z:    -0.0331     Total:     0.0493

*** tstop() called on ds3 at Mon Apr 27 19:09:24 2020
Module time:
	user time   =       6.64 seconds =       0.11 minutes
	system time =       2.74 seconds =       0.05 minutes
	total time  =          9 seconds =       0.15 minutes
Total time:
	user time   =       6.64 seconds =       0.11 minutes
	system time =       2.74 seconds =       0.05 minutes
	total time  =          9 seconds =       0.15 minutes
                                     G D M A

                                 by Anthony Stone

                           version 2.2.06, 22 June 2011

               Distributed Multipoles from Gaussian wavefunctions

Starting at 19:9:25 on 27 Apr 2020

Using SCF density matrix from file ./SSI/SSI-042LEU-105LEU-1-dimer.test.3859.fchk

                         Distributed Multipole Analysis

Standard DMA

Positions and radii in angstrom
Multipole moments in atomic units, ea_0^k for rank k

C          x = -0.653754  y =  0.019037  z =  1.885084 angstrom
           Maximum rank =  0   Radius =  0.650 angstrom
                   Q00  =  -0.247448

C          x =  0.142246  y = -0.330963  z =  3.147084 angstrom
           Maximum rank =  0   Radius =  0.650 angstrom
                   Q00  =  -0.231648

H          x = -0.230754  y = -0.491963  z =  1.022084 angstrom
           Maximum rank =  0   Radius =  0.325 angstrom
                   Q00  =   0.084613

H          x = -1.686754  y = -0.308963  z =  2.001084 angstrom
           Maximum rank =  0   Radius =  0.325 angstrom
                   Q00  =   0.079249

H          x = -0.635754  y =  1.096037  z =  1.726084 angstrom
           Maximum rank =  0   Radius =  0.325 angstrom
                   Q00  =   0.078429

H          x =  0.184246  y = -1.412963  z =  3.234084 angstrom
           Maximum rank =  0   Radius =  0.325 angstrom
                   Q00  =   0.077243

H          x =  1.172228  y =  0.054205  z =  3.119114 angstrom
           Maximum rank =  0   Radius =  0.325 angstrom
                   Q00  =   0.080723

H          x = -0.381332  y =  0.052371  z =  4.035294 angstrom
           Maximum rank =  0   Radius =  0.325 angstrom
                   Q00  =   0.077194

C          x =  0.066246  y =  0.069037  z = -1.775916 angstrom
           Maximum rank =  0   Radius =  0.650 angstrom
                   Q00  =  -0.250707

C          x =  0.452246  y =  0.246037  z = -3.256916 angstrom
           Maximum rank =  0   Radius =  0.650 angstrom
                   Q00  =  -0.230474

H          x =  0.592246  y =  0.779037  z = -1.146916 angstrom
           Maximum rank =  0   Radius =  0.325 angstrom
                   Q00  =   0.082144

H          x = -1.001754  y =  0.245037  z = -1.658916 angstrom
           Maximum rank =  0   Radius =  0.325 angstrom
                   Q00  =   0.081389

H          x =  0.299246  y = -0.945963  z = -1.448916 angstrom
           Maximum rank =  0   Radius =  0.325 angstrom
                   Q00  =   0.076967

H          x =  0.282246  y =  1.284037  z = -3.536916 angstrom
           Maximum rank =  0   Radius =  0.325 angstrom
                   Q00  =   0.080559

H          x =  1.506981  y = -0.007560  z = -3.439189 angstrom
           Maximum rank =  0   Radius =  0.325 angstrom
                   Q00  =   0.081443

H          x = -0.184017  y = -0.380795  z = -3.898983 angstrom
           Maximum rank =  0   Radius =  0.325 angstrom
                   Q00  =   0.080324

Total multipoles referred to origin at
           x =   0.000000,  y =    0.000000,  z =    0.000000 angstrom
                   Q00  =  -0.000000

Finished at 19:9:25 on 27 Apr 2020

  DMA results are available in the Python driver through the
	  variable('DMA DISTRIBUTED MULTIPOLES')
  and
	  variable('DMA TOTAL MULTIPOLES')
  commands.

    Psi4 stopped on: Monday, 27 April 2020 07:09PM
    Psi4 wall time for execution: 0:00:09.31

*** Psi4 exiting successfully. Buy a developer a beer!
