                               Psi4 1.3.2 release

  ==> Input File <==

--------------------------------------------------------------------------
import numpy as np
set {scf_type pk
basis cc-pvdz
d_convergence 10
gdma_switch   0
gdma_limit    0
gdma_origin   [ 0.0,  0.0,  0.0 ]
}
molecule test {
    units Angstrom
    0 1
    --
    0 1
    C               -0.228534824001414    -1.444346178184615    -2.028996113517210
    C                0.924465175998586    -0.873346178184615    -2.846996113517210
    H                0.060465175998586    -1.562346178184615    -0.985996113517210
    H               -1.089534824001414    -0.778346178184615    -2.090996113517210
    H               -0.512534824001414    -2.418346178184615    -2.428996113517210
    H                0.589465175998587    -0.796346178184615    -3.881996113517210
    H                1.799905175998586    -1.538138178184615    -2.806294113517210
    H                1.182135175998587     0.136469821815385    -2.495036113517209
    C               -0.561534824001414     0.355653821815385     1.377003886482790
    C                0.837465175998586     0.224653821815385     1.920003886482790
    C               -1.008534824001414     1.753653821815385     1.677003886482790
    H               -1.232534824001414    -0.384346178184615     1.815003886482790
    H               -0.533534824001413     0.234653821815385     0.296003886482790
    H                0.813465175998586    -0.175346178184615     2.935003886482790
    H                1.434465175998586    -0.408346178184615     1.262003886482790
    H               -1.506534824001414     1.758653821815386     2.649003886482790
    H               -1.691534824001414     2.126653821815386     0.912003886482790
    H                1.209055175998586     1.259857821815386     1.936518886482790
    H               -0.086074824001414     2.351558821815385     1.716671886482790

}
e, wfn = energy('scf', return_wfn=True)
gdma(wfn)
dmavals = variable('DMA DISTRIBUTED MULTIPOLES')
charges = np.array(dmavals)
print(charges)
np.save('SSI-003VAL-083PRO-1-dimer.npy', np.array(charges))--------------------------------------------------------------------------

*** tstart() called on ds3
*** at Mon Apr 27 18:02:08 2020

   => Loading Basis Set <=

    Name: CC-PVDZ
    Role: ORBITAL
    Keyword: BASIS
    atoms 1-2, 9-11  entry C          line   138 file /theoryfs2/ds/metcalf/miniconda2/envs/tf2gpu/share/psi4/basis/cc-pvdz.gbs
    atoms 3-8, 12-19 entry H          line    22 file /theoryfs2/ds/metcalf/miniconda2/envs/tf2gpu/share/psi4/basis/cc-pvdz.gbs

         ---------------------------------------------------------
                                   SCF
               by Justin Turney, Rob Parrish, Andy Simmonett
                          and Daniel G. A. Smith
                              RHF Reference
                        1 Threads,    500 MiB Core
         ---------------------------------------------------------

  ==> Geometry <==

    Molecular point group: c1
    Full point group: C1

    Geometry (in Angstrom), charge = 0, multiplicity = 1:

       Center              X                  Y                   Z               Mass
    ------------   -----------------  -----------------  -----------------  -----------------
         C           -0.228534824001    -1.444346178185    -2.028996113517    12.000000000000
         C            0.924465175999    -0.873346178185    -2.846996113517    12.000000000000
         H            0.060465175999    -1.562346178185    -0.985996113517     1.007825032230
         H           -1.089534824001    -0.778346178185    -2.090996113517     1.007825032230
         H           -0.512534824001    -2.418346178185    -2.428996113517     1.007825032230
         H            0.589465175999    -0.796346178185    -3.881996113517     1.007825032230
         H            1.799905175999    -1.538138178185    -2.806294113517     1.007825032230
         H            1.182135175999     0.136469821815    -2.495036113517     1.007825032230
         C           -0.561534824001     0.355653821815     1.377003886483    12.000000000000
         C            0.837465175999     0.224653821815     1.920003886483    12.000000000000
         C           -1.008534824001     1.753653821815     1.677003886483    12.000000000000
         H           -1.232534824001    -0.384346178185     1.815003886483     1.007825032230
         H           -0.533534824001     0.234653821815     0.296003886483     1.007825032230
         H            0.813465175999    -0.175346178185     2.935003886483     1.007825032230
         H            1.434465175999    -0.408346178185     1.262003886483     1.007825032230
         H           -1.506534824001     1.758653821815     2.649003886483     1.007825032230
         H           -1.691534824001     2.126653821815     0.912003886483     1.007825032230
         H            1.209055175999     1.259857821815     1.936518886483     1.007825032230
         H           -0.086074824001     2.351558821815     1.716671886483     1.007825032230

  Running in c1 symmetry.

  Rotational constants: A =      0.22036  B =      0.04015  C =      0.03800 [cm^-1]
  Rotational constants: A =   6606.10042  B =   1203.77997  C =   1139.34001 [MHz]
  Nuclear repulsion =  179.504436486227377

  Charge       = 0
  Multiplicity = 1
  Electrons    = 44
  Nalpha       = 22
  Nbeta        = 22

  ==> Algorithm <==

  SCF Algorithm Type is PK.
  DIIS enabled.
  MOM disabled.
  Fractional occupation disabled.
  Guess Type is SAD.
  Energy threshold   = 1.00e-06
  Density threshold  = 1.00e-10
  Integral threshold = 0.00e+00

  ==> Primary Basis <==

  Basis Set: CC-PVDZ
    Blend: CC-PVDZ
    Number of shells: 72
    Number of basis function: 140
    Number of Cartesian functions: 145
    Spherical Harmonics?: true
    Max angular momentum: 2

  ==> Pre-Iterations <==

   -------------------------------------------------------
    Irrep   Nso     Nmo     Nalpha   Nbeta   Ndocc  Nsocc
   -------------------------------------------------------
     A        140     140       0       0       0       0
   -------------------------------------------------------
    Total     140     140      22      22      22       0
   -------------------------------------------------------

  ==> Integral Setup <==

  Using integral reordering PK algorithm.
  Sizing the integral batches needed.
  Building batch lookup table.
   Calculation information:
      Number of atoms:                  19
      Number of AO shells:              72
      Number of primitives:            180
      Number of atomic orbitals:       145
      Number of basis functions:       140

      Integral cutoff                 1.00e-12
      Number of threads:                 1

	Batch   1 pq = [       0,    9405] index = [             0,44231715] size =     44231715
	Batch   2 pq = [    9405,    9870] index = [      44231715,48713385] size =      4481670
  Task number: 5
  Buffer size: 11059200
  Buffer per thread: 2
  We computed 2886524 shell quartets total.
  Whereas there are 3454506 unique shell quartets.

  ==> DiskJK: Disk-Based J/K Matrices <==

    J tasked:                  Yes
    K tasked:                  Yes
    wK tasked:                  No
    Memory [MiB]:              375
    Schwarz Cutoff:          1E-12

    OpenMP threads:              1

  Minimum eigenvalue in the overlap matrix is 4.5975909425E-03.
  Using Symmetric Orthogonalization.

  SCF Guess: Superposition of Atomic Densities via on-the-fly atomic UHF.

  ==> Iterations <==

                        Total Energy        Delta E     RMS |[F,P]|

   @RHF iter SAD:  -196.55181101023189   -1.96552e+02   0.00000e+00
   @RHF iter   1:  -197.28727673300054   -7.35466e-01   3.89524e-03 DIIS
   @RHF iter   2:  -197.45147809675217   -1.64201e-01   1.70723e-03 DIIS
   @RHF iter   3:  -197.48197888891738   -3.05008e-02   3.31105e-04 DIIS
   @RHF iter   4:  -197.48422992681506   -2.25104e-03   5.11128e-05 DIIS
   @RHF iter   5:  -197.48427238955367   -4.24627e-05   1.55384e-05 DIIS
   @RHF iter   6:  -197.48427616656036   -3.77701e-06   2.61232e-06 DIIS
   @RHF iter   7:  -197.48427629366694   -1.27107e-07   5.04855e-07 DIIS
   @RHF iter   8:  -197.48427629882971   -5.16278e-09   1.23385e-07 DIIS
   @RHF iter   9:  -197.48427629913610   -3.06386e-10   3.85256e-08 DIIS
   @RHF iter  10:  -197.48427629916887   -3.27702e-11   8.18949e-09 DIIS
   @RHF iter  11:  -197.48427629917174   -2.87059e-12   1.55750e-09 DIIS
   @RHF iter  12:  -197.48427629917069    1.05160e-12   2.91914e-10 DIIS
   @RHF iter  13:  -197.48427629917171   -1.02318e-12   5.08838e-11 DIIS
  Energy and wave function converged.

  ==> Post-Iterations <==

    Orbital Energies [Eh]
    ---------------------

    Doubly Occupied:

       1A    -11.220059     2A    -11.216975     3A    -11.211642
       4A    -11.211003     5A    -11.209944     6A     -1.070020
       7A     -1.020361     8A     -0.917807     9A     -0.837094
      10A     -0.795299    11A     -0.637084    12A     -0.616825
      13A     -0.600247    14A     -0.597545    15A     -0.542977
      16A     -0.517523    17A     -0.501665    18A     -0.488328
      19A     -0.486635    20A     -0.480018    21A     -0.463023
      22A     -0.458583

    Virtual:

      23A      0.166408    24A      0.198501    25A      0.216068
      26A      0.225713    27A      0.230969    28A      0.242297
      29A      0.255324    30A      0.266308    31A      0.271368
      32A      0.280794    33A      0.290605    34A      0.328413
      35A      0.335528    36A      0.351435    37A      0.387757
      38A      0.399772    39A      0.456411    40A      0.553436
      41A      0.596413    42A      0.601153    43A      0.603082
      44A      0.611535    45A      0.635067    46A      0.654185
      47A      0.670361    48A      0.680871    49A      0.768998
      50A      0.794819    51A      0.806014    52A      0.845491
      53A      0.849039    54A      0.864447    55A      0.882240
      56A      0.889840    57A      0.893391    58A      0.894674
      59A      0.907277    60A      0.911429    61A      0.916607
      62A      0.919561    63A      0.929589    64A      0.932639
      65A      0.951832    66A      0.967366    67A      0.986412
      68A      1.027548    69A      1.087705    70A      1.100552
      71A      1.125502    72A      1.153155    73A      1.234759
      74A      1.249864    75A      1.431604    76A      1.475120
      77A      1.478787    78A      1.483647    79A      1.505505
      80A      1.578087    81A      1.613482    82A      1.624950
      83A      1.636416    84A      1.679465    85A      1.697483
      86A      1.718210    87A      1.728138    88A      1.788308
      89A      1.859008    90A      1.866453    91A      1.877414
      92A      1.886978    93A      1.899236    94A      1.925314
      95A      1.932653    96A      1.942581    97A      1.945277
      98A      1.949501    99A      1.953978   100A      1.957498
     101A      1.972059   102A      1.986592   103A      1.993918
     104A      2.017185   105A      2.031290   106A      2.061853
     107A      2.085925   108A      2.100317   109A      2.121169
     110A      2.153752   111A      2.238971   112A      2.261032
     113A      2.294731   114A      2.310922   115A      2.319371
     116A      2.371097   117A      2.439717   118A      2.449465
     119A      2.452746   120A      2.471276   121A      2.499494
     122A      2.558006   123A      2.567507   124A      2.577566
     125A      2.642407   126A      2.712484   127A      2.751716
     128A      2.769013   129A      2.787489   130A      2.790778
     131A      2.802478   132A      2.838816   133A      2.845356
     134A      2.851333   135A      2.856737   136A      2.912810
     137A      2.940947   138A      2.961566   139A      2.981560
     140A      3.079658

    Final Occupation by Irrep:
              A
    DOCC [    22 ]

  @RHF Final Energy:  -197.48427629917171

   => Energetics <=

    Nuclear Repulsion Energy =            179.5044364862273767
    One-Electron Energy =                -619.7761154932356931
    Two-Electron Energy =                 242.7874027078365771
    Total Energy =                       -197.4842762991717109

Computation Completed

Properties will be evaluated at   0.000000,   0.000000,   0.000000 [a0]

Properties computed using the SCF density matrix

  Nuclear Dipole Moment: [e a0]
     X:     0.4094      Y:    -0.1816      Z:    -1.0941

  Electronic Dipole Moment: [e a0]
     X:    -0.4479      Y:     0.1376      Z:     1.0594

  Dipole Moment: [e a0]
     X:    -0.0385      Y:    -0.0440      Z:    -0.0348     Total:     0.0680

  Dipole Moment: [D]
     X:    -0.0979      Y:    -0.1118      Z:    -0.0883     Total:     0.1728

*** tstop() called on ds3 at Mon Apr 27 18:02:30 2020
Module time:
	user time   =      15.68 seconds =       0.26 minutes
	system time =       6.82 seconds =       0.11 minutes
	total time  =         22 seconds =       0.37 minutes
Total time:
	user time   =      15.68 seconds =       0.26 minutes
	system time =       6.82 seconds =       0.11 minutes
	total time  =         22 seconds =       0.37 minutes
                                     G D M A

                                 by Anthony Stone

                           version 2.2.06, 22 June 2011

               Distributed Multipoles from Gaussian wavefunctions

Starting at 18:2:30 on 27 Apr 2020

Using SCF density matrix from file ./SSI/SSI-003VAL-083PRO-1-dimer.test.18697.fchk

                         Distributed Multipole Analysis

Standard DMA

Positions and radii in angstrom
Multipole moments in atomic units, ea_0^k for rank k

C          x = -0.228535  y = -1.444346  z = -2.028996 angstrom
           Maximum rank =  0   Radius =  0.650 angstrom
                   Q00  =  -0.230386

C          x =  0.924465  y = -0.873346  z = -2.846996 angstrom
           Maximum rank =  0   Radius =  0.650 angstrom
                   Q00  =  -0.239887

H          x =  0.060465  y = -1.562346  z = -0.985996 angstrom
           Maximum rank =  0   Radius =  0.325 angstrom
                   Q00  =   0.080388

H          x = -1.089535  y = -0.778346  z = -2.090996 angstrom
           Maximum rank =  0   Radius =  0.325 angstrom
                   Q00  =   0.078044

H          x = -0.512535  y = -2.418346  z = -2.428996 angstrom
           Maximum rank =  0   Radius =  0.325 angstrom
                   Q00  =   0.078672

H          x =  0.589465  y = -0.796346  z = -3.881996 angstrom
           Maximum rank =  0   Radius =  0.325 angstrom
                   Q00  =   0.077332

H          x =  1.799905  y = -1.538138  z = -2.806294 angstrom
           Maximum rank =  0   Radius =  0.325 angstrom
                   Q00  =   0.079933

H          x =  1.182135  y =  0.136470  z = -2.495036 angstrom
           Maximum rank =  0   Radius =  0.325 angstrom
                   Q00  =   0.077243

C          x = -0.561535  y =  0.355654  z =  1.377004 angstrom
           Maximum rank =  0   Radius =  0.650 angstrom
                   Q00  =  -0.100037

C          x =  0.837465  y =  0.224654  z =  1.920004 angstrom
           Maximum rank =  0   Radius =  0.650 angstrom
                   Q00  =  -0.226733

C          x = -1.008535  y =  1.753654  z =  1.677004 angstrom
           Maximum rank =  0   Radius =  0.650 angstrom
                   Q00  =  -0.221064

H          x = -1.232535  y = -0.384346  z =  1.815004 angstrom
           Maximum rank =  0   Radius =  0.325 angstrom
                   Q00  =   0.049554

H          x = -0.533535  y =  0.234654  z =  0.296004 angstrom
           Maximum rank =  0   Radius =  0.325 angstrom
                   Q00  =   0.054910

H          x =  0.813465  y = -0.175346  z =  2.935004 angstrom
           Maximum rank =  0   Radius =  0.325 angstrom
                   Q00  =   0.078401

H          x =  1.434465  y = -0.408346  z =  1.262004 angstrom
           Maximum rank =  0   Radius =  0.325 angstrom
                   Q00  =   0.085709

H          x = -1.506535  y =  1.758654  z =  2.649004 angstrom
           Maximum rank =  0   Radius =  0.325 angstrom
                   Q00  =   0.079683

H          x = -1.691535  y =  2.126654  z =  0.912004 angstrom
           Maximum rank =  0   Radius =  0.325 angstrom
                   Q00  =   0.085092

H          x =  1.209055  y =  1.259858  z =  1.936519 angstrom
           Maximum rank =  0   Radius =  0.325 angstrom
                   Q00  =   0.060806

H          x = -0.086075  y =  2.351559  z =  1.716672 angstrom
           Maximum rank =  0   Radius =  0.325 angstrom
                   Q00  =   0.052340

Total multipoles referred to origin at
           x =   0.000000,  y =    0.000000,  z =    0.000000 angstrom
                   Q00  =  -0.000000

Finished at 18:2:30 on 27 Apr 2020

  DMA results are available in the Python driver through the
	  variable('DMA DISTRIBUTED MULTIPOLES')
  and
	  variable('DMA TOTAL MULTIPOLES')
  commands.

    Psi4 stopped on: Monday, 27 April 2020 06:02PM
    Psi4 wall time for execution: 0:00:21.88

*** Psi4 exiting successfully. Buy a developer a beer!
