                               Psi4 1.3.2 release

  ==> Input File <==

--------------------------------------------------------------------------
import numpy as np
set {scf_type pk
basis cc-pvdz
d_convergence 10
gdma_switch   0
gdma_limit    0
gdma_origin   [ 0.0,  0.0,  0.0 ]
}
molecule test {
    units Angstrom
    1 1
    --
    1 1
    C               -0.770692525476877     3.429812958529343    -1.053943685351970
    C                0.417307474523123     2.056812958529342     0.655056314648030
    N               -0.684692525476877     2.622812958529342     0.168056314648030
    N                1.563307474523123     2.156812958529343     0.017056314648030
    N                0.363307474523123     1.390812958529342     1.775056314648030
    H               -1.529692525476877     2.511812958529342     0.719056314648030
    H                1.669307474523123     2.714812958529342    -0.800943685351970
    H                2.411307474523123     1.737812958529342     0.429056314648030
    H               -0.504692525476877     0.958812958529342     2.004056314648030
    H                1.227307474523123     0.980812958529342     2.153056314648030
    H                0.173307474523123     3.426812958529343    -1.598943685351970
    H               -0.975692525476877     4.470812958529343    -0.787943685351970
    H               -1.546062525476877     3.051492958529343    -1.736353685351970
    C               -0.419692525476877    -0.957187041470658    -2.154943685351970
    C                0.765307474523123    -1.608187041470658     0.043056314648030
    C               -0.210692525476877    -1.742187041470658    -0.894943685351970
    C               -0.624692525476877    -3.157187041470658     0.727056314648030
    N                0.500307474523123    -2.512187041470658     1.040056314648030
    N               -1.099692525476877    -2.690187041470657    -0.429943685351970
    H                1.596307474523123    -0.921187041470658     0.004056314648030
    H                1.080307474523123    -2.702187041470657     1.850056314648030
    H                0.369307474523123    -0.210187041470658    -2.213943685351970
    H               -1.367692525476877    -0.424187041470658    -2.075943685351970
    H               -1.077692525476877    -3.944187041470657     1.319056314648030
    H               -0.413962525476877    -1.548717041470658    -3.082343685351970

}
e, wfn = energy('scf', return_wfn=True)
gdma(wfn)
dmavals = variable('DMA DISTRIBUTED MULTIPOLES')
charges = np.array(dmavals)
print(charges)
np.save('SSI-099ARG-102HIE-1-dimer.npy', np.array(charges))--------------------------------------------------------------------------

*** tstart() called on ds3
*** at Mon Apr 27 20:46:24 2020

   => Loading Basis Set <=

    Name: CC-PVDZ
    Role: ORBITAL
    Keyword: BASIS
    atoms 1-2, 14-17  entry C          line   138 file /theoryfs2/ds/metcalf/miniconda2/envs/tf2gpu/share/psi4/basis/cc-pvdz.gbs
    atoms 3-5, 18-19  entry N          line   168 file /theoryfs2/ds/metcalf/miniconda2/envs/tf2gpu/share/psi4/basis/cc-pvdz.gbs
    atoms 6-13, 20-25 entry H          line    22 file /theoryfs2/ds/metcalf/miniconda2/envs/tf2gpu/share/psi4/basis/cc-pvdz.gbs

         ---------------------------------------------------------
                                   SCF
               by Justin Turney, Rob Parrish, Andy Simmonett
                          and Daniel G. A. Smith
                              RHF Reference
                        1 Threads,    500 MiB Core
         ---------------------------------------------------------

  ==> Geometry <==

    Molecular point group: c1
    Full point group: C1

    Geometry (in Angstrom), charge = 1, multiplicity = 1:

       Center              X                  Y                   Z               Mass
    ------------   -----------------  -----------------  -----------------  -----------------
         C           -0.770692525477     3.429812958529    -1.053943685352    12.000000000000
         C            0.417307474523     2.056812958529     0.655056314648    12.000000000000
         N           -0.684692525477     2.622812958529     0.168056314648    14.003074004430
         N            1.563307474523     2.156812958529     0.017056314648    14.003074004430
         N            0.363307474523     1.390812958529     1.775056314648    14.003074004430
         H           -1.529692525477     2.511812958529     0.719056314648     1.007825032230
         H            1.669307474523     2.714812958529    -0.800943685352     1.007825032230
         H            2.411307474523     1.737812958529     0.429056314648     1.007825032230
         H           -0.504692525477     0.958812958529     2.004056314648     1.007825032230
         H            1.227307474523     0.980812958529     2.153056314648     1.007825032230
         H            0.173307474523     3.426812958529    -1.598943685352     1.007825032230
         H           -0.975692525477     4.470812958529    -0.787943685352     1.007825032230
         H           -1.546062525477     3.051492958529    -1.736353685352     1.007825032230
         C           -0.419692525477    -0.957187041471    -2.154943685352    12.000000000000
         C            0.765307474523    -1.608187041471     0.043056314648    12.000000000000
         C           -0.210692525477    -1.742187041471    -0.894943685352    12.000000000000
         C           -0.624692525477    -3.157187041471     0.727056314648    12.000000000000
         N            0.500307474523    -2.512187041471     1.040056314648    14.003074004430
         N           -1.099692525477    -2.690187041471    -0.429943685352    14.003074004430
         H            1.596307474523    -0.921187041471     0.004056314648     1.007825032230
         H            1.080307474523    -2.702187041471     1.850056314648     1.007825032230
         H            0.369307474523    -0.210187041471    -2.213943685352     1.007825032230
         H           -1.367692525477    -0.424187041471    -2.075943685352     1.007825032230
         H           -1.077692525477    -3.944187041471     1.319056314648     1.007825032230
         H           -0.413962525477    -1.548717041471    -3.082343685352     1.007825032230

  Running in c1 symmetry.

  Rotational constants: A =      0.05625  B =      0.01790  C =      0.01570 [cm^-1]
  Rotational constants: A =   1686.20473  B =    536.71502  C =    470.55617 [MHz]
  Nuclear repulsion =  618.444010995193480

  Charge       = 1
  Multiplicity = 1
  Electrons    = 84
  Nalpha       = 42
  Nbeta        = 42

  ==> Algorithm <==

  SCF Algorithm Type is PK.
  DIIS enabled.
  MOM disabled.
  Fractional occupation disabled.
  Guess Type is SAD.
  Energy threshold   = 1.00e-06
  Density threshold  = 1.00e-10
  Integral threshold = 0.00e+00

  ==> Primary Basis <==

  Basis Set: CC-PVDZ
    Blend: CC-PVDZ
    Number of shells: 108
    Number of basis function: 224
    Number of Cartesian functions: 235
    Spherical Harmonics?: true
    Max angular momentum: 2

  ==> Pre-Iterations <==

   -------------------------------------------------------
    Irrep   Nso     Nmo     Nalpha   Nbeta   Ndocc  Nsocc
   -------------------------------------------------------
     A        224     224       0       0       0       0
   -------------------------------------------------------
    Total     224     224      42      42      42       0
   -------------------------------------------------------

  ==> Integral Setup <==

  Using integral reordering PK algorithm.
  Sizing the integral batches needed.
  Building batch lookup table.
   Calculation information:
      Number of atoms:                  25
      Number of AO shells:             108
      Number of primitives:            312
      Number of atomic orbitals:       235
      Number of basis functions:       224

      Integral cutoff                 1.00e-12
      Number of threads:                 1

	Batch   1 pq = [       0,    9405] index = [             0,44231715] size =     44231715
	Batch   2 pq = [    9405,   13301] index = [      44231715,88464951] size =     44233236
	Batch   3 pq = [   13301,   16290] index = [      88464951,132690195] size =     44225244
	Batch   4 pq = [   16290,   18810] index = [     132690195,176917455] size =     44227260
	Batch   5 pq = [   18810,   21030] index = [     176917455,221140965] size =     44223510
	Batch   6 pq = [   21030,   23037] index = [     221140965,265363203] size =     44222238
	Batch   7 pq = [   23037,   24883] index = [     265363203,309594286] size =     44231083
	Batch   8 pq = [   24883,   25200] index = [     309594286,317532600] size =      7938314
  Task number: 29
  Buffer size: 11059200
  Buffer per thread: 2
  We computed 16494806 shell quartets total.
  Whereas there are 17325441 unique shell quartets.

  ==> DiskJK: Disk-Based J/K Matrices <==

    J tasked:                  Yes
    K tasked:                  Yes
    wK tasked:                  No
    Memory [MiB]:              375
    Schwarz Cutoff:          1E-12

    OpenMP threads:              1

  Minimum eigenvalue in the overlap matrix is 1.2120619473E-03.
  Using Symmetric Orthogonalization.

  SCF Guess: Superposition of Atomic Densities via on-the-fly atomic UHF.

  ==> Iterations <==

                        Total Energy        Delta E     RMS |[F,P]|

   @RHF iter SAD:  -506.98541910051233   -5.06985e+02   0.00000e+00
   @RHF iter   1:  -507.18818640129081   -2.02767e-01   2.92260e-03 DIIS
   @RHF iter   2:  -507.40140075079978   -2.13214e-01   1.38401e-03 DIIS
   @RHF iter   3:  -507.44466494207632   -4.32642e-02   4.04414e-04 DIIS
   @RHF iter   4:  -507.44943081863789   -4.76588e-03   1.52532e-04 DIIS
   @RHF iter   5:  -507.45006268006250   -6.31861e-04   2.46013e-05 DIIS
   @RHF iter   6:  -507.45009297998320   -3.02999e-05   1.03298e-05 DIIS
   @RHF iter   7:  -507.45009730500789   -4.32502e-06   3.05727e-06 DIIS
   @RHF iter   8:  -507.45009794361448   -6.38607e-07   1.10026e-06 DIIS
   @RHF iter   9:  -507.45009802799404   -8.43796e-08   3.94995e-07 DIIS
   @RHF iter  10:  -507.45009804087624   -1.28822e-08   1.44613e-07 DIIS
   @RHF iter  11:  -507.45009804306443   -2.18819e-09   5.09622e-08 DIIS
   @RHF iter  12:  -507.45009804326378   -1.99350e-10   1.97554e-08 DIIS
   @RHF iter  13:  -507.45009804328959   -2.58069e-11   6.61055e-09 DIIS
   @RHF iter  14:  -507.45009804329709   -7.50333e-12   2.57169e-09 DIIS
   @RHF iter  15:  -507.45009804329743   -3.41061e-13   9.90663e-10 DIIS
   @RHF iter  16:  -507.45009804329356    3.86535e-12   3.80019e-10 DIIS
   @RHF iter  17:  -507.45009804329402   -4.54747e-13   1.27262e-10 DIIS
   @RHF iter  18:  -507.45009804329391    1.13687e-13   4.23574e-11 DIIS
  Energy and wave function converged.

  ==> Post-Iterations <==

    Orbital Energies [Eh]
    ---------------------

    Doubly Occupied:

       1A    -15.791631     2A    -15.786228     3A    -15.785257
       4A    -15.727282     5A    -15.632235     6A    -11.588553
       7A    -11.441811     8A    -11.396931     9A    -11.360096
      10A    -11.351403    11A    -11.331279    12A     -1.548995
      13A     -1.445905    14A     -1.401589    15A     -1.394786
      16A     -1.259070    17A     -1.139994    18A     -1.137932
      19A     -1.047345    20A     -1.039079    21A     -0.978202
      22A     -0.939916    23A     -0.924192    24A     -0.870086
      25A     -0.867526    26A     -0.852383    27A     -0.846787
      28A     -0.816245    29A     -0.794477    30A     -0.744374
      31A     -0.721753    32A     -0.714487    33A     -0.709546
      34A     -0.703648    35A     -0.657164    36A     -0.649844
      37A     -0.628437    38A     -0.621061    39A     -0.583337
      40A     -0.514609    41A     -0.482694    42A     -0.417227

    Virtual:

      43A     -0.016978    44A      0.019211    45A      0.022713
      46A      0.027036    47A      0.058007    48A      0.073652
      49A      0.083132    50A      0.089130    51A      0.096485
      52A      0.113986    53A      0.118479    54A      0.130500
      55A      0.141917    56A      0.149731    57A      0.161813
      58A      0.176408    59A      0.196606    60A      0.211985
      61A      0.264432    62A      0.278871    63A      0.294960
      64A      0.307871    65A      0.331679    66A      0.349633
      67A      0.370708    68A      0.389239    69A      0.415600
      70A      0.431592    71A      0.484678    72A      0.498450
      73A      0.509849    74A      0.526583    75A      0.531692
      76A      0.545262    77A      0.559666    78A      0.562666
      79A      0.569704    80A      0.599868    81A      0.606493
      82A      0.627014    83A      0.642045    84A      0.649947
      85A      0.676490    86A      0.682689    87A      0.688631
      88A      0.699287    89A      0.706876    90A      0.718816
      91A      0.728796    92A      0.735811    93A      0.746316
      94A      0.753014    95A      0.766789    96A      0.775546
      97A      0.782417    98A      0.821111    99A      0.838568
     100A      0.843636   101A      0.853814   102A      0.859239
     103A      0.863808   104A      0.882268   105A      0.894222
     106A      0.920258   107A      0.939603   108A      0.951315
     109A      0.969744   110A      0.974785   111A      0.995284
     112A      1.006605   113A      1.022355   114A      1.035482
     115A      1.044372   116A      1.072893   117A      1.102149
     118A      1.138267   119A      1.150494   120A      1.155702
     121A      1.165211   122A      1.173297   123A      1.209681
     124A      1.220485   125A      1.224581   126A      1.248090
     127A      1.257350   128A      1.316945   129A      1.329076
     130A      1.341404   131A      1.370268   132A      1.377077
     133A      1.407192   134A      1.457444   135A      1.468784
     136A      1.481161   137A      1.509009   138A      1.522967
     139A      1.537766   140A      1.549914   141A      1.567070
     142A      1.587054   143A      1.598890   144A      1.613837
     145A      1.648485   146A      1.672655   147A      1.692384
     148A      1.701422   149A      1.708371   150A      1.722733
     151A      1.727035   152A      1.747456   153A      1.753175
     154A      1.772109   155A      1.789470   156A      1.809474
     157A      1.816306   158A      1.819453   159A      1.833053
     160A      1.847696   161A      1.861329   162A      1.881396
     163A      1.884808   164A      1.896006   165A      1.904094
     166A      1.915951   167A      1.967557   168A      1.986083
     169A      2.000705   170A      2.015705   171A      2.020940
     172A      2.048089   173A      2.065243   174A      2.097377
     175A      2.099822   176A      2.121753   177A      2.137780
     178A      2.176663   179A      2.213009   180A      2.223478
     181A      2.241130   182A      2.266060   183A      2.282611
     184A      2.291383   185A      2.295374   186A      2.332283
     187A      2.341782   188A      2.350225   189A      2.377451
     190A      2.386120   191A      2.432887   192A      2.438595
     193A      2.451900   194A      2.503805   195A      2.571846
     196A      2.581485   197A      2.598978   198A      2.607035
     199A      2.636007   200A      2.641427   201A      2.650900
     202A      2.676428   203A      2.683943   204A      2.697832
     205A      2.717679   206A      2.756444   207A      2.763688
     208A      2.783087   209A      2.798071   210A      2.808259
     211A      2.821209   212A      2.852687   213A      2.858315
     214A      2.926967   215A      2.959328   216A      3.039996
     217A      3.056268   218A      3.075418   219A      3.118118
     220A      3.135025   221A      3.359298   222A      3.553499
     223A      3.635272   224A      3.688433

    Final Occupation by Irrep:
              A
    DOCC [    42 ]

  @RHF Final Energy:  -507.45009804329391

   => Energetics <=

    Nuclear Repulsion Energy =            618.4440109951934801
    One-Electron Energy =               -1902.4974278395789042
    Two-Electron Energy =                 776.6033188010916319
    Total Energy =                       -507.4500980432939059

Computation Completed

Properties will be evaluated at   0.000000,   0.000000,   0.000000 [a0]

Properties computed using the SCF density matrix

  Nuclear Dipole Moment: [e a0]
     X:     1.0403      Y:     9.4680      Z:    -3.5867

  Electronic Dipole Moment: [e a0]
     X:     0.4618      Y:    -5.8495      Z:     5.2979

  Dipole Moment: [e a0]
     X:     1.5021      Y:     3.6185      Z:     1.7111     Total:     4.2753

  Dipole Moment: [D]
     X:     3.8179      Y:     9.1974      Z:     4.3492     Total:    10.8667

*** tstop() called on ds3 at Mon Apr 27 20:49:44 2020
Module time:
	user time   =     121.61 seconds =       2.03 minutes
	system time =      47.50 seconds =       0.79 minutes
	total time  =        200 seconds =       3.33 minutes
Total time:
	user time   =     121.61 seconds =       2.03 minutes
	system time =      47.50 seconds =       0.79 minutes
	total time  =        200 seconds =       3.33 minutes
                                     G D M A

                                 by Anthony Stone

                           version 2.2.06, 22 June 2011

               Distributed Multipoles from Gaussian wavefunctions

Starting at 20:49:44 on 27 Apr 2020

Using SCF density matrix from file ./SSI/SSI-099ARG-102HIE-1-dimer.test.18251.fchk

                         Distributed Multipole Analysis

Standard DMA

Positions and radii in angstrom
Multipole moments in atomic units, ea_0^k for rank k

C          x = -0.770693  y =  3.429813  z = -1.053944 angstrom
           Maximum rank =  0   Radius =  0.650 angstrom
                   Q00  =  -0.120360

C          x =  0.417307  y =  2.056813  z =  0.655056 angstrom
           Maximum rank =  0   Radius =  0.650 angstrom
                   Q00  =   1.072364

N          x = -0.684693  y =  2.622813  z =  0.168056 angstrom
           Maximum rank =  0   Radius =  0.650 angstrom
                   Q00  =  -0.496348

N          x =  1.563307  y =  2.156813  z =  0.017056 angstrom
           Maximum rank =  0   Radius =  0.650 angstrom
                   Q00  =  -0.582017

N          x =  0.363307  y =  1.390813  z =  1.775056 angstrom
           Maximum rank =  0   Radius =  0.650 angstrom
                   Q00  =  -0.564534

H          x = -1.529693  y =  2.511813  z =  0.719056 angstrom
           Maximum rank =  0   Radius =  0.325 angstrom
                   Q00  =   0.237107

H          x =  1.669307  y =  2.714813  z = -0.800944 angstrom
           Maximum rank =  0   Radius =  0.325 angstrom
                   Q00  =   0.264385

H          x =  2.411307  y =  1.737813  z =  0.429056 angstrom
           Maximum rank =  0   Radius =  0.325 angstrom
                   Q00  =   0.266372

H          x = -0.504693  y =  0.958813  z =  2.004056 angstrom
           Maximum rank =  0   Radius =  0.325 angstrom
                   Q00  =   0.261918

H          x =  1.227307  y =  0.980813  z =  2.153056 angstrom
           Maximum rank =  0   Radius =  0.325 angstrom
                   Q00  =   0.261135

H          x =  0.173307  y =  3.426813  z = -1.598944 angstrom
           Maximum rank =  0   Radius =  0.325 angstrom
                   Q00  =   0.109958

H          x = -0.975693  y =  4.470813  z = -0.787944 angstrom
           Maximum rank =  0   Radius =  0.325 angstrom
                   Q00  =   0.139600

H          x = -1.546063  y =  3.051493  z = -1.736354 angstrom
           Maximum rank =  0   Radius =  0.325 angstrom
                   Q00  =   0.151176

C          x = -0.419693  y = -0.957187  z = -2.154944 angstrom
           Maximum rank =  0   Radius =  0.650 angstrom
                   Q00  =  -0.186287

C          x =  0.765307  y = -1.608187  z =  0.043056 angstrom
           Maximum rank =  0   Radius =  0.650 angstrom
                   Q00  =  -0.040762

C          x = -0.210693  y = -1.742187  z = -0.894944 angstrom
           Maximum rank =  0   Radius =  0.650 angstrom
                   Q00  =   0.247802

C          x = -0.624693  y = -3.157187  z =  0.727056 angstrom
           Maximum rank =  0   Radius =  0.650 angstrom
                   Q00  =   0.460564

N          x =  0.500307  y = -2.512187  z =  1.040056 angstrom
           Maximum rank =  0   Radius =  0.650 angstrom
                   Q00  =  -0.471510

N          x = -1.099693  y = -2.690187  z = -0.429944 angstrom
           Maximum rank =  0   Radius =  0.650 angstrom
                   Q00  =  -0.759636

H          x =  1.596307  y = -0.921187  z =  0.004056 angstrom
           Maximum rank =  0   Radius =  0.325 angstrom
                   Q00  =   0.073262

H          x =  1.080307  y = -2.702187  z =  1.850056 angstrom
           Maximum rank =  0   Radius =  0.325 angstrom
                   Q00  =   0.229700

H          x =  0.369307  y = -0.210187  z = -2.213944 angstrom
           Maximum rank =  0   Radius =  0.325 angstrom
                   Q00  =   0.064892

H          x = -1.367693  y = -0.424187  z = -2.075944 angstrom
           Maximum rank =  0   Radius =  0.325 angstrom
                   Q00  =   0.102654

H          x = -1.077693  y = -3.944187  z =  1.319056 angstrom
           Maximum rank =  0   Radius =  0.325 angstrom
                   Q00  =   0.140317

H          x = -0.413963  y = -1.548717  z = -3.082344 angstrom
           Maximum rank =  0   Radius =  0.325 angstrom
                   Q00  =   0.138248

Total multipoles referred to origin at
           x =   0.000000,  y =    0.000000,  z =    0.000000 angstrom
                   Q00  =   1.000000

Finished at 20:49:44 on 27 Apr 2020

  DMA results are available in the Python driver through the
	  variable('DMA DISTRIBUTED MULTIPOLES')
  and
	  variable('DMA TOTAL MULTIPOLES')
  commands.

    Psi4 stopped on: Monday, 27 April 2020 08:49PM
    Psi4 wall time for execution: 0:03:21.00

*** Psi4 exiting successfully. Buy a developer a beer!
