                               Psi4 1.3.2 release

  ==> Input File <==

--------------------------------------------------------------------------
import numpy as np
set {scf_type pk
basis cc-pvdz
d_convergence 10
gdma_switch   0
gdma_limit    0
gdma_origin   [ 0.0,  0.0,  0.0 ]
}
molecule test {
    units Angstrom
    0 1
    --
    0 1
    C                1.534648558079860     2.489988156436920     0.549937993923369
    C                0.762648558079860     3.813988156436920     0.633937993923369
    C                2.673648558079860     2.411988156436919    -0.479062006076631
    H                1.949648558079860     2.275988156436920     1.536937993923369
    H                0.818648558079860     1.699988156436919     0.329937993923369
    H                0.346648558079860     4.027988156436919    -0.352062006076631
    H                3.446648558079859     3.136988156436919    -0.223062006076631
    H                1.431748558079860     4.639988156436919     0.916817993923369
    H               -0.085037441920140     3.723318156436920     1.329067993923369
    H                3.116178558079859     1.405318156436919    -0.451002006076631
    H                2.302828558079860     2.630158156436919    -1.491432006076631
    C               -1.857351441920140    -2.377011843563080     1.692937993923369
    C               -0.466351441920140    -0.391011843563081    -1.008062006076631
    C               -1.239351441920140    -1.873011843563081     0.419937993923369
    C               -0.556351441920140    -2.540011843563081    -0.547062006076631
    N               -1.171351441920140    -0.533011843563081     0.104937993923369
    N               -0.078351441920140    -1.591011843563081    -1.428062006076631
    H               -0.240351441920140     0.550988156436919    -1.493062006076631
    H                0.582648558079860    -1.746011843563081    -2.182062006076632
    H               -0.360351441920140    -3.604011843563081    -0.569062006076631
    H               -2.149351441920140    -3.419011843563081     1.561937993923369
    H               -2.760351441920140    -1.799011843563081     1.886937993923369
    H               -1.174885441920140    -2.286741843563081     2.550897993923369

}
e, wfn = energy('scf', return_wfn=True)
gdma(wfn)
dmavals = variable('DMA DISTRIBUTED MULTIPOLES')
charges = np.array(dmavals)
print(charges)
np.save('SSI-004LEU-032HIE-1-dimer.npy', np.array(charges))--------------------------------------------------------------------------

*** tstart() called on ds3
*** at Mon Apr 27 13:19:33 2020

   => Loading Basis Set <=

    Name: CC-PVDZ
    Role: ORBITAL
    Keyword: BASIS
    atoms 1-3, 12-15  entry C          line   138 file /theoryfs2/ds/metcalf/miniconda2/envs/tf2gpu/share/psi4/basis/cc-pvdz.gbs
    atoms 4-11, 18-23 entry H          line    22 file /theoryfs2/ds/metcalf/miniconda2/envs/tf2gpu/share/psi4/basis/cc-pvdz.gbs
    atoms 16-17       entry N          line   168 file /theoryfs2/ds/metcalf/miniconda2/envs/tf2gpu/share/psi4/basis/cc-pvdz.gbs

         ---------------------------------------------------------
                                   SCF
               by Justin Turney, Rob Parrish, Andy Simmonett
                          and Daniel G. A. Smith
                              RHF Reference
                        1 Threads,    500 MiB Core
         ---------------------------------------------------------

  ==> Geometry <==

    Molecular point group: c1
    Full point group: C1

    Geometry (in Angstrom), charge = 0, multiplicity = 1:

       Center              X                  Y                   Z               Mass
    ------------   -----------------  -----------------  -----------------  -----------------
         C            1.534648558080     2.489988156437     0.549937993923    12.000000000000
         C            0.762648558080     3.813988156437     0.633937993923    12.000000000000
         C            2.673648558080     2.411988156437    -0.479062006077    12.000000000000
         H            1.949648558080     2.275988156437     1.536937993923     1.007825032230
         H            0.818648558080     1.699988156437     0.329937993923     1.007825032230
         H            0.346648558080     4.027988156437    -0.352062006077     1.007825032230
         H            3.446648558080     3.136988156437    -0.223062006077     1.007825032230
         H            1.431748558080     4.639988156437     0.916817993923     1.007825032230
         H           -0.085037441920     3.723318156437     1.329067993923     1.007825032230
         H            3.116178558080     1.405318156437    -0.451002006077     1.007825032230
         H            2.302828558080     2.630158156437    -1.491432006077     1.007825032230
         C           -1.857351441920    -2.377011843563     1.692937993923    12.000000000000
         C           -0.466351441920    -0.391011843563    -1.008062006077    12.000000000000
         C           -1.239351441920    -1.873011843563     0.419937993923    12.000000000000
         C           -0.556351441920    -2.540011843563    -0.547062006077    12.000000000000
         N           -1.171351441920    -0.533011843563     0.104937993923    14.003074004430
         N           -0.078351441920    -1.591011843563    -1.428062006077    14.003074004430
         H           -0.240351441920     0.550988156437    -1.493062006077     1.007825032230
         H            0.582648558080    -1.746011843563    -2.182062006077     1.007825032230
         H           -0.360351441920    -3.604011843563    -0.569062006077     1.007825032230
         H           -2.149351441920    -3.419011843563     1.561937993923     1.007825032230
         H           -2.760351441920    -1.799011843563     1.886937993923     1.007825032230
         H           -1.174885441920    -2.286741843563     2.550897993923     1.007825032230

  Running in c1 symmetry.

  Rotational constants: A =      0.08429  B =      0.01914  C =      0.01695 [cm^-1]
  Rotational constants: A =   2527.08021  B =    573.77521  C =    508.18483 [MHz]
  Nuclear repulsion =  420.938492562509055

  Charge       = 0
  Multiplicity = 1
  Electrons    = 70
  Nalpha       = 35
  Nbeta        = 35

  ==> Algorithm <==

  SCF Algorithm Type is PK.
  DIIS enabled.
  MOM disabled.
  Fractional occupation disabled.
  Guess Type is SAD.
  Energy threshold   = 1.00e-06
  Density threshold  = 1.00e-10
  Integral threshold = 0.00e+00

  ==> Primary Basis <==

  Basis Set: CC-PVDZ
    Blend: CC-PVDZ
    Number of shells: 96
    Number of basis function: 196
    Number of Cartesian functions: 205
    Spherical Harmonics?: true
    Max angular momentum: 2

  ==> Pre-Iterations <==

   -------------------------------------------------------
    Irrep   Nso     Nmo     Nalpha   Nbeta   Ndocc  Nsocc
   -------------------------------------------------------
     A        196     196       0       0       0       0
   -------------------------------------------------------
    Total     196     196      35      35      35       0
   -------------------------------------------------------

  ==> Integral Setup <==

  Using integral reordering PK algorithm.
  Sizing the integral batches needed.
  Building batch lookup table.
   Calculation information:
      Number of atoms:                  23
      Number of AO shells:              96
      Number of primitives:            268
      Number of atomic orbitals:       205
      Number of basis functions:       196

      Integral cutoff                 1.00e-12
      Number of threads:                 1

	Batch   1 pq = [       0,    9405] index = [             0,44231715] size =     44231715
	Batch   2 pq = [    9405,   13301] index = [      44231715,88464951] size =     44233236
	Batch   3 pq = [   13301,   16290] index = [      88464951,132690195] size =     44225244
	Batch   4 pq = [   16290,   18810] index = [     132690195,176917455] size =     44227260
	Batch   5 pq = [   18810,   19306] index = [     176917455,186370471] size =      9453016
  Task number: 17
  Buffer size: 11059200
  Buffer per thread: 2
  We computed 8329623 shell quartets total.
  Whereas there are 10841496 unique shell quartets.

  ==> DiskJK: Disk-Based J/K Matrices <==

    J tasked:                  Yes
    K tasked:                  Yes
    wK tasked:                  No
    Memory [MiB]:              375
    Schwarz Cutoff:          1E-12

    OpenMP threads:              1

  Minimum eigenvalue in the overlap matrix is 1.2402947191E-03.
  Using Symmetric Orthogonalization.

  SCF Guess: Superposition of Atomic Densities via on-the-fly atomic UHF.

  ==> Iterations <==

                        Total Energy        Delta E     RMS |[F,P]|

   @RHF iter SAD:  -381.16594375457453   -3.81166e+02   0.00000e+00
   @RHF iter   1:  -381.89473157897805   -7.28788e-01   3.12421e-03 DIIS
   @RHF iter   2:  -382.09220706368649   -1.97475e-01   1.56484e-03 DIIS
   @RHF iter   3:  -382.13721176525621   -4.50047e-02   4.00390e-04 DIIS
   @RHF iter   4:  -382.14108120735591   -3.86944e-03   1.70249e-04 DIIS
   @RHF iter   5:  -382.14170972186571   -6.28515e-04   2.48905e-05 DIIS
   @RHF iter   6:  -382.14173256694761   -2.28451e-05   1.03904e-05 DIIS
   @RHF iter   7:  -382.14173626443539   -3.69749e-06   3.55456e-06 DIIS
   @RHF iter   8:  -382.14173700456990   -7.40135e-07   1.48522e-06 DIIS
   @RHF iter   9:  -382.14173716992474   -1.65355e-07   5.34640e-07 DIIS
   @RHF iter  10:  -382.14173718792830   -1.80036e-08   1.59936e-07 DIIS
   @RHF iter  11:  -382.14173718990168   -1.97338e-09   6.88873e-08 DIIS
   @RHF iter  12:  -382.14173719014974   -2.48065e-10   2.91147e-08 DIIS
   @RHF iter  13:  -382.14173719019675   -4.70095e-11   8.94877e-09 DIIS
   @RHF iter  14:  -382.14173719019936   -2.61480e-12   2.92412e-09 DIIS
   @RHF iter  15:  -382.14173719019868    6.82121e-13   1.13766e-09 DIIS
   @RHF iter  16:  -382.14173719019993   -1.25056e-12   4.22368e-10 DIIS
   @RHF iter  17:  -382.14173719020124   -1.30740e-12   1.37989e-10 DIIS
   @RHF iter  18:  -382.14173719020317   -1.93268e-12   4.30709e-11 DIIS
  Energy and wave function converged.

  ==> Post-Iterations <==

    Orbital Energies [Eh]
    ---------------------

    Doubly Occupied:

       1A    -15.621271     2A    -15.528814     3A    -11.293068
       4A    -11.251338     5A    -11.242398     6A    -11.224500
       7A    -11.218341     8A    -11.213225     9A    -11.212620
      10A     -1.341943    11A     -1.154528    12A     -1.044449
      13A     -1.031140    14A     -0.941198    15A     -0.922305
      16A     -0.817814    17A     -0.790123    18A     -0.762327
      19A     -0.741601    20A     -0.620583    21A     -0.611979
      22A     -0.601769    23A     -0.596061    24A     -0.587673
      25A     -0.553219    26A     -0.546422    27A     -0.540321
      28A     -0.530280    29A     -0.522296    30A     -0.470664
      31A     -0.461291    32A     -0.459635    33A     -0.410778
      34A     -0.379145    35A     -0.310298

    Virtual:

      36A      0.162542    37A      0.178963    38A      0.189756
      39A      0.200293    40A      0.221670    41A      0.224576
      42A      0.233185    43A      0.242692    44A      0.249963
      45A      0.259171    46A      0.279149    47A      0.288777
      48A      0.292847    49A      0.300082    50A      0.303664
      51A      0.319543    52A      0.369840    53A      0.378989
      54A      0.402659    55A      0.431159    56A      0.435658
      57A      0.479222    58A      0.484944    59A      0.573389
      60A      0.600188    61A      0.617712    62A      0.619283
      63A      0.620605    64A      0.625365    65A      0.640130
      66A      0.650755    67A      0.665691    68A      0.703322
      69A      0.731694    70A      0.749420    71A      0.766683
      72A      0.782858    73A      0.793206    74A      0.803089
      75A      0.832090    76A      0.841049    77A      0.850660
      78A      0.856482    79A      0.880088    80A      0.881552
      81A      0.890883    82A      0.895059    83A      0.901791
      84A      0.903110    85A      0.907104    86A      0.912105
      87A      0.920198    88A      0.940151    89A      0.951318
      90A      0.965350    91A      0.970753    92A      0.978267
      93A      1.009327    94A      1.032677    95A      1.069935
      96A      1.084806    97A      1.103684    98A      1.123601
      99A      1.136495   100A      1.144060   101A      1.154836
     102A      1.180546   103A      1.245441   104A      1.262968
     105A      1.287781   106A      1.309339   107A      1.327655
     108A      1.361816   109A      1.377853   110A      1.431606
     111A      1.443525   112A      1.475723   113A      1.479004
     114A      1.498830   115A      1.509064   116A      1.526976
     117A      1.573469   118A      1.597017   119A      1.636017
     120A      1.646580   121A      1.673930   122A      1.683915
     123A      1.691088   124A      1.692573   125A      1.702785
     126A      1.780458   127A      1.805714   128A      1.823407
     129A      1.854638   130A      1.857556   131A      1.869587
     132A      1.885882   133A      1.897951   134A      1.915334
     135A      1.919700   136A      1.923088   137A      1.943184
     138A      1.953418   139A      1.957550   140A      1.960258
     141A      1.969226   142A      1.972483   143A      1.978485
     144A      1.991993   145A      2.009168   146A      2.012482
     147A      2.028185   148A      2.056576   149A      2.075777
     150A      2.096335   151A      2.124009   152A      2.145434
     153A      2.166974   154A      2.190566   155A      2.221306
     156A      2.227488   157A      2.277211   158A      2.286293
     159A      2.295657   160A      2.326950   161A      2.330502
     162A      2.343871   163A      2.367243   164A      2.430774
     165A      2.458346   166A      2.490280   167A      2.514233
     168A      2.534563   169A      2.554304   170A      2.594551
     171A      2.602898   172A      2.619808   173A      2.628587
     174A      2.692510   175A      2.730200   176A      2.739118
     177A      2.748270   178A      2.754637   179A      2.778654
     180A      2.784046   181A      2.789922   182A      2.803247
     183A      2.837391   184A      2.852014   185A      2.891003
     186A      2.929615   187A      2.938601   188A      2.963259
     189A      2.966526   190A      2.970988   191A      3.061160
     192A      3.085165   193A      3.160695   194A      3.237599
     195A      3.467572   196A      3.784930

    Final Occupation by Irrep:
              A
    DOCC [    35 ]

  @RHF Final Energy:  -382.14173719020317

   => Energetics <=

    Nuclear Repulsion Energy =            420.9384925625090546
    One-Electron Energy =               -1351.0496300174991120
    Two-Electron Energy =                 547.9694002647868274
    Total Energy =                       -382.1417371902032301

Computation Completed

Properties will be evaluated at   0.000000,   0.000000,   0.000000 [a0]

Properties computed using the SCF density matrix

  Nuclear Dipole Moment: [e a0]
     X:     6.7765      Y:    10.5395      Z:     3.1451

  Electronic Dipole Moment: [e a0]
     X:    -6.0487      Y:   -11.2424      Z:    -3.9872

  Dipole Moment: [e a0]
     X:     0.7278      Y:    -0.7029      Z:    -0.8420     Total:     1.3164

  Dipole Moment: [D]
     X:     1.8499      Y:    -1.7867      Z:    -2.1403     Total:     3.3459

*** tstop() called on ds3 at Mon Apr 27 13:21:01 2020
Module time:
	user time   =      60.82 seconds =       1.01 minutes
	system time =      32.51 seconds =       0.54 minutes
	total time  =         88 seconds =       1.47 minutes
Total time:
	user time   =      60.82 seconds =       1.01 minutes
	system time =      32.51 seconds =       0.54 minutes
	total time  =         88 seconds =       1.47 minutes
                                     G D M A

                                 by Anthony Stone

                           version 2.2.06, 22 June 2011

               Distributed Multipoles from Gaussian wavefunctions

Starting at 13:21:2 on 27 Apr 2020

Using SCF density matrix from file ./SSI/SSI-004LEU-032HIE-1-dimer.test.6183.fchk

                         Distributed Multipole Analysis

Standard DMA

Positions and radii in angstrom
Multipole moments in atomic units, ea_0^k for rank k

C          x =  1.534649  y =  2.489988  z =  0.549938 angstrom
           Maximum rank =  0   Radius =  0.650 angstrom
                   Q00  =  -0.081221

C          x =  0.762649  y =  3.813988  z =  0.633938 angstrom
           Maximum rank =  0   Radius =  0.650 angstrom
                   Q00  =  -0.240583

C          x =  2.673649  y =  2.411988  z = -0.479062 angstrom
           Maximum rank =  0   Radius =  0.650 angstrom
                   Q00  =  -0.250688

H          x =  1.949649  y =  2.275988  z =  1.536938 angstrom
           Maximum rank =  0   Radius =  0.325 angstrom
                   Q00  =   0.045884

H          x =  0.818649  y =  1.699988  z =  0.329938 angstrom
           Maximum rank =  0   Radius =  0.325 angstrom
                   Q00  =   0.055674

H          x =  0.346649  y =  4.027988  z = -0.352062 angstrom
           Maximum rank =  0   Radius =  0.325 angstrom
                   Q00  =   0.069474

H          x =  3.446649  y =  3.136988  z = -0.223062 angstrom
           Maximum rank =  0   Radius =  0.325 angstrom
                   Q00  =   0.079821

H          x =  1.431749  y =  4.639988  z =  0.916818 angstrom
           Maximum rank =  0   Radius =  0.325 angstrom
                   Q00  =   0.074167

H          x = -0.085037  y =  3.723318  z =  1.329068 angstrom
           Maximum rank =  0   Radius =  0.325 angstrom
                   Q00  =   0.094171

H          x =  3.116179  y =  1.405318  z = -0.451002 angstrom
           Maximum rank =  0   Radius =  0.325 angstrom
                   Q00  =   0.081464

H          x =  2.302829  y =  2.630158  z = -1.491432 angstrom
           Maximum rank =  0   Radius =  0.325 angstrom
                   Q00  =   0.069205

C          x = -1.857351  y = -2.377012  z =  1.692938 angstrom
           Maximum rank =  0   Radius =  0.650 angstrom
                   Q00  =  -0.195104

C          x = -0.466351  y = -0.391012  z = -1.008062 angstrom
           Maximum rank =  0   Radius =  0.650 angstrom
                   Q00  =   0.466985

C          x = -1.239351  y = -1.873012  z =  0.419938 angstrom
           Maximum rank =  0   Radius =  0.650 angstrom
                   Q00  =   0.225633

C          x = -0.556351  y = -2.540012  z = -0.547062 angstrom
           Maximum rank =  0   Radius =  0.650 angstrom
                   Q00  =  -0.001628

N          x = -1.171351  y = -0.533012  z =  0.104938 angstrom
           Maximum rank =  0   Radius =  0.650 angstrom
                   Q00  =  -0.774298

N          x = -0.078351  y = -1.591012  z = -1.428062 angstrom
           Maximum rank =  0   Radius =  0.650 angstrom
                   Q00  =  -0.479756

H          x = -0.240351  y =  0.550988  z = -1.493062 angstrom
           Maximum rank =  0   Radius =  0.325 angstrom
                   Q00  =   0.123634

H          x =  0.582649  y = -1.746012  z = -2.182062 angstrom
           Maximum rank =  0   Radius =  0.325 angstrom
                   Q00  =   0.220035

H          x = -0.360351  y = -3.604012  z = -0.569062 angstrom
           Maximum rank =  0   Radius =  0.325 angstrom
                   Q00  =   0.101268

H          x = -2.149351  y = -3.419012  z =  1.561938 angstrom
           Maximum rank =  0   Radius =  0.325 angstrom
                   Q00  =   0.093182

H          x = -2.760351  y = -1.799012  z =  1.886938 angstrom
           Maximum rank =  0   Radius =  0.325 angstrom
                   Q00  =   0.117075

H          x = -1.174885  y = -2.286742  z =  2.550898 angstrom
           Maximum rank =  0   Radius =  0.325 angstrom
                   Q00  =   0.105606

Total multipoles referred to origin at
           x =   0.000000,  y =    0.000000,  z =    0.000000 angstrom
                   Q00  =  -0.000000

Finished at 13:21:2 on 27 Apr 2020

  DMA results are available in the Python driver through the
	  variable('DMA DISTRIBUTED MULTIPOLES')
  and
	  variable('DMA TOTAL MULTIPOLES')
  commands.

    Psi4 stopped on: Monday, 27 April 2020 01:21PM
    Psi4 wall time for execution: 0:01:28.54

*** Psi4 exiting successfully. Buy a developer a beer!
