                               Psi4 1.3.2 release

  ==> Input File <==

--------------------------------------------------------------------------
import numpy as np
set {scf_type pk
basis cc-pvdz
d_convergence 10
gdma_switch   0
gdma_limit    0
gdma_origin   [ 0.0,  0.0,  0.0 ]
}
molecule test {
    units Angstrom
    0 1
    --
    0 1
    C               -3.376419205267428    -2.761068657587847    -2.711077762665613
    C               -0.148419205267428    -0.753068657587847    -2.633077762665613
    C               -0.420419205267428     0.248931342412153    -3.566077762665613
    C               -1.088419205267428    -1.720068657587847    -2.359077762665613
    C               -2.322419205267428    -1.728068657587847    -3.013077762665613
    C               -1.664419205267428     0.295931342412153    -4.169077762665613
    C               -2.621419205267428    -0.685068657587847    -3.881077762665613
    H                0.819580794732572    -0.784068657587847    -2.151077762665613
    H                0.325580794732572     0.998931342412153    -3.793077762665613
    H               -0.765419205267428    -2.502068657587847    -1.709077762665613
    H               -1.893419205267428     1.086931342412153    -4.871077762665613
    H               -3.763419205267428    -3.098068657587847    -3.673077762665613
    H               -4.193419205267428    -2.278068657587847    -2.176077762665613
    H               -3.588419205267428    -0.644068657587847    -4.365077762665613
    H               -3.017369205267428    -3.641849657587847    -2.158527762665613
    C                0.248580794732572    -2.086068657587847     2.550922237334387
    C                0.947580794732572     0.402931342412153     2.034922237334387
    C                0.932580794732572    -0.765068657587847     2.868922237334387
    C                1.710580794732572     1.393931342412153     2.703922237334387
    C                1.650580794732572    -0.430068657587847     4.001922237334387
    C                0.415580794732572     0.706931342412153     0.764922237334387
    C                0.620580794732572     1.974931342412153     0.229922237334387
    C                1.362580794732572     2.933931342412153     0.912922237334387
    C                1.905580794732572     2.659931342412153     2.167922237334387
    N                2.115580794732572     0.861931342412153     3.900922237334387
    H               -0.157419205267428    -0.032068657587847     0.222922237334387
    H                0.207580794732572     2.213931342412153    -0.742077762665613
    H                1.517580794732572     3.907931342412153     0.464922237334387
    H               -0.087419205267428    -2.031068657587847     1.515922237334387
    H               -0.638419205267428    -2.187068657587847     3.175922237334387
    H                1.816580794732572    -1.072068657587847     4.858922237334387
    H                2.629580794732572     1.353931342412153     4.627922237334388
    H                2.490580794732572     3.400931342412153     2.690922237334387
    H                0.903370794732572    -2.963899657587847     2.654192237334387

}
e, wfn = energy('scf', return_wfn=True)
gdma(wfn)
dmavals = variable('DMA DISTRIBUTED MULTIPOLES')
charges = np.array(dmavals)
print(charges)
np.save('SSI-026PHE-030TRP-1-dimer.npy', np.array(charges))--------------------------------------------------------------------------

*** tstart() called on ds3
*** at Mon Apr 27 00:41:53 2020

   => Loading Basis Set <=

    Name: CC-PVDZ
    Role: ORBITAL
    Keyword: BASIS
    atoms 1-7, 16-24  entry C          line   138 file /theoryfs2/ds/metcalf/miniconda2/envs/tf2gpu/share/psi4/basis/cc-pvdz.gbs
    atoms 8-15, 26-34 entry H          line    22 file /theoryfs2/ds/metcalf/miniconda2/envs/tf2gpu/share/psi4/basis/cc-pvdz.gbs
    atoms 25          entry N          line   168 file /theoryfs2/ds/metcalf/miniconda2/envs/tf2gpu/share/psi4/basis/cc-pvdz.gbs

         ---------------------------------------------------------
                                   SCF
               by Justin Turney, Rob Parrish, Andy Simmonett
                          and Daniel G. A. Smith
                              RHF Reference
                        1 Threads,    500 MiB Core
         ---------------------------------------------------------

  ==> Geometry <==

    Molecular point group: c1
    Full point group: C1

    Geometry (in Angstrom), charge = 0, multiplicity = 1:

       Center              X                  Y                   Z               Mass
    ------------   -----------------  -----------------  -----------------  -----------------
         C           -3.376419205267    -2.761068657588    -2.711077762666    12.000000000000
         C           -0.148419205267    -0.753068657588    -2.633077762666    12.000000000000
         C           -0.420419205267     0.248931342412    -3.566077762666    12.000000000000
         C           -1.088419205267    -1.720068657588    -2.359077762666    12.000000000000
         C           -2.322419205267    -1.728068657588    -3.013077762666    12.000000000000
         C           -1.664419205267     0.295931342412    -4.169077762666    12.000000000000
         C           -2.621419205267    -0.685068657588    -3.881077762666    12.000000000000
         H            0.819580794733    -0.784068657588    -2.151077762666     1.007825032230
         H            0.325580794733     0.998931342412    -3.793077762666     1.007825032230
         H           -0.765419205267    -2.502068657588    -1.709077762666     1.007825032230
         H           -1.893419205267     1.086931342412    -4.871077762666     1.007825032230
         H           -3.763419205267    -3.098068657588    -3.673077762666     1.007825032230
         H           -4.193419205267    -2.278068657588    -2.176077762666     1.007825032230
         H           -3.588419205267    -0.644068657588    -4.365077762666     1.007825032230
         H           -3.017369205267    -3.641849657588    -2.158527762666     1.007825032230
         C            0.248580794733    -2.086068657588     2.550922237334    12.000000000000
         C            0.947580794733     0.402931342412     2.034922237334    12.000000000000
         C            0.932580794733    -0.765068657588     2.868922237334    12.000000000000
         C            1.710580794733     1.393931342412     2.703922237334    12.000000000000
         C            1.650580794733    -0.430068657588     4.001922237334    12.000000000000
         C            0.415580794733     0.706931342412     0.764922237334    12.000000000000
         C            0.620580794733     1.974931342412     0.229922237334    12.000000000000
         C            1.362580794733     2.933931342412     0.912922237334    12.000000000000
         C            1.905580794733     2.659931342412     2.167922237334    12.000000000000
         N            2.115580794733     0.861931342412     3.900922237334    14.003074004430
         H           -0.157419205267    -0.032068657588     0.222922237334     1.007825032230
         H            0.207580794733     2.213931342412    -0.742077762666     1.007825032230
         H            1.517580794733     3.907931342412     0.464922237334     1.007825032230
         H           -0.087419205267    -2.031068657588     1.515922237334     1.007825032230
         H           -0.638419205267    -2.187068657588     3.175922237334     1.007825032230
         H            1.816580794733    -1.072068657588     4.858922237334     1.007825032230
         H            2.629580794733     1.353931342412     4.627922237334     1.007825032230
         H            2.490580794733     3.400931342412     2.690922237334     1.007825032230
         H            0.903370794733    -2.963899657588     2.654192237334     1.007825032230

  Running in c1 symmetry.

  Rotational constants: A =      0.02757  B =      0.00665  C =      0.00556 [cm^-1]
  Rotational constants: A =    826.57400  B =    199.47409  C =    166.73720 [MHz]
  Nuclear repulsion = 1039.716722062368945

  Charge       = 0
  Multiplicity = 1
  Electrons    = 120
  Nalpha       = 60
  Nbeta        = 60

  ==> Algorithm <==

  SCF Algorithm Type is PK.
  DIIS enabled.
  MOM disabled.
  Fractional occupation disabled.
  Guess Type is SAD.
  Energy threshold   = 1.00e-06
  Density threshold  = 1.00e-10
  Integral threshold = 0.00e+00

  ==> Primary Basis <==

  Basis Set: CC-PVDZ
    Blend: CC-PVDZ
    Number of shells: 153
    Number of basis function: 323
    Number of Cartesian functions: 340
    Spherical Harmonics?: true
    Max angular momentum: 2

  ==> Pre-Iterations <==

   -------------------------------------------------------
    Irrep   Nso     Nmo     Nalpha   Nbeta   Ndocc  Nsocc
   -------------------------------------------------------
     A        323     323       0       0       0       0
   -------------------------------------------------------
    Total     323     323      60      60      60       0
   -------------------------------------------------------

  ==> Integral Setup <==

  Using integral reordering PK algorithm.
  Sizing the integral batches needed.
  Building batch lookup table.
   Calculation information:
      Number of atoms:                  34
      Number of AO shells:             153
      Number of primitives:            459
      Number of atomic orbitals:       340
      Number of basis functions:       323

      Integral cutoff                 1.00e-12
      Number of threads:                 1

	Batch   1 pq = [       0,    9405] index = [             0,44231715] size =     44231715
	Batch   2 pq = [    9405,   13301] index = [      44231715,88464951] size =     44233236
	Batch   3 pq = [   13301,   16290] index = [      88464951,132690195] size =     44225244
	Batch   4 pq = [   16290,   18810] index = [     132690195,176917455] size =     44227260
	Batch   5 pq = [   18810,   21030] index = [     176917455,221140965] size =     44223510
	Batch   6 pq = [   21030,   23037] index = [     221140965,265363203] size =     44222238
	Batch   7 pq = [   23037,   24883] index = [     265363203,309594286] size =     44231083
	Batch   8 pq = [   24883,   26601] index = [     309594286,353819901] size =     44225615
	Batch   9 pq = [   26601,   28214] index = [     353819901,398029005] size =     44209104
	Batch  10 pq = [   28214,   29740] index = [     398029005,442248670] size =     44219665
	Batch  11 pq = [   29740,   31191] index = [     442248670,486454836] size =     44206166
	Batch  12 pq = [   31191,   32578] index = [     486454836,530679331] size =     44224495
	Batch  13 pq = [   32578,   33908] index = [     530679331,574893186] size =     44213855
	Batch  14 pq = [   33908,   35188] index = [     574893186,619115266] size =     44222080
	Batch  15 pq = [   35188,   36423] index = [     619115266,663335676] size =     44220410
	Batch  16 pq = [   36423,   37617] index = [     663335676,707538153] size =     44202477
	Batch  17 pq = [   37617,   38775] index = [     707538153,751769700] size =     44231547
	Batch  18 pq = [   38775,   39899] index = [     751769700,795985050] size =     44215350
	Batch  19 pq = [   39899,   40992] index = [     795985050,840192528] size =     44207478
	Batch  20 pq = [   40992,   42057] index = [     840192528,884416653] size =     44224125
	Batch  21 pq = [   42057,   43095] index = [     884416653,928611060] size =     44194407
	Batch  22 pq = [   43095,   44109] index = [     928611060,972823995] size =     44212935
	Batch  23 pq = [   44109,   45100] index = [     972823995,1017027550] size =     44203555
	Batch  24 pq = [   45100,   46070] index = [    1017027550,1061245485] size =     44217935
	Batch  25 pq = [   46070,   47020] index = [    1061245485,1105463710] size =     44218225
	Batch  26 pq = [   47020,   47951] index = [    1105463710,1149673176] size =     44209466
	Batch  27 pq = [   47951,   48864] index = [    1149673176,1193869680] size =     44196504
	Batch  28 pq = [   48864,   49761] index = [    1193869680,1238103441] size =     44233761
	Batch  29 pq = [   49761,   50642] index = [    1238103441,1282331403] size =     44227962
	Batch  30 pq = [   50642,   51508] index = [    1282331403,1326562786] size =     44231383
	Batch  31 pq = [   51508,   52326] index = [    1326562786,1369031301] size =     42468515
  Task number: 124
  Buffer size: 11059200
  Buffer per thread: 2
  We computed 63191875 shell quartets total.
  Whereas there are 69401871 unique shell quartets.

  ==> DiskJK: Disk-Based J/K Matrices <==

    J tasked:                  Yes
    K tasked:                  Yes
    wK tasked:                  No
    Memory [MiB]:              375
    Schwarz Cutoff:          1E-12

    OpenMP threads:              1

  Minimum eigenvalue in the overlap matrix is 2.3591877737E-04.
  Using Symmetric Orthogonalization.

  SCF Guess: Superposition of Atomic Densities via on-the-fly atomic UHF.

  ==> Iterations <==

                        Total Energy        Delta E     RMS |[F,P]|

   @RHF iter SAD:  -669.48343047481080   -6.69483e+02   0.00000e+00
   @RHF iter   1:  -669.94696736873448   -4.63537e-01   2.14655e-03 DIIS
   @RHF iter   2:  -670.23720643783770   -2.90239e-01   9.35592e-04 DIIS
   @RHF iter   3:  -670.28577612916683   -4.85697e-02   2.55259e-04 DIIS
   @RHF iter   4:  -670.29042815396303   -4.65202e-03   1.13738e-04 DIIS
   @RHF iter   5:  -670.29118317791313   -7.55024e-04   1.70147e-05 DIIS
   @RHF iter   6:  -670.29121637637672   -3.31985e-05   7.75373e-06 DIIS
   @RHF iter   7:  -670.29122355399568   -7.17762e-06   3.02626e-06 DIIS
   @RHF iter   8:  -670.29122541847028   -1.86447e-06   1.31428e-06 DIIS
   @RHF iter   9:  -670.29122583775666   -4.19286e-07   5.80138e-07 DIIS
   @RHF iter  10:  -670.29122592642375   -8.86671e-08   2.54187e-07 DIIS
   @RHF iter  11:  -670.29122594710191   -2.06782e-08   9.88987e-08 DIIS
   @RHF iter  12:  -670.29122594988939   -2.78749e-09   4.04050e-08 DIIS
   @RHF iter  13:  -670.29122595017691   -2.87514e-10   1.10978e-08 DIIS
   @RHF iter  14:  -670.29122595021443   -3.75167e-11   4.63222e-09 DIIS
   @RHF iter  15:  -670.29122595020840    6.02540e-12   1.98138e-09 DIIS
   @RHF iter  16:  -670.29122595020613    2.27374e-12   8.93918e-10 DIIS
   @RHF iter  17:  -670.29122595020988   -3.75167e-12   4.42134e-10 DIIS
   @RHF iter  18:  -670.29122595020488    5.00222e-12   1.62384e-10 DIIS
   @RHF iter  19:  -670.29122595021340   -8.52651e-12   6.53610e-11 DIIS
  Energy and wave function converged.

  ==> Post-Iterations <==

    Orbital Energies [Eh]
    ---------------------

    Doubly Occupied:

       1A    -15.601275     2A    -11.265045     3A    -11.260471
       4A    -11.241215     5A    -11.234741     6A    -11.230887
       7A    -11.229355     8A    -11.229065     9A    -11.227993
      10A    -11.227887    11A    -11.227853    12A    -11.226219
      13A    -11.225743    14A    -11.225348    15A    -11.220424
      16A    -11.219282    17A    -11.216425    18A     -1.291319
      19A     -1.153009    20A     -1.124333    21A     -1.066190
      22A     -1.043711    23A     -1.012167    24A     -0.993104
      25A     -0.981881    26A     -0.930927    27A     -0.928725
      28A     -0.836707    29A     -0.822080    30A     -0.798707
      31A     -0.796255    32A     -0.750452    33A     -0.717044
      34A     -0.690101    35A     -0.656781    36A     -0.639072
      37A     -0.631144    38A     -0.627916    39A     -0.599631
      40A     -0.588831    41A     -0.587387    42A     -0.581095
      43A     -0.576832    44A     -0.564795    45A     -0.561751
      46A     -0.552969    47A     -0.536041    48A     -0.532668
      49A     -0.520756    50A     -0.489937    51A     -0.486565
      52A     -0.482834    53A     -0.479725    54A     -0.469564
      55A     -0.457998    56A     -0.369285    57A     -0.331867
      58A     -0.319969    59A     -0.294361    60A     -0.268117

    Virtual:

      61A      0.124167    62A      0.136955    63A      0.140704
      64A      0.171900    65A      0.175552    66A      0.182004
      67A      0.196365    68A      0.199821    69A      0.211642
      70A      0.216057    71A      0.220878    72A      0.229741
      73A      0.243615    74A      0.253603    75A      0.261602
      76A      0.265928    77A      0.272342    78A      0.277739
      79A      0.287597    80A      0.294289    81A      0.310864
      82A      0.343512    83A      0.369483    84A      0.371692
      85A      0.381767    86A      0.387710    87A      0.403080
      88A      0.428239    89A      0.444812    90A      0.456962
      91A      0.461611    92A      0.471921    93A      0.477228
      94A      0.486389    95A      0.500564    96A      0.506683
      97A      0.528262    98A      0.560801    99A      0.591365
     100A      0.606139   101A      0.622434   102A      0.636177
     103A      0.640790   104A      0.644583   105A      0.660510
     106A      0.679509   107A      0.692516   108A      0.697271
     109A      0.700920   110A      0.704236   111A      0.706255
     112A      0.722464   113A      0.726682   114A      0.730780
     115A      0.736981   116A      0.739299   117A      0.743133
     118A      0.745485   119A      0.752448   120A      0.754715
     121A      0.760098   122A      0.764877   123A      0.772806
     124A      0.775371   125A      0.777745   126A      0.790789
     127A      0.793968   128A      0.801751   129A      0.812487
     130A      0.832048   131A      0.842786   132A      0.856152
     133A      0.867692   134A      0.867897   135A      0.873517
     136A      0.880705   137A      0.888980   138A      0.894027
     139A      0.898909   140A      0.899721   141A      0.903922
     142A      0.911170   143A      0.917366   144A      0.926319
     145A      0.935812   146A      0.939519   147A      0.942462
     148A      0.951540   149A      0.973743   150A      0.981791
     151A      0.995934   152A      1.005847   153A      1.011302
     154A      1.024526   155A      1.032258   156A      1.047407
     157A      1.056455   158A      1.082305   159A      1.094958
     160A      1.121574   161A      1.129005   162A      1.136908
     163A      1.143130   164A      1.143900   165A      1.150475
     166A      1.164156   167A      1.167327   168A      1.198115
     169A      1.208504   170A      1.214794   171A      1.217435
     172A      1.230906   173A      1.238640   174A      1.241984
     175A      1.252734   176A      1.256897   177A      1.265274
     178A      1.268451   179A      1.280793   180A      1.287072
     181A      1.291575   182A      1.301049   183A      1.313031
     184A      1.327037   185A      1.333119   186A      1.335483
     187A      1.357432   188A      1.363164   189A      1.372671
     190A      1.421804   191A      1.448691   192A      1.461693
     193A      1.512581   194A      1.522075   195A      1.535854
     196A      1.549779   197A      1.559963   198A      1.578265
     199A      1.599887   200A      1.604582   201A      1.628014
     202A      1.641628   203A      1.661371   204A      1.666596
     205A      1.686498   206A      1.689580   207A      1.700504
     208A      1.739421   209A      1.740294   210A      1.747866
     211A      1.748022   212A      1.766212   213A      1.772187
     214A      1.785607   215A      1.799841   216A      1.812951
     217A      1.815415   218A      1.826333   219A      1.835676
     220A      1.849084   221A      1.876318   222A      1.883240
     223A      1.892348   224A      1.896714   225A      1.900875
     226A      1.908835   227A      1.913301   228A      1.916214
     229A      1.920965   230A      1.923048   231A      1.936724
     232A      1.949536   233A      1.952971   234A      1.961245
     235A      1.964523   236A      1.965771   237A      1.978533
     238A      1.984259   239A      1.999426   240A      2.007927
     241A      2.013108   242A      2.018023   243A      2.026177
     244A      2.033394   245A      2.063214   246A      2.069867
     247A      2.079329   248A      2.085646   249A      2.095693
     250A      2.101032   251A      2.108927   252A      2.120448
     253A      2.133452   254A      2.140587   255A      2.144974
     256A      2.164555   257A      2.169092   258A      2.175862
     259A      2.178141   260A      2.181283   261A      2.196145
     262A      2.200854   263A      2.238110   264A      2.244708
     265A      2.258835   266A      2.277353   267A      2.278611
     268A      2.285183   269A      2.306218   270A      2.307254
     271A      2.312738   272A      2.338774   273A      2.349737
     274A      2.364864   275A      2.375787   276A      2.394486
     277A      2.407948   278A      2.454912   279A      2.459069
     280A      2.470083   281A      2.486997   282A      2.512254
     283A      2.529123   284A      2.537718   285A      2.580776
     286A      2.588651   287A      2.620583   288A      2.639256
     289A      2.662903   290A      2.679189   291A      2.732861
     292A      2.734191   293A      2.745263   294A      2.772264
     295A      2.777178   296A      2.779676   297A      2.785011
     298A      2.794878   299A      2.799808   300A      2.814741
     301A      2.827470   302A      2.843497   303A      2.845299
     304A      2.865970   305A      2.872818   306A      2.920578
     307A      2.966859   308A      2.992904   309A      3.001958
     310A      3.023071   311A      3.044784   312A      3.051869
     313A      3.071155   314A      3.116525   315A      3.166519
     316A      3.204677   317A      3.215251   318A      3.291299
     319A      3.307607   320A      3.366095   321A      3.731129
     322A      3.948438   323A      3.972368

    Final Occupation by Irrep:
              A
    DOCC [    60 ]

  @RHF Final Energy:  -670.29122595021340

   => Energetics <=

    Nuclear Repulsion Energy =           1039.7167220623689445
    One-Electron Energy =               -2971.1082384579299287
    Two-Electron Energy =                1261.1002904453475821
    Total Energy =                       -670.2912259502134020

Computation Completed

Properties will be evaluated at   0.000000,   0.000000,   0.000000 [a0]

Properties computed using the SCF density matrix

  Nuclear Dipole Moment: [e a0]
     X:    -6.9381      Y:    -7.7570      Z:    -5.0994

  Electronic Dipole Moment: [e a0]
     X:     7.1395      Y:     7.6095      Z:     5.7749

  Dipole Moment: [e a0]
     X:     0.2014      Y:    -0.1475      Z:     0.6754     Total:     0.7201

  Dipole Moment: [D]
     X:     0.5119      Y:    -0.3749      Z:     1.7168     Total:     1.8303

*** tstop() called on ds3 at Mon Apr 27 03:24:23 2020
Module time:
	user time   =     584.13 seconds =       9.74 minutes
	system time =     285.08 seconds =       4.75 minutes
	total time  =       9750 seconds =     162.50 minutes
Total time:
	user time   =     584.13 seconds =       9.74 minutes
	system time =     285.08 seconds =       4.75 minutes
	total time  =       9750 seconds =     162.50 minutes
                                     G D M A

                                 by Anthony Stone

                           version 2.2.06, 22 June 2011

               Distributed Multipoles from Gaussian wavefunctions

Starting at 3:24:23 on 27 Apr 2020

Using SCF density matrix from file ./SSI/SSI-026PHE-030TRP-1-dimer.test.10549.fchk

                         Distributed Multipole Analysis

Standard DMA

Positions and radii in angstrom
Multipole moments in atomic units, ea_0^k for rank k

C          x = -3.376419  y = -2.761069  z = -2.711078 angstrom
           Maximum rank =  0   Radius =  0.650 angstrom
                   Q00  =  -0.205845

C          x = -0.148419  y = -0.753069  z = -2.633078 angstrom
           Maximum rank =  0   Radius =  0.650 angstrom
                   Q00  =  -0.043430

C          x = -0.420419  y =  0.248931  z = -3.566078 angstrom
           Maximum rank =  0   Radius =  0.650 angstrom
                   Q00  =  -0.086037

C          x = -1.088419  y = -1.720069  z = -2.359078 angstrom
           Maximum rank =  0   Radius =  0.650 angstrom
                   Q00  =  -0.018415

C          x = -2.322419  y = -1.728069  z = -3.013078 angstrom
           Maximum rank =  0   Radius =  0.650 angstrom
                   Q00  =  -0.082189

C          x = -1.664419  y =  0.295931  z = -4.169078 angstrom
           Maximum rank =  0   Radius =  0.650 angstrom
                   Q00  =  -0.074864

C          x = -2.621419  y = -0.685069  z = -3.881078 angstrom
           Maximum rank =  0   Radius =  0.650 angstrom
                   Q00  =  -0.099812

H          x =  0.819581  y = -0.784069  z = -2.151078 angstrom
           Maximum rank =  0   Radius =  0.325 angstrom
                   Q00  =   0.069947

H          x =  0.325581  y =  0.998931  z = -3.793078 angstrom
           Maximum rank =  0   Radius =  0.325 angstrom
                   Q00  =   0.062284

H          x = -0.765419  y = -2.502069  z = -1.709078 angstrom
           Maximum rank =  0   Radius =  0.325 angstrom
                   Q00  =   0.055814

H          x = -1.893419  y =  1.086931  z = -4.871078 angstrom
           Maximum rank =  0   Radius =  0.325 angstrom
                   Q00  =   0.064752

H          x = -3.763419  y = -3.098069  z = -3.673078 angstrom
           Maximum rank =  0   Radius =  0.325 angstrom
                   Q00  =   0.096677

H          x = -4.193419  y = -2.278069  z = -2.176078 angstrom
           Maximum rank =  0   Radius =  0.325 angstrom
                   Q00  =   0.105278

H          x = -3.588419  y = -0.644069  z = -4.365078 angstrom
           Maximum rank =  0   Radius =  0.325 angstrom
                   Q00  =   0.055409

H          x = -3.017369  y = -3.641850  z = -2.158528 angstrom
           Maximum rank =  0   Radius =  0.325 angstrom
                   Q00  =   0.101422

C          x =  0.248581  y = -2.086069  z =  2.550922 angstrom
           Maximum rank =  0   Radius =  0.650 angstrom
                   Q00  =  -0.219488

C          x =  0.947581  y =  0.402931  z =  2.034922 angstrom
           Maximum rank =  0   Radius =  0.650 angstrom
                   Q00  =  -0.043362

C          x =  0.932581  y = -0.765069  z =  2.868922 angstrom
           Maximum rank =  0   Radius =  0.650 angstrom
                   Q00  =  -0.136183

C          x =  1.710581  y =  1.393931  z =  2.703922 angstrom
           Maximum rank =  0   Radius =  0.650 angstrom
                   Q00  =   0.240396

C          x =  1.650581  y = -0.430069  z =  4.001922 angstrom
           Maximum rank =  0   Radius =  0.650 angstrom
                   Q00  =   0.073159

C          x =  0.415581  y =  0.706931  z =  0.764922 angstrom
           Maximum rank =  0   Radius =  0.650 angstrom
                   Q00  =  -0.102073

C          x =  0.620581  y =  1.974931  z =  0.229922 angstrom
           Maximum rank =  0   Radius =  0.650 angstrom
                   Q00  =  -0.068129

C          x =  1.362581  y =  2.933931  z =  0.912922 angstrom
           Maximum rank =  0   Radius =  0.650 angstrom
                   Q00  =  -0.028161

C          x =  1.905581  y =  2.659931  z =  2.167922 angstrom
           Maximum rank =  0   Radius =  0.650 angstrom
                   Q00  =  -0.123333

N          x =  2.115581  y =  0.861931  z =  3.900922 angstrom
           Maximum rank =  0   Radius =  0.650 angstrom
                   Q00  =  -0.496751

H          x = -0.157419  y = -0.032069  z =  0.222922 angstrom
           Maximum rank =  0   Radius =  0.325 angstrom
                   Q00  =   0.073209

H          x =  0.207581  y =  2.213931  z = -0.742078 angstrom
           Maximum rank =  0   Radius =  0.325 angstrom
                   Q00  =   0.060663

H          x =  1.517581  y =  3.907931  z =  0.464922 angstrom
           Maximum rank =  0   Radius =  0.325 angstrom
                   Q00  =   0.062170

H          x = -0.087419  y = -2.031069  z =  1.515922 angstrom
           Maximum rank =  0   Radius =  0.325 angstrom
                   Q00  =   0.106819

H          x = -0.638419  y = -2.187069  z =  3.175922 angstrom
           Maximum rank =  0   Radius =  0.325 angstrom
                   Q00  =   0.104421

H          x =  1.816581  y = -1.072069  z =  4.858922 angstrom
           Maximum rank =  0   Radius =  0.325 angstrom
                   Q00  =   0.098635

H          x =  2.629581  y =  1.353931  z =  4.627922 angstrom
           Maximum rank =  0   Radius =  0.325 angstrom
                   Q00  =   0.219483

H          x =  2.490581  y =  3.400931  z =  2.690922 angstrom
           Maximum rank =  0   Radius =  0.325 angstrom
                   Q00  =   0.072154

H          x =  0.903371  y = -2.963900  z =  2.654192 angstrom
           Maximum rank =  0   Radius =  0.325 angstrom
                   Q00  =   0.105380

Total multipoles referred to origin at
           x =   0.000000,  y =    0.000000,  z =    0.000000 angstrom
                   Q00  =  -0.000000

Finished at 3:24:23 on 27 Apr 2020

  DMA results are available in the Python driver through the
	  variable('DMA DISTRIBUTED MULTIPOLES')
  and
	  variable('DMA TOTAL MULTIPOLES')
  commands.

    Psi4 stopped on: Monday, 27 April 2020 03:24AM
    Psi4 wall time for execution: 2:42:30.08

*** Psi4 exiting successfully. Buy a developer a beer!
