                               Psi4 1.3.2 release

  ==> Input File <==

--------------------------------------------------------------------------
import numpy as np
set {scf_type pk
basis cc-pvdz
d_convergence 10
gdma_switch   0
gdma_limit    0
gdma_origin   [ 0.0,  0.0,  0.0 ]
}
molecule test {
    units Angstrom
    1 1
    --
    1 1
    C                3.115167761640638    -0.699300095887083    -0.725307079200286
    C                1.352167761640638     0.935699904112917    -1.179307079200286
    N                2.114167761640638    -0.045300095887083    -1.568307079200286
    N                0.520167761640638     1.488699904112917    -2.033307079200286
    N                1.412167761640638     1.354699904112917     0.036692920799714
    H                2.043167761640638    -0.342300095887083    -2.531307079200286
    H                0.472167761640638     1.160699904112917    -2.984307079200286
    H               -0.108832238359362     2.213699904112917    -1.728307079200286
    H                2.039167761640638     0.920699904112917     0.688692920799714
    H                0.813167761640638     2.104699904112918     0.339692920799714
    H                3.453167761640638    -0.068300095887083     0.097692920799714
    H                3.989167761640638    -0.912300095887083    -1.346307079200286
    H                2.715761761640638    -1.650574095887083    -0.343795079200286
    C               -1.928832238359362     1.057699904112917     2.429692920799714
    C               -1.544832238359362    -1.144300095887083    -0.426307079200286
    C               -1.655832238359362    -0.049300095887083     1.459692920799714
    C               -1.121832238359362    -1.260300095887083     1.713692920799714
    N               -1.911832238359362     0.008699904112917     0.108692920799714
    N               -1.063832238359362    -1.925300095887083     0.523692920799714
    H               -1.623832238359362    -1.406300095887083    -1.476307079200286
    H               -0.715832238359362    -2.866300095887083     0.378692920799714
    H               -0.794832238359362    -1.621300095887083     2.679692920799714
    H               -1.793832238359362     2.009699904112917     1.914692920799714
    H               -1.188832238359362     1.006699904112917     3.227692920799714
    H               -2.936680238359362     1.012858904112917     2.868134920799714

}
e, wfn = energy('scf', return_wfn=True)
gdma(wfn)
dmavals = variable('DMA DISTRIBUTED MULTIPOLES')
charges = np.array(dmavals)
print(charges)
np.save('SSI-017ARG-056HIE-1-dimer.npy', np.array(charges))--------------------------------------------------------------------------

*** tstart() called on ds3
*** at Mon Apr 27 06:47:00 2020

   => Loading Basis Set <=

    Name: CC-PVDZ
    Role: ORBITAL
    Keyword: BASIS
    atoms 1-2, 14-17  entry C          line   138 file /theoryfs2/ds/metcalf/miniconda2/envs/tf2gpu/share/psi4/basis/cc-pvdz.gbs
    atoms 3-5, 18-19  entry N          line   168 file /theoryfs2/ds/metcalf/miniconda2/envs/tf2gpu/share/psi4/basis/cc-pvdz.gbs
    atoms 6-13, 20-25 entry H          line    22 file /theoryfs2/ds/metcalf/miniconda2/envs/tf2gpu/share/psi4/basis/cc-pvdz.gbs

         ---------------------------------------------------------
                                   SCF
               by Justin Turney, Rob Parrish, Andy Simmonett
                          and Daniel G. A. Smith
                              RHF Reference
                        1 Threads,    500 MiB Core
         ---------------------------------------------------------

  ==> Geometry <==

    Molecular point group: c1
    Full point group: C1

    Geometry (in Angstrom), charge = 1, multiplicity = 1:

       Center              X                  Y                   Z               Mass
    ------------   -----------------  -----------------  -----------------  -----------------
         C            3.115167761641    -0.699300095887    -0.725307079200    12.000000000000
         C            1.352167761641     0.935699904113    -1.179307079200    12.000000000000
         N            2.114167761641    -0.045300095887    -1.568307079200    14.003074004430
         N            0.520167761641     1.488699904113    -2.033307079200    14.003074004430
         N            1.412167761641     1.354699904113     0.036692920800    14.003074004430
         H            2.043167761641    -0.342300095887    -2.531307079200     1.007825032230
         H            0.472167761641     1.160699904113    -2.984307079200     1.007825032230
         H           -0.108832238359     2.213699904113    -1.728307079200     1.007825032230
         H            2.039167761641     0.920699904113     0.688692920800     1.007825032230
         H            0.813167761641     2.104699904113     0.339692920800     1.007825032230
         H            3.453167761641    -0.068300095887     0.097692920800     1.007825032230
         H            3.989167761641    -0.912300095887    -1.346307079200     1.007825032230
         H            2.715761761641    -1.650574095887    -0.343795079200     1.007825032230
         C           -1.928832238359     1.057699904113     2.429692920800    12.000000000000
         C           -1.544832238359    -1.144300095887    -0.426307079200    12.000000000000
         C           -1.655832238359    -0.049300095887     1.459692920800    12.000000000000
         C           -1.121832238359    -1.260300095887     1.713692920800    12.000000000000
         N           -1.911832238359     0.008699904113     0.108692920800    14.003074004430
         N           -1.063832238359    -1.925300095887     0.523692920800    14.003074004430
         H           -1.623832238359    -1.406300095887    -1.476307079200     1.007825032230
         H           -0.715832238359    -2.866300095887     0.378692920800     1.007825032230
         H           -0.794832238359    -1.621300095887     2.679692920800     1.007825032230
         H           -1.793832238359     2.009699904113     1.914692920800     1.007825032230
         H           -1.188832238359     1.006699904113     3.227692920800     1.007825032230
         H           -2.936680238359     1.012858904113     2.868134920800     1.007825032230

  Running in c1 symmetry.

  Rotational constants: A =      0.05122  B =      0.02102  C =      0.01954 [cm^-1]
  Rotational constants: A =   1535.64886  B =    630.09683  C =    585.90554 [MHz]
  Nuclear repulsion =  636.016677056493450

  Charge       = 1
  Multiplicity = 1
  Electrons    = 84
  Nalpha       = 42
  Nbeta        = 42

  ==> Algorithm <==

  SCF Algorithm Type is PK.
  DIIS enabled.
  MOM disabled.
  Fractional occupation disabled.
  Guess Type is SAD.
  Energy threshold   = 1.00e-06
  Density threshold  = 1.00e-10
  Integral threshold = 0.00e+00

  ==> Primary Basis <==

  Basis Set: CC-PVDZ
    Blend: CC-PVDZ
    Number of shells: 108
    Number of basis function: 224
    Number of Cartesian functions: 235
    Spherical Harmonics?: true
    Max angular momentum: 2

  ==> Pre-Iterations <==

   -------------------------------------------------------
    Irrep   Nso     Nmo     Nalpha   Nbeta   Ndocc  Nsocc
   -------------------------------------------------------
     A        224     224       0       0       0       0
   -------------------------------------------------------
    Total     224     224      42      42      42       0
   -------------------------------------------------------

  ==> Integral Setup <==

  Using integral reordering PK algorithm.
  Sizing the integral batches needed.
  Building batch lookup table.
   Calculation information:
      Number of atoms:                  25
      Number of AO shells:             108
      Number of primitives:            312
      Number of atomic orbitals:       235
      Number of basis functions:       224

      Integral cutoff                 1.00e-12
      Number of threads:                 1

	Batch   1 pq = [       0,    9405] index = [             0,44231715] size =     44231715
	Batch   2 pq = [    9405,   13301] index = [      44231715,88464951] size =     44233236
	Batch   3 pq = [   13301,   16290] index = [      88464951,132690195] size =     44225244
	Batch   4 pq = [   16290,   18810] index = [     132690195,176917455] size =     44227260
	Batch   5 pq = [   18810,   21030] index = [     176917455,221140965] size =     44223510
	Batch   6 pq = [   21030,   23037] index = [     221140965,265363203] size =     44222238
	Batch   7 pq = [   23037,   24883] index = [     265363203,309594286] size =     44231083
	Batch   8 pq = [   24883,   25200] index = [     309594286,317532600] size =      7938314
  Task number: 29
  Buffer size: 11059200
  Buffer per thread: 2
  We computed 17439009 shell quartets total.
  Whereas there are 17325441 unique shell quartets.
     0.66 percent of shell quartets recomputed by reordering.

  ==> DiskJK: Disk-Based J/K Matrices <==

    J tasked:                  Yes
    K tasked:                  Yes
    wK tasked:                  No
    Memory [MiB]:              375
    Schwarz Cutoff:          1E-12

    OpenMP threads:              1

  Minimum eigenvalue in the overlap matrix is 1.1992759864E-03.
  Using Symmetric Orthogonalization.

  SCF Guess: Superposition of Atomic Densities via on-the-fly atomic UHF.

  ==> Iterations <==

                        Total Energy        Delta E     RMS |[F,P]|

   @RHF iter SAD:  -507.23252209683073   -5.07233e+02   0.00000e+00
   @RHF iter   1:  -507.20552221303171    2.69999e-02   2.90794e-03 DIIS
   @RHF iter   2:  -507.41601849905879   -2.10496e-01   1.33820e-03 DIIS
   @RHF iter   3:  -507.45630941810492   -4.02909e-02   3.84399e-04 DIIS
   @RHF iter   4:  -507.46064019195126   -4.33077e-03   1.48643e-04 DIIS
   @RHF iter   5:  -507.46122665353965   -5.86462e-04   2.39346e-05 DIIS
   @RHF iter   6:  -507.46125450830539   -2.78548e-05   1.01283e-05 DIIS
   @RHF iter   7:  -507.46125878894588   -4.28064e-06   3.28276e-06 DIIS
   @RHF iter   8:  -507.46125955898310   -7.70037e-07   1.22516e-06 DIIS
   @RHF iter   9:  -507.46125968727199   -1.28289e-07   5.29895e-07 DIIS
   @RHF iter  10:  -507.46125971247761   -2.52056e-08   1.89773e-07 DIIS
   @RHF iter  11:  -507.46125971613054   -3.65293e-09   6.52605e-08 DIIS
   @RHF iter  12:  -507.46125971641624   -2.85695e-10   2.35792e-08 DIIS
   @RHF iter  13:  -507.46125971645409   -3.78577e-11   7.08936e-09 DIIS
   @RHF iter  14:  -507.46125971645813   -4.03588e-12   2.57494e-09 DIIS
   @RHF iter  15:  -507.46125971645836   -2.27374e-13   9.63336e-10 DIIS
   @RHF iter  16:  -507.46125971645648    1.87583e-12   3.23830e-10 DIIS
   @RHF iter  17:  -507.46125971645756   -1.08002e-12   1.17107e-10 DIIS
   @RHF iter  18:  -507.46125971645750    5.68434e-14   3.97113e-11 DIIS
  Energy and wave function converged.

  ==> Post-Iterations <==

    Orbital Energies [Eh]
    ---------------------

    Doubly Occupied:

       1A    -15.777182     2A    -15.774018     3A    -15.769296
       4A    -15.731271     5A    -15.641633     6A    -11.570296
       7A    -11.441395     8A    -11.402864     9A    -11.355139
      10A    -11.347170    11A    -11.326613    12A     -1.548216
      13A     -1.460176    14A     -1.399163    15A     -1.384825
      16A     -1.268059    17A     -1.143594    18A     -1.141144
      19A     -1.048155    20A     -1.030926    21A     -0.977923
      22A     -0.932112    23A     -0.929643    24A     -0.874361
      25A     -0.853587    26A     -0.852300    27A     -0.846907
      28A     -0.824697    29A     -0.788983    30A     -0.741612
      31A     -0.724436    32A     -0.720671    33A     -0.717401
      34A     -0.704086    35A     -0.657715    36A     -0.646112
      37A     -0.628225    38A     -0.605108    39A     -0.579056
      40A     -0.525463    41A     -0.492372    42A     -0.420555

    Virtual:

      43A     -0.002750    44A      0.027658    45A      0.034916
      46A      0.051127    47A      0.063158    48A      0.066014
      49A      0.080585    50A      0.094731    51A      0.113479
      52A      0.119782    53A      0.122738    54A      0.127803
      55A      0.129897    56A      0.148913    57A      0.156050
      58A      0.183725    59A      0.202562    60A      0.207745
      61A      0.257322    62A      0.281636    63A      0.283544
      64A      0.321214    65A      0.338501    66A      0.354444
      67A      0.363490    68A      0.381856    69A      0.433511
      70A      0.456125    71A      0.499590    72A      0.501881
      73A      0.510598    74A      0.528790    75A      0.539428
      76A      0.545008    77A      0.560374    78A      0.567905
      79A      0.575752    80A      0.587716    81A      0.605921
      82A      0.638467    83A      0.652043    84A      0.657772
      85A      0.660921    86A      0.693522    87A      0.698629
      88A      0.705240    89A      0.708463    90A      0.724982
      91A      0.730120    92A      0.757888    93A      0.760865
      94A      0.765273    95A      0.781594    96A      0.788200
      97A      0.809444    98A      0.811636    99A      0.833220
     100A      0.838121   101A      0.847929   102A      0.869365
     103A      0.875138   104A      0.884941   105A      0.905556
     106A      0.919852   107A      0.932554   108A      0.943610
     109A      0.967862   110A      0.983530   111A      1.000699
     112A      1.012385   113A      1.034780   114A      1.048964
     115A      1.060876   116A      1.088271   117A      1.138184
     118A      1.149911   119A      1.158634   120A      1.167721
     121A      1.179997   122A      1.194125   123A      1.209785
     124A      1.222453   125A      1.228118   126A      1.231711
     127A      1.252283   128A      1.316207   129A      1.324131
     130A      1.341529   131A      1.370321   132A      1.392147
     133A      1.424780   134A      1.453675   135A      1.475830
     136A      1.507287   137A      1.521407   138A      1.536588
     139A      1.543792   140A      1.552992   141A      1.587616
     142A      1.598416   143A      1.623228   144A      1.636606
     145A      1.665025   146A      1.687580   147A      1.703194
     148A      1.716509   149A      1.723740   150A      1.731937
     151A      1.743728   152A      1.761583   153A      1.768853
     154A      1.778616   155A      1.793697   156A      1.808092
     157A      1.818154   158A      1.824180   159A      1.829636
     160A      1.846600   161A      1.856139   162A      1.860115
     163A      1.878805   164A      1.905714   165A      1.912716
     166A      1.939395   167A      1.974180   168A      1.998077
     169A      2.018317   170A      2.029586   171A      2.043609
     172A      2.061941   173A      2.105053   174A      2.130291
     175A      2.135984   176A      2.144251   177A      2.165772
     178A      2.177487   179A      2.199051   180A      2.245075
     181A      2.256583   182A      2.270188   183A      2.283748
     184A      2.325772   185A      2.335180   186A      2.340735
     187A      2.348076   188A      2.372752   189A      2.389935
     190A      2.400095   191A      2.446802   192A      2.466325
     193A      2.492941   194A      2.509374   195A      2.575666
     196A      2.579779   197A      2.592120   198A      2.604094
     199A      2.622869   200A      2.651651   201A      2.657224
     202A      2.684712   203A      2.690802   204A      2.741959
     205A      2.752295   206A      2.757863   207A      2.778092
     208A      2.782007   209A      2.819580   210A      2.833367
     211A      2.848736   212A      2.866736   213A      2.887362
     214A      2.925614   215A      2.972831   216A      3.057942
     217A      3.079475   218A      3.119313   219A      3.141538
     220A      3.162639   221A      3.373372   222A      3.633686
     223A      3.705931   224A      3.714154

    Final Occupation by Irrep:
              A
    DOCC [    42 ]

  @RHF Final Energy:  -507.46125971645750

   => Energetics <=

    Nuclear Repulsion Energy =            636.0166770564934495
    One-Electron Energy =               -1937.7469569209390556
    Two-Electron Energy =                 794.2690201479880443
    Total Energy =                       -507.4612597164574481

Computation Completed

Properties will be evaluated at   0.000000,   0.000000,   0.000000 [a0]

Properties computed using the SCF density matrix

  Nuclear Dipole Moment: [e a0]
     X:     5.9621      Y:     1.4615      Z:     1.6816

  Electronic Dipole Moment: [e a0]
     X:    -2.9061      Y:    -1.3370      Z:    -3.3216

  Dipole Moment: [e a0]
     X:     3.0560      Y:     0.1245      Z:    -1.6400     Total:     3.4705

  Dipole Moment: [D]
     X:     7.7676      Y:     0.3164      Z:    -4.1685     Total:     8.8211

*** tstop() called on ds3 at Mon Apr 27 06:49:59 2020
Module time:
	user time   =     133.02 seconds =       2.22 minutes
	system time =      52.70 seconds =       0.88 minutes
	total time  =        179 seconds =       2.98 minutes
Total time:
	user time   =     133.02 seconds =       2.22 minutes
	system time =      52.70 seconds =       0.88 minutes
	total time  =        179 seconds =       2.98 minutes
                                     G D M A

                                 by Anthony Stone

                           version 2.2.06, 22 June 2011

               Distributed Multipoles from Gaussian wavefunctions

Starting at 6:49:59 on 27 Apr 2020

Using SCF density matrix from file ./SSI/SSI-017ARG-056HIE-1-dimer.test.11559.fchk

                         Distributed Multipole Analysis

Standard DMA

Positions and radii in angstrom
Multipole moments in atomic units, ea_0^k for rank k

C          x =  3.115168  y = -0.699300  z = -0.725307 angstrom
           Maximum rank =  0   Radius =  0.650 angstrom
                   Q00  =  -0.122150

C          x =  1.352168  y =  0.935700  z = -1.179307 angstrom
           Maximum rank =  0   Radius =  0.650 angstrom
                   Q00  =   1.086305

N          x =  2.114168  y = -0.045300  z = -1.568307 angstrom
           Maximum rank =  0   Radius =  0.650 angstrom
                   Q00  =  -0.491158

N          x =  0.520168  y =  1.488700  z = -2.033307 angstrom
           Maximum rank =  0   Radius =  0.650 angstrom
                   Q00  =  -0.592071

N          x =  1.412168  y =  1.354700  z =  0.036693 angstrom
           Maximum rank =  0   Radius =  0.650 angstrom
                   Q00  =  -0.563876

H          x =  2.043168  y = -0.342300  z = -2.531307 angstrom
           Maximum rank =  0   Radius =  0.325 angstrom
                   Q00  =   0.230885

H          x =  0.472168  y =  1.160700  z = -2.984307 angstrom
           Maximum rank =  0   Radius =  0.325 angstrom
                   Q00  =   0.258882

H          x = -0.108832  y =  2.213700  z = -1.728307 angstrom
           Maximum rank =  0   Radius =  0.325 angstrom
                   Q00  =   0.269601

H          x =  2.039168  y =  0.920700  z =  0.688693 angstrom
           Maximum rank =  0   Radius =  0.325 angstrom
                   Q00  =   0.264612

H          x =  0.813168  y =  2.104700  z =  0.339693 angstrom
           Maximum rank =  0   Radius =  0.325 angstrom
                   Q00  =   0.270249

H          x =  3.453168  y = -0.068300  z =  0.097693 angstrom
           Maximum rank =  0   Radius =  0.325 angstrom
                   Q00  =   0.112871

H          x =  3.989168  y = -0.912300  z = -1.346307 angstrom
           Maximum rank =  0   Radius =  0.325 angstrom
                   Q00  =   0.151212

H          x =  2.715762  y = -1.650574  z = -0.343795 angstrom
           Maximum rank =  0   Radius =  0.325 angstrom
                   Q00  =   0.124480

C          x = -1.928832  y =  1.057700  z =  2.429693 angstrom
           Maximum rank =  0   Radius =  0.650 angstrom
                   Q00  =  -0.183945

C          x = -1.544832  y = -1.144300  z = -0.426307 angstrom
           Maximum rank =  0   Radius =  0.650 angstrom
                   Q00  =   0.445580

C          x = -1.655832  y = -0.049300  z =  1.459693 angstrom
           Maximum rank =  0   Radius =  0.650 angstrom
                   Q00  =   0.201132

C          x = -1.121832  y = -1.260300  z =  1.713693 angstrom
           Maximum rank =  0   Radius =  0.650 angstrom
                   Q00  =   0.000042

N          x = -1.911832  y =  0.008700  z =  0.108693 angstrom
           Maximum rank =  0   Radius =  0.650 angstrom
                   Q00  =  -0.777524

N          x = -1.063832  y = -1.925300  z =  0.523693 angstrom
           Maximum rank =  0   Radius =  0.650 angstrom
                   Q00  =  -0.468411

H          x = -1.623832  y = -1.406300  z = -1.476307 angstrom
           Maximum rank =  0   Radius =  0.325 angstrom
                   Q00  =   0.121743

H          x = -0.715832  y = -2.866300  z =  0.378693 angstrom
           Maximum rank =  0   Radius =  0.325 angstrom
                   Q00  =   0.230724

H          x = -0.794832  y = -1.621300  z =  2.679693 angstrom
           Maximum rank =  0   Radius =  0.325 angstrom
                   Q00  =   0.112758

H          x = -1.793832  y =  2.009700  z =  1.914693 angstrom
           Maximum rank =  0   Radius =  0.325 angstrom
                   Q00  =   0.094077

H          x = -1.188832  y =  1.006700  z =  3.227693 angstrom
           Maximum rank =  0   Radius =  0.325 angstrom
                   Q00  =   0.092762

H          x = -2.936680  y =  1.012859  z =  2.868135 angstrom
           Maximum rank =  0   Radius =  0.325 angstrom
                   Q00  =   0.131221

Total multipoles referred to origin at
           x =   0.000000,  y =    0.000000,  z =    0.000000 angstrom
                   Q00  =   1.000000

Finished at 6:49:59 on 27 Apr 2020

  DMA results are available in the Python driver through the
	  variable('DMA DISTRIBUTED MULTIPOLES')
  and
	  variable('DMA TOTAL MULTIPOLES')
  commands.

    Psi4 stopped on: Monday, 27 April 2020 06:49AM
    Psi4 wall time for execution: 0:02:59.20

*** Psi4 exiting successfully. Buy a developer a beer!
