                               Psi4 1.3.2 release

  ==> Input File <==

--------------------------------------------------------------------------
import numpy as np
set {scf_type pk
basis cc-pvdz
d_convergence 10
gdma_switch   0
gdma_limit    0
gdma_origin   [ 0.0,  0.0,  0.0 ]
}
molecule test {
    units Angstrom
    -1 1
    --
    -1 1
    C                0.093110377933962     0.837568598008099     1.613178005211541
    C                1.306110377933962     0.343568598008099     2.398178005211541
    C               -0.895889622066038     1.628568598008099     2.477178005211541
    H                0.414110377933962     1.432568598008100     0.758178005211541
    H               -0.438889622066038    -0.040431401991901     1.274178005211541
    H                0.931110377933962    -0.231431401991901     3.248178005211541
    H               -1.208889622066038     0.984568598008099     3.301178005211541
    H               -0.422889622066038     2.496568598008099     2.921178005211541
    H                1.885670377933962     1.193338598008099     2.788058005211541
    H                1.909990377933962    -0.352221401991901     1.797168005211541
    H               -1.786169622066038     1.965318598008099     1.925808005211541
    C               -0.424889622066038     0.466568598008099    -2.426821994788459
    C               -0.095889622066038    -0.767431401991901    -1.586821994788459
    O                0.993110377933962    -1.360431401991901    -1.744821994788459
    O               -0.959889622066038    -1.141431401991901    -0.752821994788459
    H               -0.303889622066038     1.358568598008099    -1.808821994788459
    H               -1.481889622066038     0.424568598008099    -2.699821994788459
    H                0.182250377933962     0.602598598008099    -3.333948994788459

}
e, wfn = energy('scf', return_wfn=True)
gdma(wfn)
dmavals = variable('DMA DISTRIBUTED MULTIPOLES')
charges = np.array(dmavals)
print(charges)
np.save('SSI-022GLN-058GLU-1-dimer.npy', np.array(charges))--------------------------------------------------------------------------

*** tstart() called on ds3
*** at Mon Apr 27 09:24:39 2020

   => Loading Basis Set <=

    Name: CC-PVDZ
    Role: ORBITAL
    Keyword: BASIS
    atoms 1-3, 12-13  entry C          line   138 file /theoryfs2/ds/metcalf/miniconda2/envs/tf2gpu/share/psi4/basis/cc-pvdz.gbs
    atoms 4-11, 16-18 entry H          line    22 file /theoryfs2/ds/metcalf/miniconda2/envs/tf2gpu/share/psi4/basis/cc-pvdz.gbs
    atoms 14-15       entry O          line   198 file /theoryfs2/ds/metcalf/miniconda2/envs/tf2gpu/share/psi4/basis/cc-pvdz.gbs

         ---------------------------------------------------------
                                   SCF
               by Justin Turney, Rob Parrish, Andy Simmonett
                          and Daniel G. A. Smith
                              RHF Reference
                        1 Threads,    500 MiB Core
         ---------------------------------------------------------

  ==> Geometry <==

    Molecular point group: c1
    Full point group: C1

    Geometry (in Angstrom), charge = -1, multiplicity = 1:

       Center              X                  Y                   Z               Mass
    ------------   -----------------  -----------------  -----------------  -----------------
         C            0.093110377934     0.837568598008     1.613178005212    12.000000000000
         C            1.306110377934     0.343568598008     2.398178005212    12.000000000000
         C           -0.895889622066     1.628568598008     2.477178005212    12.000000000000
         H            0.414110377934     1.432568598008     0.758178005212     1.007825032230
         H           -0.438889622066    -0.040431401992     1.274178005212     1.007825032230
         H            0.931110377934    -0.231431401992     3.248178005212     1.007825032230
         H           -1.208889622066     0.984568598008     3.301178005212     1.007825032230
         H           -0.422889622066     2.496568598008     2.921178005212     1.007825032230
         H            1.885670377934     1.193338598008     2.788058005212     1.007825032230
         H            1.909990377934    -0.352221401992     1.797168005212     1.007825032230
         H           -1.786169622066     1.965318598008     1.925808005212     1.007825032230
         C           -0.424889622066     0.466568598008    -2.426821994788    12.000000000000
         C           -0.095889622066    -0.767431401992    -1.586821994788    12.000000000000
         O            0.993110377934    -1.360431401992    -1.744821994788    15.994914619570
         O           -0.959889622066    -1.141431401992    -0.752821994788    15.994914619570
         H           -0.303889622066     1.358568598008    -1.808821994788     1.007825032230
         H           -1.481889622066     0.424568598008    -2.699821994788     1.007825032230
         H            0.182250377934     0.602598598008    -3.333948994788     1.007825032230

  Running in c1 symmetry.

  Rotational constants: A =      0.11988  B =      0.03363  C =      0.03027 [cm^-1]
  Rotational constants: A =   3593.78376  B =   1008.27254  C =    907.52907 [MHz]
  Nuclear repulsion =  292.574521622273153

  Charge       = -1
  Multiplicity = 1
  Electrons    = 58
  Nalpha       = 29
  Nbeta        = 29

  ==> Algorithm <==

  SCF Algorithm Type is PK.
  DIIS enabled.
  MOM disabled.
  Fractional occupation disabled.
  Guess Type is SAD.
  Energy threshold   = 1.00e-06
  Density threshold  = 1.00e-10
  Integral threshold = 0.00e+00

  ==> Primary Basis <==

  Basis Set: CC-PVDZ
    Blend: CC-PVDZ
    Number of shells: 75
    Number of basis function: 153
    Number of Cartesian functions: 160
    Spherical Harmonics?: true
    Max angular momentum: 2

  ==> Pre-Iterations <==

   -------------------------------------------------------
    Irrep   Nso     Nmo     Nalpha   Nbeta   Ndocc  Nsocc
   -------------------------------------------------------
     A        153     153       0       0       0       0
   -------------------------------------------------------
    Total     153     153      29      29      29       0
   -------------------------------------------------------

  ==> Integral Setup <==

  Using integral reordering PK algorithm.
  Sizing the integral batches needed.
  Building batch lookup table.
   Calculation information:
      Number of atoms:                  18
      Number of AO shells:              75
      Number of primitives:            209
      Number of atomic orbitals:       160
      Number of basis functions:       153

      Integral cutoff                 1.00e-12
      Number of threads:                 1

	Batch   1 pq = [       0,    9405] index = [             0,44231715] size =     44231715
	Batch   2 pq = [    9405,   11781] index = [      44231715,69401871] size =     25170156
  Task number: 7
  Buffer size: 11059200
  Buffer per thread: 2
  We computed 3555299 shell quartets total.
  Whereas there are 4062675 unique shell quartets.

  ==> DiskJK: Disk-Based J/K Matrices <==

    J tasked:                  Yes
    K tasked:                  Yes
    wK tasked:                  No
    Memory [MiB]:              375
    Schwarz Cutoff:          1E-12

    OpenMP threads:              1

  Minimum eigenvalue in the overlap matrix is 5.3258961208E-03.
  Using Symmetric Orthogonalization.

  SCF Guess: Superposition of Atomic Densities via on-the-fly atomic UHF.

  ==> Iterations <==

                        Total Energy        Delta E     RMS |[F,P]|

   @RHF iter SAD:  -343.84396442106851   -3.43844e+02   0.00000e+00
   @RHF iter   1:  -345.21407610588216   -1.37011e+00   4.96181e-03 DIIS
   @RHF iter   2:  -345.44193911642060   -2.27863e-01   2.75479e-03 DIIS
   @RHF iter   3:  -345.50864735216066   -6.67082e-02   4.30449e-04 DIIS
   @RHF iter   4:  -345.51162895371846   -2.98160e-03   1.61289e-04 DIIS
   @RHF iter   5:  -345.51204977055886   -4.20817e-04   2.41890e-05 DIIS
   @RHF iter   6:  -345.51206188870151   -1.21181e-05   6.33866e-06 DIIS
   @RHF iter   7:  -345.51206276021054   -8.71509e-07   1.86080e-06 DIIS
   @RHF iter   8:  -345.51206285803812   -9.78276e-08   6.68552e-07 DIIS
   @RHF iter   9:  -345.51206287672443   -1.86863e-08   2.35719e-07 DIIS
   @RHF iter  10:  -345.51206287962611   -2.90169e-09   8.72940e-08 DIIS
   @RHF iter  11:  -345.51206287985480   -2.28681e-10   3.10632e-08 DIIS
   @RHF iter  12:  -345.51206287987128   -1.64846e-11   1.04511e-08 DIIS
   @RHF iter  13:  -345.51206287987242   -1.13687e-12   2.48988e-09 DIIS
   @RHF iter  14:  -345.51206287987281   -3.97904e-13   7.48124e-10 DIIS
   @RHF iter  15:  -345.51206287987162    1.19371e-12   2.63456e-10 DIIS
   @RHF iter  16:  -345.51206287987191   -2.84217e-13   1.02554e-10 DIIS
   @RHF iter  17:  -345.51206287987219   -2.84217e-13   4.74121e-11 DIIS
  Energy and wave function converged.

  ==> Post-Iterations <==

    Orbital Energies [Eh]
    ---------------------

    Doubly Occupied:

       1A    -20.259785     2A    -20.257356     3A    -11.117629
       4A    -11.101964     5A    -11.096582     6A    -11.080149
       7A    -11.051999     8A     -1.146623     9A     -1.033241
      10A     -0.927542    11A     -0.805273    12A     -0.795631
      13A     -0.669886    14A     -0.504364    15A     -0.500471
      16A     -0.473826    17A     -0.428281    18A     -0.412238
      19A     -0.408809    20A     -0.407095    21A     -0.401497
      22A     -0.352577    23A     -0.345004    24A     -0.342978
      25A     -0.334387    26A     -0.298554    27A     -0.183426
      28A     -0.171036    29A     -0.158881

    Virtual:

      30A      0.295293    31A      0.331560    32A      0.344888
      33A      0.353122    34A      0.374871    35A      0.385716
      36A      0.404657    37A      0.412412    38A      0.415771
      39A      0.433769    40A      0.455307    41A      0.483616
      42A      0.529299    43A      0.549525    44A      0.580680
      45A      0.681002    46A      0.691577    47A      0.704376
      48A      0.723733    49A      0.739383    50A      0.753338
      51A      0.800075    52A      0.838533    53A      0.880527
      54A      0.912220    55A      0.933452    56A      0.954094
      57A      0.967771    58A      0.988497    59A      1.005653
      60A      1.012675    61A      1.017193    62A      1.025475
      63A      1.029600    64A      1.036682    65A      1.045327
      66A      1.052503    67A      1.070350    68A      1.084211
      69A      1.089112    70A      1.104063    71A      1.128937
      72A      1.144484    73A      1.220220    74A      1.245053
      75A      1.280503    76A      1.317953    77A      1.342630
      78A      1.359960    79A      1.424112    80A      1.491702
      81A      1.550971    82A      1.566222    83A      1.585206
      84A      1.589521    85A      1.596999    86A      1.621820
      87A      1.665252    88A      1.679779    89A      1.726208
      90A      1.741513    91A      1.764195    92A      1.794228
      93A      1.806516    94A      1.829017    95A      1.847456
      96A      1.861370    97A      1.990302    98A      2.004235
      99A      2.004399   100A      2.036473   101A      2.045412
     102A      2.056331   103A      2.063573   104A      2.084340
     105A      2.092376   106A      2.097182   107A      2.115066
     108A      2.125657   109A      2.136159   110A      2.140755
     111A      2.157320   112A      2.169082   113A      2.212849
     114A      2.244452   115A      2.249798   116A      2.289175
     117A      2.365266   118A      2.405038   119A      2.419523
     120A      2.432111   121A      2.435685   122A      2.453718
     123A      2.502334   124A      2.588922   125A      2.641980
     126A      2.656966   127A      2.672333   128A      2.714223
     129A      2.724023   130A      2.750427   131A      2.755102
     132A      2.774831   133A      2.868755   134A      2.884521
     135A      2.899157   136A      2.915920   137A      2.928068
     138A      2.971808   139A      2.992005   140A      3.056097
     141A      3.089123   142A      3.106818   143A      3.217224
     144A      3.243221   145A      3.281474   146A      3.295802
     147A      3.365297   148A      3.636737   149A      3.785454
     150A      3.827172   151A      4.065553   152A      4.081822
     153A      4.188983

    Final Occupation by Irrep:
              A
    DOCC [    29 ]

  @RHF Final Energy:  -345.51206287987219

   => Energetics <=

    Nuclear Repulsion Energy =            292.5745216222731528
    One-Electron Energy =               -1062.0390032798316042
    Two-Electron Energy =                 423.9524187776863187
    Total Energy =                       -345.5120628798721896

Computation Completed

Properties will be evaluated at   0.000000,   0.000000,   0.000000 [a0]

Properties computed using the SCF density matrix

  Nuclear Dipole Moment: [e a0]
     X:    -0.2993      Y:     9.2071      Z:     9.5233

  Electronic Dipole Moment: [e a0]
     X:     0.1667      Y:    -7.0209      Z:    -7.8014

  Dipole Moment: [e a0]
     X:    -0.1327      Y:     2.1862      Z:     1.7219     Total:     2.7861

  Dipole Moment: [D]
     X:    -0.3372      Y:     5.5567      Z:     4.3768     Total:     7.0814

*** tstop() called on ds3 at Mon Apr 27 09:27:23 2020
Module time:
	user time   =      23.23 seconds =       0.39 minutes
	system time =       9.64 seconds =       0.16 minutes
	total time  =        164 seconds =       2.73 minutes
Total time:
	user time   =      23.23 seconds =       0.39 minutes
	system time =       9.64 seconds =       0.16 minutes
	total time  =        164 seconds =       2.73 minutes
                                     G D M A

                                 by Anthony Stone

                           version 2.2.06, 22 June 2011

               Distributed Multipoles from Gaussian wavefunctions

Starting at 9:27:23 on 27 Apr 2020

Using SCF density matrix from file ./SSI/SSI-022GLN-058GLU-1-dimer.test.1776.fchk

                         Distributed Multipole Analysis

Standard DMA

Positions and radii in angstrom
Multipole moments in atomic units, ea_0^k for rank k

C          x =  0.093110  y =  0.837569  z =  1.613178 angstrom
           Maximum rank =  0   Radius =  0.650 angstrom
                   Q00  =  -0.046711

C          x =  1.306110  y =  0.343569  z =  2.398178 angstrom
           Maximum rank =  0   Radius =  0.650 angstrom
                   Q00  =  -0.235322

C          x = -0.895890  y =  1.628569  z =  2.477178 angstrom
           Maximum rank =  0   Radius =  0.650 angstrom
                   Q00  =  -0.244677

H          x =  0.414110  y =  1.432569  z =  0.758178 angstrom
           Maximum rank =  0   Radius =  0.325 angstrom
                   Q00  =   0.038301

H          x = -0.438890  y = -0.040431  z =  1.274178 angstrom
           Maximum rank =  0   Radius =  0.325 angstrom
                   Q00  =   0.097049

H          x =  0.931110  y = -0.231431  z =  3.248178 angstrom
           Maximum rank =  0   Radius =  0.325 angstrom
                   Q00  =   0.051305

H          x = -1.208890  y =  0.984569  z =  3.301178 angstrom
           Maximum rank =  0   Radius =  0.325 angstrom
                   Q00  =   0.058488

H          x = -0.422890  y =  2.496569  z =  2.921178 angstrom
           Maximum rank =  0   Radius =  0.325 angstrom
                   Q00  =   0.039368

H          x =  1.885670  y =  1.193339  z =  2.788058 angstrom
           Maximum rank =  0   Radius =  0.325 angstrom
                   Q00  =   0.037751

H          x =  1.909990  y = -0.352221  z =  1.797168 angstrom
           Maximum rank =  0   Radius =  0.325 angstrom
                   Q00  =   0.106536

H          x = -1.786170  y =  1.965319  z =  1.925808 angstrom
           Maximum rank =  0   Radius =  0.325 angstrom
                   Q00  =   0.079828

C          x = -0.424890  y =  0.466569  z = -2.426822 angstrom
           Maximum rank =  0   Radius =  0.650 angstrom
                   Q00  =  -0.283917

C          x = -0.095890  y = -0.767431  z = -1.586822 angstrom
           Maximum rank =  0   Radius =  0.650 angstrom
                   Q00  =   0.964846

O          x =  0.993110  y = -1.360431  z = -1.744822 angstrom
           Maximum rank =  0   Radius =  0.650 angstrom
                   Q00  =  -0.916635

O          x = -0.959890  y = -1.141431  z = -0.752822 angstrom
           Maximum rank =  0   Radius =  0.650 angstrom
                   Q00  =  -0.928478

H          x = -0.303890  y =  1.358569  z = -1.808822 angstrom
           Maximum rank =  0   Radius =  0.325 angstrom
                   Q00  =   0.074311

H          x = -1.481890  y =  0.424569  z = -2.699822 angstrom
           Maximum rank =  0   Radius =  0.325 angstrom
                   Q00  =   0.059606

H          x =  0.182250  y =  0.602599  z = -3.333949 angstrom
           Maximum rank =  0   Radius =  0.325 angstrom
                   Q00  =   0.048353

Total multipoles referred to origin at
           x =   0.000000,  y =    0.000000,  z =    0.000000 angstrom
                   Q00  =  -1.000000

Finished at 9:27:23 on 27 Apr 2020

  DMA results are available in the Python driver through the
	  variable('DMA DISTRIBUTED MULTIPOLES')
  and
	  variable('DMA TOTAL MULTIPOLES')
  commands.

    Psi4 stopped on: Monday, 27 April 2020 09:27AM
    Psi4 wall time for execution: 0:02:44.43

*** Psi4 exiting successfully. Buy a developer a beer!
