                               Psi4 1.3.2 release

  ==> Input File <==

--------------------------------------------------------------------------
import numpy as np
set {scf_type pk
basis cc-pvdz
d_convergence 10
gdma_switch   0
gdma_limit    0
gdma_origin   [ 0.0,  0.0,  0.0 ]
}
molecule test {
    units Angstrom
    -1 1
    --
    -1 1
    C                1.726453512965960     0.600861788598207     0.951337733046755
    C                1.536453512965960     1.756861788598207     1.900337733046755
    C                3.096453512965960     0.073861788598207     1.347337733046755
    H                1.708453512965960     0.941861788598207    -0.084662266953245
    H                0.989453512965960    -0.150138211401793     1.146337733046755
    H                0.745453512965960     2.427861788598207     1.566337733046755
    H                1.333453512965960     1.389861788598207     2.909337733046755
    H                2.984453512965960    -0.578138211401793     2.212337733046755
    H                2.523363512965960     2.241253788598207     1.863357733046755
    H                3.637003512965960     0.984065788598207     1.646217733046755
    H                3.563853512965960    -0.503003211401793     0.535697733046755
    C               -2.951546487034040    -0.758138211401793    -0.617662266953245
    C               -1.515546487034040    -0.598138211401793    -1.082662266953245
    O               -0.605546487034040    -0.974138211401793    -0.313662266953245
    O               -1.294546487034040    -0.105138211401793    -2.211662266953245
    H               -3.115546487034040    -0.167138211401793     0.287337733046755
    H               -3.070546487034040    -1.811138211401793    -0.367662266953245
    H               -3.674446487034040    -0.449968211401793    -1.387362266953245

}
e, wfn = energy('scf', return_wfn=True)
gdma(wfn)
dmavals = variable('DMA DISTRIBUTED MULTIPOLES')
charges = np.array(dmavals)
print(charges)
np.save('SSI-099PRO-166GLU-1-dimer.npy', np.array(charges))--------------------------------------------------------------------------

*** tstart() called on ds3
*** at Mon Apr 27 22:30:29 2020

   => Loading Basis Set <=

    Name: CC-PVDZ
    Role: ORBITAL
    Keyword: BASIS
    atoms 1-3, 12-13  entry C          line   138 file /theoryfs2/ds/metcalf/miniconda2/envs/tf2gpu/share/psi4/basis/cc-pvdz.gbs
    atoms 4-11, 16-18 entry H          line    22 file /theoryfs2/ds/metcalf/miniconda2/envs/tf2gpu/share/psi4/basis/cc-pvdz.gbs
    atoms 14-15       entry O          line   198 file /theoryfs2/ds/metcalf/miniconda2/envs/tf2gpu/share/psi4/basis/cc-pvdz.gbs

         ---------------------------------------------------------
                                   SCF
               by Justin Turney, Rob Parrish, Andy Simmonett
                          and Daniel G. A. Smith
                              RHF Reference
                        1 Threads,    500 MiB Core
         ---------------------------------------------------------

  ==> Geometry <==

    Molecular point group: c1
    Full point group: C1

    Geometry (in Angstrom), charge = -1, multiplicity = 1:

       Center              X                  Y                   Z               Mass
    ------------   -----------------  -----------------  -----------------  -----------------
         C            1.726453512966     0.600861788598     0.951337733047    12.000000000000
         C            1.536453512966     1.756861788598     1.900337733047    12.000000000000
         C            3.096453512966     0.073861788598     1.347337733047    12.000000000000
         H            1.708453512966     0.941861788598    -0.084662266953     1.007825032230
         H            0.989453512966    -0.150138211402     1.146337733047     1.007825032230
         H            0.745453512966     2.427861788598     1.566337733047     1.007825032230
         H            1.333453512966     1.389861788598     2.909337733047     1.007825032230
         H            2.984453512966    -0.578138211402     2.212337733047     1.007825032230
         H            2.523363512966     2.241253788598     1.863357733047     1.007825032230
         H            3.637003512966     0.984065788598     1.646217733047     1.007825032230
         H            3.563853512966    -0.503003211402     0.535697733047     1.007825032230
         C           -2.951546487034    -0.758138211402    -0.617662266953    12.000000000000
         C           -1.515546487034    -0.598138211402    -1.082662266953    12.000000000000
         O           -0.605546487034    -0.974138211402    -0.313662266953    15.994914619570
         O           -1.294546487034    -0.105138211402    -2.211662266953    15.994914619570
         H           -3.115546487034    -0.167138211402     0.287337733047     1.007825032230
         H           -3.070546487034    -1.811138211402    -0.367662266953     1.007825032230
         H           -3.674446487034    -0.449968211402    -1.387362266953     1.007825032230

  Running in c1 symmetry.

  Rotational constants: A =      0.15604  B =      0.02607  C =      0.02519 [cm^-1]
  Rotational constants: A =   4677.81823  B =    781.56319  C =    755.13599 [MHz]
  Nuclear repulsion =  287.006541892424821

  Charge       = -1
  Multiplicity = 1
  Electrons    = 58
  Nalpha       = 29
  Nbeta        = 29

  ==> Algorithm <==

  SCF Algorithm Type is PK.
  DIIS enabled.
  MOM disabled.
  Fractional occupation disabled.
  Guess Type is SAD.
  Energy threshold   = 1.00e-06
  Density threshold  = 1.00e-10
  Integral threshold = 0.00e+00

  ==> Primary Basis <==

  Basis Set: CC-PVDZ
    Blend: CC-PVDZ
    Number of shells: 75
    Number of basis function: 153
    Number of Cartesian functions: 160
    Spherical Harmonics?: true
    Max angular momentum: 2

  ==> Pre-Iterations <==

   -------------------------------------------------------
    Irrep   Nso     Nmo     Nalpha   Nbeta   Ndocc  Nsocc
   -------------------------------------------------------
     A        153     153       0       0       0       0
   -------------------------------------------------------
    Total     153     153      29      29      29       0
   -------------------------------------------------------

  ==> Integral Setup <==

  Using integral reordering PK algorithm.
  Sizing the integral batches needed.
  Building batch lookup table.
   Calculation information:
      Number of atoms:                  18
      Number of AO shells:              75
      Number of primitives:            209
      Number of atomic orbitals:       160
      Number of basis functions:       153

      Integral cutoff                 1.00e-12
      Number of threads:                 1

	Batch   1 pq = [       0,    9405] index = [             0,44231715] size =     44231715
	Batch   2 pq = [    9405,   11781] index = [      44231715,69401871] size =     25170156
  Task number: 7
  Buffer size: 11059200
  Buffer per thread: 2
  We computed 3119871 shell quartets total.
  Whereas there are 4062675 unique shell quartets.

  ==> DiskJK: Disk-Based J/K Matrices <==

    J tasked:                  Yes
    K tasked:                  Yes
    wK tasked:                  No
    Memory [MiB]:              375
    Schwarz Cutoff:          1E-12

    OpenMP threads:              1

  Minimum eigenvalue in the overlap matrix is 4.9497113265E-03.
  Using Symmetric Orthogonalization.

  SCF Guess: Superposition of Atomic Densities via on-the-fly atomic UHF.

  ==> Iterations <==

                        Total Energy        Delta E     RMS |[F,P]|

   @RHF iter SAD:  -344.04663186703112   -3.44047e+02   0.00000e+00
   @RHF iter   1:  -345.18987900705469   -1.14325e+00   5.01166e-03 DIIS
   @RHF iter   2:  -345.42210442871766   -2.32225e-01   2.77432e-03 DIIS
   @RHF iter   3:  -345.49033738429074   -6.82330e-02   4.25795e-04 DIIS
   @RHF iter   4:  -345.49326334967412   -2.92597e-03   1.59217e-04 DIIS
   @RHF iter   5:  -345.49366392567282   -4.00576e-04   2.49426e-05 DIIS
   @RHF iter   6:  -345.49367627593006   -1.23503e-05   6.71075e-06 DIIS
   @RHF iter   7:  -345.49367721694864   -9.41019e-07   1.81043e-06 DIIS
   @RHF iter   8:  -345.49367730831312   -9.13645e-08   7.69734e-07 DIIS
   @RHF iter   9:  -345.49367732354051   -1.52274e-08   3.14532e-07 DIIS
   @RHF iter  10:  -345.49367732721919   -3.67868e-09   1.74852e-07 DIIS
   @RHF iter  11:  -345.49367732809253   -8.73342e-10   3.21353e-08 DIIS
   @RHF iter  12:  -345.49367732813403   -4.14957e-11   7.56509e-09 DIIS
   @RHF iter  13:  -345.49367732813431   -2.84217e-13   2.20588e-09 DIIS
   @RHF iter  14:  -345.49367732813619   -1.87583e-12   5.96542e-10 DIIS
   @RHF iter  15:  -345.49367732813630   -1.13687e-13   1.73792e-10 DIIS
   @RHF iter  16:  -345.49367732813596    3.41061e-13   6.76644e-11 DIIS
  Energy and wave function converged.

  ==> Post-Iterations <==

    Orbital Energies [Eh]
    ---------------------

    Doubly Occupied:

       1A    -20.257442     2A    -20.256144     3A    -11.114042
       4A    -11.095329     5A    -11.094131     6A    -11.068966
       7A    -11.050005     8A     -1.147940     9A     -1.034088
      10A     -0.943204    11A     -0.797076    12A     -0.793448
      13A     -0.666275    14A     -0.518051    15A     -0.498202
      16A     -0.490947    17A     -0.421336    18A     -0.413781
      19A     -0.408607    20A     -0.401726    21A     -0.392103
      22A     -0.352704    23A     -0.344918    24A     -0.336315
      25A     -0.330477    26A     -0.300896    27A     -0.181499
      28A     -0.170059    29A     -0.159214

    Virtual:

      30A      0.300108    31A      0.344529    32A      0.347668
      33A      0.349460    34A      0.359316    35A      0.395232
      36A      0.402861    37A      0.405182    38A      0.415743
      39A      0.439797    40A      0.467561    41A      0.488009
      42A      0.496863    43A      0.553696    44A      0.571959
      45A      0.681517    46A      0.700262    47A      0.709642
      48A      0.716895    49A      0.745571    50A      0.780619
      51A      0.816861    52A      0.822297    53A      0.869183
      54A      0.904056    55A      0.939209    56A      0.951783
      57A      0.971998    58A      0.975027    59A      1.002597
      60A      1.010308    61A      1.012734    62A      1.020015
      63A      1.027988    64A      1.031874    65A      1.035509
      66A      1.039695    67A      1.054798    68A      1.063493
      69A      1.078840    70A      1.102440    71A      1.120194
      72A      1.142031    73A      1.214036    74A      1.225895
      75A      1.257925    76A      1.319481    77A      1.344616
      78A      1.351987    79A      1.452986    80A      1.498499
      81A      1.548312    82A      1.561492    83A      1.581233
      84A      1.605474    85A      1.614607    86A      1.631047
      87A      1.683338    88A      1.719108    89A      1.731687
      90A      1.733206    91A      1.756644    92A      1.769637
      93A      1.836457    94A      1.864763    95A      1.867024
      96A      1.868906    97A      1.943901    98A      1.974711
      99A      2.000776   100A      2.019386   101A      2.031422
     102A      2.042202   103A      2.054883   104A      2.079493
     105A      2.095635   106A      2.112683   107A      2.127340
     108A      2.145994   109A      2.153324   110A      2.179433
     111A      2.183993   112A      2.213306   113A      2.253427
     114A      2.280015   115A      2.296595   116A      2.312527
     117A      2.318426   118A      2.371665   119A      2.412449
     120A      2.424582   121A      2.436870   122A      2.463492
     123A      2.552473   124A      2.597549   125A      2.611139
     126A      2.635553   127A      2.647475   128A      2.672785
     129A      2.730429   130A      2.777918   131A      2.797931
     132A      2.809554   133A      2.872666   134A      2.890489
     135A      2.909591   136A      2.918164   137A      2.963103
     138A      2.977789   139A      2.988413   140A      3.004914
     141A      3.059104   142A      3.103952   143A      3.204057
     144A      3.246330   145A      3.278518   146A      3.297073
     147A      3.363389   148A      3.636336   149A      3.793250
     150A      3.830500   151A      4.063154   152A      4.104740
     153A      4.205105

    Final Occupation by Irrep:
              A
    DOCC [    29 ]

  @RHF Final Energy:  -345.49367732813596

   => Energetics <=

    Nuclear Repulsion Energy =            287.0065418924248206
    One-Electron Energy =               -1050.9225900134467793
    Two-Electron Energy =                 418.4223707928859994
    Total Energy =                       -345.4936773281359592

Computation Completed

Properties will be evaluated at   0.000000,   0.000000,   0.000000 [a0]

Properties computed using the SCF density matrix

  Nuclear Dipole Moment: [e a0]
     X:     7.1390      Y:     4.0497      Z:     9.6694

  Electronic Dipole Moment: [e a0]
     X:    -6.0675      Y:    -3.3332      Z:    -7.5949

  Dipole Moment: [e a0]
     X:     1.0715      Y:     0.7165      Z:     2.0745     Total:     2.4423

  Dipole Moment: [D]
     X:     2.7236      Y:     1.8212      Z:     5.2728     Total:     6.2078

*** tstop() called on ds3 at Mon Apr 27 22:31:01 2020
Module time:
	user time   =      21.98 seconds =       0.37 minutes
	system time =      11.39 seconds =       0.19 minutes
	total time  =         32 seconds =       0.53 minutes
Total time:
	user time   =      21.98 seconds =       0.37 minutes
	system time =      11.39 seconds =       0.19 minutes
	total time  =         32 seconds =       0.53 minutes
                                     G D M A

                                 by Anthony Stone

                           version 2.2.06, 22 June 2011

               Distributed Multipoles from Gaussian wavefunctions

Starting at 22:31:1 on 27 Apr 2020

Using SCF density matrix from file ./SSI/SSI-099PRO-166GLU-1-dimer.test.31088.fchk

                         Distributed Multipole Analysis

Standard DMA

Positions and radii in angstrom
Multipole moments in atomic units, ea_0^k for rank k

C          x =  1.726454  y =  0.600862  z =  0.951338 angstrom
           Maximum rank =  0   Radius =  0.650 angstrom
                   Q00  =  -0.031525

C          x =  1.536454  y =  1.756862  z =  1.900338 angstrom
           Maximum rank =  0   Radius =  0.650 angstrom
                   Q00  =  -0.209466

C          x =  3.096454  y =  0.073862  z =  1.347338 angstrom
           Maximum rank =  0   Radius =  0.650 angstrom
                   Q00  =  -0.212224

H          x =  1.708454  y =  0.941862  z = -0.084662 angstrom
           Maximum rank =  0   Radius =  0.325 angstrom
                   Q00  =   0.059504

H          x =  0.989454  y = -0.150138  z =  1.146338 angstrom
           Maximum rank =  0   Radius =  0.325 angstrom
                   Q00  =   0.092413

H          x =  0.745454  y =  2.427862  z =  1.566338 angstrom
           Maximum rank =  0   Radius =  0.325 angstrom
                   Q00  =   0.078893

H          x =  1.333454  y =  1.389862  z =  2.909338 angstrom
           Maximum rank =  0   Radius =  0.325 angstrom
                   Q00  =   0.056082

H          x =  2.984454  y = -0.578138  z =  2.212338 angstrom
           Maximum rank =  0   Radius =  0.325 angstrom
                   Q00  =   0.064017

H          x =  2.523364  y =  2.241254  z =  1.863358 angstrom
           Maximum rank =  0   Radius =  0.325 angstrom
                   Q00  =   0.011206

H          x =  3.637004  y =  0.984066  z =  1.646218 angstrom
           Maximum rank =  0   Radius =  0.325 angstrom
                   Q00  =   0.010771

H          x =  3.563854  y = -0.503003  z =  0.535698 angstrom
           Maximum rank =  0   Radius =  0.325 angstrom
                   Q00  =   0.061236

C          x = -2.951546  y = -0.758138  z = -0.617662 angstrom
           Maximum rank =  0   Radius =  0.650 angstrom
                   Q00  =  -0.274844

C          x = -1.515546  y = -0.598138  z = -1.082662 angstrom
           Maximum rank =  0   Radius =  0.650 angstrom
                   Q00  =   0.970281

O          x = -0.605546  y = -0.974138  z = -0.313662 angstrom
           Maximum rank =  0   Radius =  0.650 angstrom
                   Q00  =  -0.933371

O          x = -1.294546  y = -0.105138  z = -2.211662 angstrom
           Maximum rank =  0   Radius =  0.650 angstrom
                   Q00  =  -0.926633

H          x = -3.115546  y = -0.167138  z =  0.287338 angstrom
           Maximum rank =  0   Radius =  0.325 angstrom
                   Q00  =   0.067962

H          x = -3.070546  y = -1.811138  z = -0.367662 angstrom
           Maximum rank =  0   Radius =  0.325 angstrom
                   Q00  =   0.066033

H          x = -3.674446  y = -0.449968  z = -1.387362 angstrom
           Maximum rank =  0   Radius =  0.325 angstrom
                   Q00  =   0.049665

Total multipoles referred to origin at
           x =   0.000000,  y =    0.000000,  z =    0.000000 angstrom
                   Q00  =  -1.000000

Finished at 22:31:1 on 27 Apr 2020

  DMA results are available in the Python driver through the
	  variable('DMA DISTRIBUTED MULTIPOLES')
  and
	  variable('DMA TOTAL MULTIPOLES')
  commands.

    Psi4 stopped on: Monday, 27 April 2020 10:31PM
    Psi4 wall time for execution: 0:00:32.28

*** Psi4 exiting successfully. Buy a developer a beer!
