                               Psi4 1.3.2 release

  ==> Input File <==

--------------------------------------------------------------------------
import numpy as np
set {scf_type pk
basis cc-pvdz
d_convergence 10
gdma_switch   0
gdma_limit    0
gdma_origin   [ 0.0,  0.0,  0.0 ]
}
molecule test {
    units Angstrom
    0 1
    --
    0 1
    C               -3.151992471742250     0.856530616472043     0.382882230225091
    C               -3.310992471742249     0.716530616472044     1.891882230225091
    H               -3.004992471742249    -0.123469383527956    -0.075117769774909
    H               -4.047992471742250     1.314530616472044    -0.040117769774909
    H               -2.298992471742249     1.499530616472044     0.161882230225091
    H               -3.393992471742250     1.715530616472044     2.315882230225091
    H               -2.429172471742250     0.209142616472044     2.310152230225091
    H               -4.227822471742249     0.154697616472044     2.123772230225091
    C                0.263007528257751    -0.340469383527956    -0.694117769774909
    C                0.369007528257751    -0.705469383527957    -2.176117769774909
    C                1.593007528257751    -0.183469383527956     0.015882230225091
    O                1.746007528257751     0.685530616472043     0.883882230225091
    N                2.566007528257750    -1.022469383527956    -0.331117769774909
    H               -0.282992471742249     0.599530616472043    -0.609117769774909
    H               -0.295992471742249    -1.111469383527957    -0.163117769774909
    H                0.951007528257751    -1.617469383527956    -2.313117769774909
    H                0.877007528257751     0.107530616472044    -2.698117769774909
    H                3.468007528257751    -0.921469383527956     0.110882230225091
    H                2.408007528257751    -1.738469383527956    -1.026117769774909
    H               -0.624802471742249    -0.853285383527957    -2.623867769774909

}
e, wfn = energy('scf', return_wfn=True)
gdma(wfn)
dmavals = variable('DMA DISTRIBUTED MULTIPOLES')
charges = np.array(dmavals)
print(charges)
np.save('SSI-005LEU-023GLN-1-dimer.npy', np.array(charges))--------------------------------------------------------------------------

*** tstart() called on ds3
*** at Tue Apr 28 09:03:41 2020

   => Loading Basis Set <=

    Name: CC-PVDZ
    Role: ORBITAL
    Keyword: BASIS
    atoms 1-2, 9-11  entry C          line   138 file /theoryfs2/ds/metcalf/miniconda2/envs/tf2gpu/share/psi4/basis/cc-pvdz.gbs
    atoms 3-8, 14-20 entry H          line    22 file /theoryfs2/ds/metcalf/miniconda2/envs/tf2gpu/share/psi4/basis/cc-pvdz.gbs
    atoms 12         entry O          line   198 file /theoryfs2/ds/metcalf/miniconda2/envs/tf2gpu/share/psi4/basis/cc-pvdz.gbs
    atoms 13         entry N          line   168 file /theoryfs2/ds/metcalf/miniconda2/envs/tf2gpu/share/psi4/basis/cc-pvdz.gbs

         ---------------------------------------------------------
                                   SCF
               by Justin Turney, Rob Parrish, Andy Simmonett
                          and Daniel G. A. Smith
                              RHF Reference
                        1 Threads,    500 MiB Core
         ---------------------------------------------------------

  ==> Geometry <==

    Molecular point group: c1
    Full point group: C1

    Geometry (in Angstrom), charge = 0, multiplicity = 1:

       Center              X                  Y                   Z               Mass
    ------------   -----------------  -----------------  -----------------  -----------------
         C           -3.151992471742     0.856530616472     0.382882230225    12.000000000000
         C           -3.310992471742     0.716530616472     1.891882230225    12.000000000000
         H           -3.004992471742    -0.123469383528    -0.075117769775     1.007825032230
         H           -4.047992471742     1.314530616472    -0.040117769775     1.007825032230
         H           -2.298992471742     1.499530616472     0.161882230225     1.007825032230
         H           -3.393992471742     1.715530616472     2.315882230225     1.007825032230
         H           -2.429172471742     0.209142616472     2.310152230225     1.007825032230
         H           -4.227822471742     0.154697616472     2.123772230225     1.007825032230
         C            0.263007528258    -0.340469383528    -0.694117769775    12.000000000000
         C            0.369007528258    -0.705469383528    -2.176117769775    12.000000000000
         C            1.593007528258    -0.183469383528     0.015882230225    12.000000000000
         O            1.746007528258     0.685530616472     0.883882230225    15.994914619570
         N            2.566007528258    -1.022469383528    -0.331117769775    14.003074004430
         H           -0.282992471742     0.599530616472    -0.609117769775     1.007825032230
         H           -0.295992471742    -1.111469383528    -0.163117769775     1.007825032230
         H            0.951007528258    -1.617469383528    -2.313117769775     1.007825032230
         H            0.877007528258     0.107530616472    -2.698117769775     1.007825032230
         H            3.468007528258    -0.921469383528     0.110882230225     1.007825032230
         H            2.408007528258    -1.738469383528    -1.026117769775     1.007825032230
         H           -0.624802471742    -0.853285383528    -2.623867769775     1.007825032230

  Running in c1 symmetry.

  Rotational constants: A =      0.10962  B =      0.02826  C =      0.02374 [cm^-1]
  Rotational constants: A =   3286.40300  B =    847.36061  C =    711.85177 [MHz]
  Nuclear repulsion =  297.259262581600922

  Charge       = 0
  Multiplicity = 1
  Electrons    = 58
  Nalpha       = 29
  Nbeta        = 29

  ==> Algorithm <==

  SCF Algorithm Type is PK.
  DIIS enabled.
  MOM disabled.
  Fractional occupation disabled.
  Guess Type is SAD.
  Energy threshold   = 1.00e-06
  Density threshold  = 1.00e-10
  Integral threshold = 0.00e+00

  ==> Primary Basis <==

  Basis Set: CC-PVDZ
    Blend: CC-PVDZ
    Number of shells: 81
    Number of basis function: 163
    Number of Cartesian functions: 170
    Spherical Harmonics?: true
    Max angular momentum: 2

  ==> Pre-Iterations <==

   -------------------------------------------------------
    Irrep   Nso     Nmo     Nalpha   Nbeta   Ndocc  Nsocc
   -------------------------------------------------------
     A        163     163       0       0       0       0
   -------------------------------------------------------
    Total     163     163      29      29      29       0
   -------------------------------------------------------

  ==> Integral Setup <==

  Using integral reordering PK algorithm.
  Sizing the integral batches needed.
  Building batch lookup table.
   Calculation information:
      Number of atoms:                  20
      Number of AO shells:              81
      Number of primitives:            219
      Number of atomic orbitals:       170
      Number of basis functions:       163

      Integral cutoff                 1.00e-12
      Number of threads:                 1

	Batch   1 pq = [       0,    9405] index = [             0,44231715] size =     44231715
	Batch   2 pq = [    9405,   13366] index = [      44231715,89331661] size =     45099946
  Task number: 9
  Buffer size: 11059200
  Buffer per thread: 2
  We computed 4553954 shell quartets total.
  Whereas there are 5516181 unique shell quartets.

  ==> DiskJK: Disk-Based J/K Matrices <==

    J tasked:                  Yes
    K tasked:                  Yes
    wK tasked:                  No
    Memory [MiB]:              375
    Schwarz Cutoff:          1E-12

    OpenMP threads:              1

  Minimum eigenvalue in the overlap matrix is 3.4291781088E-03.
  Using Symmetric Orthogonalization.

  SCF Guess: Superposition of Atomic Densities via on-the-fly atomic UHF.

  ==> Iterations <==

                        Total Energy        Delta E     RMS |[F,P]|

   @RHF iter SAD:  -324.94637310573199   -3.24946e+02   0.00000e+00
   @RHF iter   1:  -326.00532942263999   -1.05896e+00   4.11146e-03 DIIS
   @RHF iter   2:  -326.20261898812720   -1.97290e-01   2.26046e-03 DIIS
   @RHF iter   3:  -326.25576312045661   -5.31441e-02   4.88215e-04 DIIS
   @RHF iter   4:  -326.25953718936324   -3.77407e-03   2.05629e-04 DIIS
   @RHF iter   5:  -326.26022005688884   -6.82868e-04   2.98760e-05 DIIS
   @RHF iter   6:  -326.26025250305224   -3.24462e-05   1.26618e-05 DIIS
   @RHF iter   7:  -326.26025702948436   -4.52643e-06   5.36222e-06 DIIS
   @RHF iter   8:  -326.26025813839362   -1.10891e-06   1.96629e-06 DIIS
   @RHF iter   9:  -326.26025829506364   -1.56670e-07   4.48908e-07 DIIS
   @RHF iter  10:  -326.26025830154464   -6.48100e-09   1.45805e-07 DIIS
   @RHF iter  11:  -326.26025830214843   -6.03791e-10   3.73915e-08 DIIS
   @RHF iter  12:  -326.26025830219498   -4.65548e-11   9.45997e-09 DIIS
   @RHF iter  13:  -326.26025830219760   -2.61480e-12   2.12323e-09 DIIS
   @RHF iter  14:  -326.26025830220095   -3.35376e-12   9.00140e-10 DIIS
   @RHF iter  15:  -326.26025830219845    2.50111e-12   4.10590e-10 DIIS
   @RHF iter  16:  -326.26025830219919   -7.38964e-13   1.52878e-10 DIIS
   @RHF iter  17:  -326.26025830219959   -3.97904e-13   6.00943e-11 DIIS
  Energy and wave function converged.

  ==> Post-Iterations <==

    Orbital Energies [Eh]
    ---------------------

    Doubly Occupied:

       1A    -20.501730     2A    -15.588137     3A    -11.344665
       4A    -11.242199     5A    -11.240025     6A    -11.215903
       7A    -11.215252     8A     -1.359704     9A     -1.214709
      10A     -1.054869    11A     -1.017665    12A     -0.895494
      13A     -0.833047    14A     -0.790477    15A     -0.733504
      16A     -0.652521    17A     -0.624629    18A     -0.598764
      19A     -0.597711    20A     -0.591516    21A     -0.561292
      22A     -0.539255    23A     -0.514641    24A     -0.498641
      25A     -0.495830    26A     -0.483736    27A     -0.481695
      28A     -0.404272    29A     -0.400698

    Virtual:

      30A      0.156598    31A      0.180182    32A      0.196095
      33A      0.214792    34A      0.223041    35A      0.230450
      36A      0.236533    37A      0.252679    38A      0.264908
      39A      0.276906    40A      0.288965    41A      0.295891
      42A      0.308001    43A      0.368158    44A      0.387508
      45A      0.395416    46A      0.413579    47A      0.473626
      48A      0.562166    49A      0.572608    50A      0.599475
      51A      0.603898    52A      0.611040    53A      0.635457
      54A      0.659380    55A      0.678086    56A      0.685018
      57A      0.687430    58A      0.740173    59A      0.789301
      60A      0.804126    61A      0.812934    62A      0.840716
      63A      0.847928    64A      0.865740    65A      0.878521
      66A      0.883469    67A      0.894472    68A      0.898800
      69A      0.902670    70A      0.907924    71A      0.911947
      72A      0.931951    73A      0.942349    74A      0.960759
      75A      0.971585    76A      0.980583    77A      1.023711
      78A      1.049438    79A      1.092805    80A      1.114814
      81A      1.123567    82A      1.128443    83A      1.151247
      84A      1.241386    85A      1.298410    86A      1.319387
      87A      1.350207    88A      1.369414    89A      1.414198
      90A      1.421633    91A      1.446821    92A      1.482892
      93A      1.491506    94A      1.496578    95A      1.550748
      96A      1.585006    97A      1.651085    98A      1.682072
      99A      1.685657   100A      1.704783   101A      1.723804
     102A      1.755653   103A      1.815843   104A      1.845793
     105A      1.857252   106A      1.882125   107A      1.889458
     108A      1.896123   109A      1.905323   110A      1.922373
     111A      1.926406   112A      1.939971   113A      1.948019
     114A      1.954249   115A      1.961393   116A      1.964667
     117A      1.970700   118A      1.978104   119A      1.989818
     120A      2.009204   121A      2.018420   122A      2.050204
     123A      2.098671   124A      2.111268   125A      2.123247
     126A      2.177963   127A      2.225405   128A      2.291311
     129A      2.292715   130A      2.311407   131A      2.323531
     132A      2.363750   133A      2.408443   134A      2.454823
     135A      2.472541   136A      2.486803   137A      2.510598
     138A      2.545485   139A      2.562124   140A      2.576600
     141A      2.581617   142A      2.597286   143A      2.638847
     144A      2.722243   145A      2.752288   146A      2.766691
     147A      2.791898   148A      2.846741   149A      2.848280
     150A      2.850542   151A      2.865456   152A      2.887761
     153A      2.955459   154A      2.961206   155A      2.970108
     156A      3.023844   157A      3.099469   158A      3.140134
     159A      3.300382   160A      3.505712   161A      3.532869
     162A      3.850538   163A      3.892693

    Final Occupation by Irrep:
              A
    DOCC [    29 ]

  @RHF Final Energy:  -326.26025830219959

   => Energetics <=

    Nuclear Repulsion Energy =            297.2592625816009217
    One-Electron Energy =               -1031.6538760406517667
    Two-Electron Energy =                 408.1343551568511998
    Total Energy =                       -326.2602583021995883

Computation Completed

Properties will be evaluated at   0.000000,   0.000000,   0.000000 [a0]

Properties computed using the SCF density matrix

  Nuclear Dipole Moment: [e a0]
     X:   -12.0950      Y:    -0.7110      Z:    -2.3630

  Electronic Dipole Moment: [e a0]
     X:    12.1485      Y:    -0.5102      Z:     1.2161

  Dipole Moment: [e a0]
     X:     0.0536      Y:    -1.2212      Z:    -1.1469     Total:     1.6762

  Dipole Moment: [D]
     X:     0.1361      Y:    -3.1040      Z:    -2.9150     Total:     4.2604

*** tstop() called on ds3 at Tue Apr 28 09:04:37 2020
Module time:
	user time   =      28.86 seconds =       0.48 minutes
	system time =      12.22 seconds =       0.20 minutes
	total time  =         56 seconds =       0.93 minutes
Total time:
	user time   =      28.86 seconds =       0.48 minutes
	system time =      12.22 seconds =       0.20 minutes
	total time  =         56 seconds =       0.93 minutes
                                     G D M A

                                 by Anthony Stone

                           version 2.2.06, 22 June 2011

               Distributed Multipoles from Gaussian wavefunctions

Starting at 9:4:37 on 28 Apr 2020

Using SCF density matrix from file ./SSI/SSI-005LEU-023GLN-1-dimer.test.9400.fchk

                         Distributed Multipole Analysis

Standard DMA

Positions and radii in angstrom
Multipole moments in atomic units, ea_0^k for rank k

C          x = -3.151992  y =  0.856531  z =  0.382882 angstrom
           Maximum rank =  0   Radius =  0.650 angstrom
                   Q00  =  -0.228840

C          x = -3.310992  y =  0.716531  z =  1.891882 angstrom
           Maximum rank =  0   Radius =  0.650 angstrom
                   Q00  =  -0.240502

H          x = -3.004992  y = -0.123469  z = -0.075118 angstrom
           Maximum rank =  0   Radius =  0.325 angstrom
                   Q00  =   0.071284

H          x = -4.047992  y =  1.314531  z = -0.040118 angstrom
           Maximum rank =  0   Radius =  0.325 angstrom
                   Q00  =   0.076584

H          x = -2.298992  y =  1.499531  z =  0.161882 angstrom
           Maximum rank =  0   Radius =  0.325 angstrom
                   Q00  =   0.082398

H          x = -3.393992  y =  1.715531  z =  2.315882 angstrom
           Maximum rank =  0   Radius =  0.325 angstrom
                   Q00  =   0.081492

H          x = -2.429172  y =  0.209143  z =  2.310152 angstrom
           Maximum rank =  0   Radius =  0.325 angstrom
                   Q00  =   0.083684

H          x = -4.227822  y =  0.154698  z =  2.123772 angstrom
           Maximum rank =  0   Radius =  0.325 angstrom
                   Q00  =   0.074534

C          x =  0.263008  y = -0.340469  z = -0.694118 angstrom
           Maximum rank =  0   Radius =  0.650 angstrom
                   Q00  =  -0.104551

C          x =  0.369008  y = -0.705469  z = -2.176118 angstrom
           Maximum rank =  0   Radius =  0.650 angstrom
                   Q00  =  -0.242242

C          x =  1.593008  y = -0.183469  z =  0.015882 angstrom
           Maximum rank =  0   Radius =  0.650 angstrom
                   Q00  =   0.820585

O          x =  1.746008  y =  0.685531  z =  0.883882 angstrom
           Maximum rank =  0   Radius =  0.650 angstrom
                   Q00  =  -0.798040

N          x =  2.566008  y = -1.022469  z = -0.331118 angstrom
           Maximum rank =  0   Radius =  0.650 angstrom
                   Q00  =  -0.542536

H          x = -0.282992  y =  0.599531  z = -0.609118 angstrom
           Maximum rank =  0   Radius =  0.325 angstrom
                   Q00  =   0.094611

H          x = -0.295992  y = -1.111469  z = -0.163118 angstrom
           Maximum rank =  0   Radius =  0.325 angstrom
                   Q00  =   0.090555

H          x =  0.951008  y = -1.617469  z = -2.313118 angstrom
           Maximum rank =  0   Radius =  0.325 angstrom
                   Q00  =   0.060336

H          x =  0.877008  y =  0.107531  z = -2.698118 angstrom
           Maximum rank =  0   Radius =  0.325 angstrom
                   Q00  =   0.090516

H          x =  3.468008  y = -0.921469  z =  0.110882 angstrom
           Maximum rank =  0   Radius =  0.325 angstrom
                   Q00  =   0.221218

H          x =  2.408008  y = -1.738469  z = -1.026118 angstrom
           Maximum rank =  0   Radius =  0.325 angstrom
                   Q00  =   0.206224

H          x = -0.624802  y = -0.853285  z = -2.623868 angstrom
           Maximum rank =  0   Radius =  0.325 angstrom
                   Q00  =   0.102689

Total multipoles referred to origin at
           x =   0.000000,  y =    0.000000,  z =    0.000000 angstrom
                   Q00  =  -0.000000

Finished at 9:4:37 on 28 Apr 2020

  DMA results are available in the Python driver through the
	  variable('DMA DISTRIBUTED MULTIPOLES')
  and
	  variable('DMA TOTAL MULTIPOLES')
  commands.

    Psi4 stopped on: Tuesday, 28 April 2020 09:04AM
    Psi4 wall time for execution: 0:00:55.66

*** Psi4 exiting successfully. Buy a developer a beer!
