                               Psi4 1.3.2 release

  ==> Input File <==

--------------------------------------------------------------------------
import numpy as np
set {scf_type pk
basis cc-pvdz
d_convergence 10
gdma_switch   0
gdma_limit    0
gdma_origin   [ 0.0,  0.0,  0.0 ]
}
molecule test {
    units Angstrom
    0 1
    --
    0 1
    C                0.654842377424774     4.850157666594765    -2.235908001129735
    C               -0.078157622575226     1.259157666594765    -0.017908001129735
    C               -0.254157622575226     1.260157666594765    -1.384908001129735
    C                0.284842377424774     2.413157666594765     0.655091998870265
    C               -0.046157622575226     2.431157666594765    -2.101908001129735
    C                0.482842377424774     3.593157666594765    -0.064908001129735
    C                0.331842377424774     3.606157666594765    -1.447908001129735
    H               -0.249157622575226     0.351157666594765     0.537091998870265
    H               -0.542157622575226     0.349157666594765    -1.889908001129735
    H                0.414842377424774     2.398157666594765     1.729091998870265
    H               -0.163157622575226     2.428157666594765    -3.176908001129735
    H                0.780842377424774     4.490157666594766     0.457091998870265
    H                1.116842377424774     4.545157666594766    -3.176908001129735
    H                1.409842377424774     5.417157666594766    -1.688908001129735
    H               -0.194977622575226     5.509377666594765    -2.466638001129736
    C                2.225842377424774    -1.143842333405235     1.967091998870265
    C               -0.173157622575226    -1.881842333405235     2.122091998870265
    C                1.009842377424774    -1.817842333405235     1.384091998870265
    C               -1.328157622575226    -2.449842333405235     1.584091998870265
    C               -1.310157622575226    -2.971842333405235     0.288091998870265
    C                1.018842377424774    -2.354842333405235     0.085091998870265
    C               -0.124157622575226    -2.940842333405234    -0.441908001129735
    O               -2.419157622575226    -3.496842333405235    -0.308908001129735
    H               -0.201157622575226    -1.468842333405235     3.121091998870265
    H               -2.241157622575226    -2.470842333405235     2.162091998870265
    H                1.893842377424774    -0.440842333405235     2.730091998870265
    H                2.704842377424774    -0.548842333405235     1.188091998870265
    H                1.922842377424774    -2.312842333405235    -0.508908001129735
    H               -3.208157622575226    -3.416842333405235     0.257091998870265
    H               -0.106157622575226    -3.376842333405235    -1.427908001129735
    H                2.969529377424774    -1.822732333405235     2.409851998870265

}
e, wfn = energy('scf', return_wfn=True)
gdma(wfn)
dmavals = variable('DMA DISTRIBUTED MULTIPOLES')
charges = np.array(dmavals)
print(charges)
np.save('SSI-022PHE-168TYR-1-dimer.npy', np.array(charges))--------------------------------------------------------------------------

*** tstart() called on ds3
*** at Mon Apr 27 16:49:34 2020

   => Loading Basis Set <=

    Name: CC-PVDZ
    Role: ORBITAL
    Keyword: BASIS
    atoms 1-7, 16-22  entry C          line   138 file /theoryfs2/ds/metcalf/miniconda2/envs/tf2gpu/share/psi4/basis/cc-pvdz.gbs
    atoms 8-15, 24-31 entry H          line    22 file /theoryfs2/ds/metcalf/miniconda2/envs/tf2gpu/share/psi4/basis/cc-pvdz.gbs
    atoms 23          entry O          line   198 file /theoryfs2/ds/metcalf/miniconda2/envs/tf2gpu/share/psi4/basis/cc-pvdz.gbs

         ---------------------------------------------------------
                                   SCF
               by Justin Turney, Rob Parrish, Andy Simmonett
                          and Daniel G. A. Smith
                              RHF Reference
                        1 Threads,    500 MiB Core
         ---------------------------------------------------------

  ==> Geometry <==

    Molecular point group: c1
    Full point group: C1

    Geometry (in Angstrom), charge = 0, multiplicity = 1:

       Center              X                  Y                   Z               Mass
    ------------   -----------------  -----------------  -----------------  -----------------
         C            0.654842377425     4.850157666595    -2.235908001130    12.000000000000
         C           -0.078157622575     1.259157666595    -0.017908001130    12.000000000000
         C           -0.254157622575     1.260157666595    -1.384908001130    12.000000000000
         C            0.284842377425     2.413157666595     0.655091998870    12.000000000000
         C           -0.046157622575     2.431157666595    -2.101908001130    12.000000000000
         C            0.482842377425     3.593157666595    -0.064908001130    12.000000000000
         C            0.331842377425     3.606157666595    -1.447908001130    12.000000000000
         H           -0.249157622575     0.351157666595     0.537091998870     1.007825032230
         H           -0.542157622575     0.349157666595    -1.889908001130     1.007825032230
         H            0.414842377425     2.398157666595     1.729091998870     1.007825032230
         H           -0.163157622575     2.428157666595    -3.176908001130     1.007825032230
         H            0.780842377425     4.490157666595     0.457091998870     1.007825032230
         H            1.116842377425     4.545157666595    -3.176908001130     1.007825032230
         H            1.409842377425     5.417157666595    -1.688908001130     1.007825032230
         H           -0.194977622575     5.509377666595    -2.466638001130     1.007825032230
         C            2.225842377425    -1.143842333405     1.967091998870    12.000000000000
         C           -0.173157622575    -1.881842333405     2.122091998870    12.000000000000
         C            1.009842377425    -1.817842333405     1.384091998870    12.000000000000
         C           -1.328157622575    -2.449842333405     1.584091998870    12.000000000000
         C           -1.310157622575    -2.971842333405     0.288091998870    12.000000000000
         C            1.018842377425    -2.354842333405     0.085091998870    12.000000000000
         C           -0.124157622575    -2.940842333405    -0.441908001130    12.000000000000
         O           -2.419157622575    -3.496842333405    -0.308908001130    15.994914619570
         H           -0.201157622575    -1.468842333405     3.121091998870     1.007825032230
         H           -2.241157622575    -2.470842333405     2.162091998870     1.007825032230
         H            1.893842377425    -0.440842333405     2.730091998870     1.007825032230
         H            2.704842377425    -0.548842333405     1.188091998870     1.007825032230
         H            1.922842377425    -2.312842333405    -0.508908001130     1.007825032230
         H           -3.208157622575    -3.416842333405     0.257091998870     1.007825032230
         H           -0.106157622575    -3.376842333405    -1.427908001130     1.007825032230
         H            2.969529377425    -1.822732333405     2.409851998870     1.007825032230

  Running in c1 symmetry.

  Rotational constants: A =      0.03456  B =      0.00897  C =      0.00801 [cm^-1]
  Rotational constants: A =   1036.09915  B =    268.84943  C =    240.18287 [MHz]
  Nuclear repulsion =  885.504820967079354

  Charge       = 0
  Multiplicity = 1
  Electrons    = 108
  Nalpha       = 54
  Nbeta        = 54

  ==> Algorithm <==

  SCF Algorithm Type is PK.
  DIIS enabled.
  MOM disabled.
  Fractional occupation disabled.
  Guess Type is SAD.
  Energy threshold   = 1.00e-06
  Density threshold  = 1.00e-10
  Integral threshold = 0.00e+00

  ==> Primary Basis <==

  Basis Set: CC-PVDZ
    Blend: CC-PVDZ
    Number of shells: 138
    Number of basis function: 290
    Number of Cartesian functions: 305
    Spherical Harmonics?: true
    Max angular momentum: 2

  ==> Pre-Iterations <==

   -------------------------------------------------------
    Irrep   Nso     Nmo     Nalpha   Nbeta   Ndocc  Nsocc
   -------------------------------------------------------
     A        290     290       0       0       0       0
   -------------------------------------------------------
    Total     290     290      54      54      54       0
   -------------------------------------------------------

  ==> Integral Setup <==

  Using integral reordering PK algorithm.
  Sizing the integral batches needed.
  Building batch lookup table.
   Calculation information:
      Number of atoms:                  31
      Number of AO shells:             138
      Number of primitives:            410
      Number of atomic orbitals:       305
      Number of basis functions:       290

      Integral cutoff                 1.00e-12
      Number of threads:                 1

	Batch   1 pq = [       0,    9405] index = [             0,44231715] size =     44231715
	Batch   2 pq = [    9405,   13301] index = [      44231715,88464951] size =     44233236
	Batch   3 pq = [   13301,   16290] index = [      88464951,132690195] size =     44225244
	Batch   4 pq = [   16290,   18810] index = [     132690195,176917455] size =     44227260
	Batch   5 pq = [   18810,   21030] index = [     176917455,221140965] size =     44223510
	Batch   6 pq = [   21030,   23037] index = [     221140965,265363203] size =     44222238
	Batch   7 pq = [   23037,   24883] index = [     265363203,309594286] size =     44231083
	Batch   8 pq = [   24883,   26601] index = [     309594286,353819901] size =     44225615
	Batch   9 pq = [   26601,   28214] index = [     353819901,398029005] size =     44209104
	Batch  10 pq = [   28214,   29740] index = [     398029005,442248670] size =     44219665
	Batch  11 pq = [   29740,   31191] index = [     442248670,486454836] size =     44206166
	Batch  12 pq = [   31191,   32578] index = [     486454836,530679331] size =     44224495
	Batch  13 pq = [   32578,   33908] index = [     530679331,574893186] size =     44213855
	Batch  14 pq = [   33908,   35188] index = [     574893186,619115266] size =     44222080
	Batch  15 pq = [   35188,   36423] index = [     619115266,663335676] size =     44220410
	Batch  16 pq = [   36423,   37617] index = [     663335676,707538153] size =     44202477
	Batch  17 pq = [   37617,   38775] index = [     707538153,751769700] size =     44231547
	Batch  18 pq = [   38775,   39899] index = [     751769700,795985050] size =     44215350
	Batch  19 pq = [   39899,   40992] index = [     795985050,840192528] size =     44207478
	Batch  20 pq = [   40992,   42057] index = [     840192528,884416653] size =     44224125
	Batch  21 pq = [   42057,   42195] index = [     884416653,890230110] size =      5813457
  Task number: 81
  Buffer size: 11059200
  Buffer per thread: 2
  We computed 43097216 shell quartets total.
  Whereas there are 45998436 unique shell quartets.

  ==> DiskJK: Disk-Based J/K Matrices <==

    J tasked:                  Yes
    K tasked:                  Yes
    wK tasked:                  No
    Memory [MiB]:              375
    Schwarz Cutoff:          1E-12

    OpenMP threads:              1

  Minimum eigenvalue in the overlap matrix is 2.9120616972E-04.
  Using Symmetric Orthogonalization.

  SCF Guess: Superposition of Atomic Densities via on-the-fly atomic UHF.

  ==> Iterations <==

                        Total Energy        Delta E     RMS |[F,P]|

   @RHF iter SAD:  -613.20516141583630   -6.13205e+02   0.00000e+00
   @RHF iter   1:  -614.06019052427223   -8.55029e-01   2.37394e-03 DIIS
   @RHF iter   2:  -614.33626867012936   -2.76078e-01   9.84174e-04 DIIS
   @RHF iter   3:  -614.37773310067405   -4.14644e-02   2.33937e-04 DIIS
   @RHF iter   4:  -614.38130219367895   -3.56909e-03   9.12262e-05 DIIS
   @RHF iter   5:  -614.38170917484319   -4.06981e-04   1.74694e-05 DIIS
   @RHF iter   6:  -614.38173101427105   -2.18394e-05   5.91866e-06 DIIS
   @RHF iter   7:  -614.38173358716381   -2.57289e-06   1.76431e-06 DIIS
   @RHF iter   8:  -614.38173395639205   -3.69228e-07   7.28331e-07 DIIS
   @RHF iter   9:  -614.38173402765347   -7.12614e-08   3.22921e-07 DIIS
   @RHF iter  10:  -614.38173404416978   -1.65163e-08   1.37871e-07 DIIS
   @RHF iter  11:  -614.38173404938391   -5.21413e-09   5.96107e-08 DIIS
   @RHF iter  12:  -614.38173405017130   -7.87395e-10   2.54956e-08 DIIS
   @RHF iter  13:  -614.38173405027635   -1.05047e-10   7.03950e-09 DIIS
   @RHF iter  14:  -614.38173405028806   -1.17097e-11   2.19865e-09 DIIS
   @RHF iter  15:  -614.38173405028317    4.88853e-12   8.20294e-10 DIIS
   @RHF iter  16:  -614.38173405028738   -4.20641e-12   3.84622e-10 DIIS
   @RHF iter  17:  -614.38173405028374    3.63798e-12   1.91436e-10 DIIS
   @RHF iter  18:  -614.38173405028795   -4.20641e-12   8.01489e-11 DIIS
  Energy and wave function converged.

  ==> Post-Iterations <==

    Orbital Energies [Eh]
    ---------------------

    Doubly Occupied:

       1A    -20.587868     2A    -11.303000     3A    -11.240945
       4A    -11.240700     5A    -11.237086     6A    -11.236234
       7A    -11.234844     8A    -11.231954     9A    -11.228435
      10A    -11.227447    11A    -11.225642    12A    -11.225596
      13A    -11.225413    14A    -11.224390    15A    -11.217878
      16A     -1.399566    17A     -1.151504    18A     -1.147956
      19A     -1.039539    20A     -1.037489    21A     -1.019418
      22A     -1.006094    23A     -0.926854    24A     -0.925709
      25A     -0.845157    26A     -0.820105    27A     -0.802731
      28A     -0.788747    29A     -0.732017    30A     -0.685827
      31A     -0.668815    32A     -0.642482    33A     -0.625784
      34A     -0.623989    35A     -0.606802    36A     -0.588969
      37A     -0.587401    38A     -0.577610    39A     -0.573711
      40A     -0.571944    41A     -0.568261    42A     -0.552869
      43A     -0.529117    44A     -0.525790    45A     -0.500039
      46A     -0.484905    47A     -0.482194    48A     -0.479967
      49A     -0.478267    50A     -0.463092    51A     -0.341723
      52A     -0.326631    53A     -0.316866    54A     -0.302012

    Virtual:

      55A      0.126597    56A      0.141547    57A      0.145640
      58A      0.154210    59A      0.175560    60A      0.178680
      61A      0.194887    62A      0.204159    63A      0.216617
      64A      0.223101    65A      0.231246    66A      0.251262
      67A      0.256256    68A      0.268433    69A      0.270279
      70A      0.278917    71A      0.285929    72A      0.289684
      73A      0.304504    74A      0.313683    75A      0.367498
      76A      0.371570    77A      0.376579    78A      0.383811
      79A      0.425317    80A      0.448797    81A      0.460442
      82A      0.469583    83A      0.479025    84A      0.484641
      85A      0.492549    86A      0.498573    87A      0.508554
      88A      0.563536    89A      0.594261    90A      0.606720
      91A      0.635639    92A      0.641639    93A      0.645651
      94A      0.661394    95A      0.670492    96A      0.674706
      97A      0.692658    98A      0.695181    99A      0.712156
     100A      0.723303   101A      0.726313   102A      0.729728
     103A      0.735517   104A      0.737841   105A      0.743463
     106A      0.748393   107A      0.753691   108A      0.758814
     109A      0.762629   110A      0.777007   111A      0.783775
     112A      0.788526   113A      0.798280   114A      0.813326
     115A      0.825976   116A      0.835497   117A      0.843087
     118A      0.848032   119A      0.862693   120A      0.870326
     121A      0.876848   122A      0.878400   123A      0.885825
     124A      0.891841   125A      0.895126   126A      0.900286
     127A      0.904652   128A      0.914959   129A      0.919556
     130A      0.923134   131A      0.933786   132A      0.941988
     133A      0.945074   134A      0.947370   135A      0.966800
     136A      0.989852   137A      1.011306   138A      1.012747
     139A      1.025124   140A      1.040256   141A      1.048417
     142A      1.105009   143A      1.119940   144A      1.131960
     145A      1.151964   146A      1.157574   147A      1.162350
     148A      1.164906   149A      1.168994   150A      1.183017
     151A      1.208677   152A      1.217917   153A      1.243116
     154A      1.249178   155A      1.254780   156A      1.257407
     157A      1.268305   158A      1.272488   159A      1.276787
     160A      1.288997   161A      1.295432   162A      1.305319
     163A      1.309992   164A      1.323523   165A      1.326957
     166A      1.337073   167A      1.355259   168A      1.362931
     169A      1.367573   170A      1.389066   171A      1.440624
     172A      1.483024   173A      1.494298   174A      1.512431
     175A      1.520111   176A      1.536818   177A      1.545960
     178A      1.585741   179A      1.595995   180A      1.612408
     181A      1.617355   182A      1.684528   183A      1.689033
     184A      1.701942   185A      1.705361   186A      1.731092
     187A      1.740767   188A      1.745252   189A      1.762728
     190A      1.773709   191A      1.788473   192A      1.794482
     193A      1.802969   194A      1.817356   195A      1.825972
     196A      1.865249   197A      1.872627   198A      1.888506
     199A      1.895815   200A      1.899585   201A      1.903269
     202A      1.906975   203A      1.912652   204A      1.917875
     205A      1.922555   206A      1.926385   207A      1.932300
     208A      1.948239   209A      1.955889   210A      1.964898
     211A      1.967902   212A      1.977534   213A      1.990265
     214A      1.994149   215A      2.006736   216A      2.019015
     217A      2.031085   218A      2.048681   219A      2.051576
     220A      2.059020   221A      2.064284   222A      2.076571
     223A      2.079416   224A      2.082928   225A      2.118121
     226A      2.137538   227A      2.143125   228A      2.152234
     229A      2.164275   230A      2.177601   231A      2.179761
     232A      2.189984   233A      2.198740   234A      2.217196
     235A      2.226598   236A      2.253375   237A      2.258920
     238A      2.273786   239A      2.282475   240A      2.296380
     241A      2.304875   242A      2.312384   243A      2.320788
     244A      2.337439   245A      2.360162   246A      2.383177
     247A      2.426036   248A      2.435799   249A      2.466341
     250A      2.474565   251A      2.488606   252A      2.502929
     253A      2.506812   254A      2.533186   255A      2.539036
     256A      2.552668   257A      2.596964   258A      2.624772
     259A      2.626894   260A      2.750062   261A      2.755083
     262A      2.769767   263A      2.771060   264A      2.777494
     265A      2.791046   266A      2.804094   267A      2.817316
     268A      2.836086   269A      2.856107   270A      2.870830
     271A      2.877851   272A      2.905124   273A      2.964521
     274A      2.989870   275A      3.011682   276A      3.031674
     277A      3.036068   278A      3.079598   279A      3.105332
     280A      3.166920   281A      3.224200   282A      3.241121
     283A      3.279837   284A      3.312752   285A      3.339989
     286A      3.562487   287A      3.670167   288A      3.942421
     289A      3.987457   290A      4.179795

    Final Occupation by Irrep:
              A
    DOCC [    54 ]

  @RHF Final Energy:  -614.38173405028795

   => Energetics <=

    Nuclear Repulsion Energy =            885.5048209670793540
    One-Electron Energy =               -2590.5023437020809070
    Two-Electron Energy =                1090.6157886847136069
    Total Energy =                       -614.3817340502878324

Computation Completed

Properties will be evaluated at   0.000000,   0.000000,   0.000000 [a0]

Properties computed using the SCF density matrix

  Nuclear Dipole Moment: [e a0]
     X:     5.9013      Y:     9.0109      Z:     0.2380

  Electronic Dipole Moment: [e a0]
     X:    -6.0257      Y:    -8.8617      Z:     0.1992

  Dipole Moment: [e a0]
     X:    -0.1244      Y:     0.1492      Z:     0.4372     Total:     0.4784

  Dipole Moment: [D]
     X:    -0.3162      Y:     0.3792      Z:     1.1113     Total:     1.2160

*** tstop() called on ds3 at Mon Apr 27 17:02:52 2020
Module time:
	user time   =     386.20 seconds =       6.44 minutes
	system time =     146.32 seconds =       2.44 minutes
	total time  =        798 seconds =      13.30 minutes
Total time:
	user time   =     386.20 seconds =       6.44 minutes
	system time =     146.32 seconds =       2.44 minutes
	total time  =        798 seconds =      13.30 minutes
                                     G D M A

                                 by Anthony Stone

                           version 2.2.06, 22 June 2011

               Distributed Multipoles from Gaussian wavefunctions

Starting at 17:2:52 on 27 Apr 2020

Using SCF density matrix from file ./SSI/SSI-022PHE-168TYR-1-dimer.test.28225.fchk

                         Distributed Multipole Analysis

Standard DMA

Positions and radii in angstrom
Multipole moments in atomic units, ea_0^k for rank k

C          x =  0.654842  y =  4.850158  z = -2.235908 angstrom
           Maximum rank =  0   Radius =  0.650 angstrom
                   Q00  =  -0.199986

C          x = -0.078158  y =  1.259158  z = -0.017908 angstrom
           Maximum rank =  0   Radius =  0.650 angstrom
                   Q00  =  -0.017992

C          x = -0.254158  y =  1.260158  z = -1.384908 angstrom
           Maximum rank =  0   Radius =  0.650 angstrom
                   Q00  =  -0.062726

C          x =  0.284842  y =  2.413158  z =  0.655092 angstrom
           Maximum rank =  0   Radius =  0.650 angstrom
                   Q00  =  -0.073342

C          x = -0.046158  y =  2.431158  z = -2.101908 angstrom
           Maximum rank =  0   Radius =  0.650 angstrom
                   Q00  =  -0.049819

C          x =  0.482842  y =  3.593158  z = -0.064908 angstrom
           Maximum rank =  0   Radius =  0.650 angstrom
                   Q00  =  -0.088809

C          x =  0.331842  y =  3.606158  z = -1.447908 angstrom
           Maximum rank =  0   Radius =  0.650 angstrom
                   Q00  =  -0.108611

H          x = -0.249158  y =  0.351158  z =  0.537092 angstrom
           Maximum rank =  0   Radius =  0.325 angstrom
                   Q00  =   0.070552

H          x = -0.542158  y =  0.349158  z = -1.889908 angstrom
           Maximum rank =  0   Radius =  0.325 angstrom
                   Q00  =   0.063266

H          x =  0.414842  y =  2.398158  z =  1.729092 angstrom
           Maximum rank =  0   Radius =  0.325 angstrom
                   Q00  =   0.056620

H          x = -0.163158  y =  2.428158  z = -3.176908 angstrom
           Maximum rank =  0   Radius =  0.325 angstrom
                   Q00  =   0.053944

H          x =  0.780842  y =  4.490158  z =  0.457092 angstrom
           Maximum rank =  0   Radius =  0.325 angstrom
                   Q00  =   0.054768

H          x =  1.116842  y =  4.545158  z = -3.176908 angstrom
           Maximum rank =  0   Radius =  0.325 angstrom
                   Q00  =   0.095421

H          x =  1.409842  y =  5.417158  z = -1.688908 angstrom
           Maximum rank =  0   Radius =  0.325 angstrom
                   Q00  =   0.095340

H          x = -0.194978  y =  5.509378  z = -2.466638 angstrom
           Maximum rank =  0   Radius =  0.325 angstrom
                   Q00  =   0.103904

C          x =  2.225842  y = -1.143842  z =  1.967092 angstrom
           Maximum rank =  0   Radius =  0.650 angstrom
                   Q00  =  -0.197576

C          x = -0.173158  y = -1.881842  z =  2.122092 angstrom
           Maximum rank =  0   Radius =  0.650 angstrom
                   Q00  =   0.004957

C          x =  1.009842  y = -1.817842  z =  1.384092 angstrom
           Maximum rank =  0   Radius =  0.650 angstrom
                   Q00  =  -0.139415

C          x = -1.328158  y = -2.449842  z =  1.584092 angstrom
           Maximum rank =  0   Radius =  0.650 angstrom
                   Q00  =  -0.194258

C          x = -1.310158  y = -2.971842  z =  0.288092 angstrom
           Maximum rank =  0   Radius =  0.650 angstrom
                   Q00  =   0.316771

C          x =  1.018842  y = -2.354842  z =  0.085092 angstrom
           Maximum rank =  0   Radius =  0.650 angstrom
                   Q00  =  -0.050613

C          x = -0.124158  y = -2.940842  z = -0.441908 angstrom
           Maximum rank =  0   Radius =  0.650 angstrom
                   Q00  =  -0.059077

O          x = -2.419158  y = -3.496842  z = -0.308908 angstrom
           Maximum rank =  0   Radius =  0.650 angstrom
                   Q00  =  -0.670829

H          x = -0.201158  y = -1.468842  z =  3.121092 angstrom
           Maximum rank =  0   Radius =  0.325 angstrom
                   Q00  =   0.069001

H          x = -2.241158  y = -2.470842  z =  2.162092 angstrom
           Maximum rank =  0   Radius =  0.325 angstrom
                   Q00  =   0.074747

H          x =  1.893842  y = -0.440842  z =  2.730092 angstrom
           Maximum rank =  0   Radius =  0.325 angstrom
                   Q00  =   0.092980

H          x =  2.704842  y = -0.548842  z =  1.188092 angstrom
           Maximum rank =  0   Radius =  0.325 angstrom
                   Q00  =   0.102191

H          x =  1.922842  y = -2.312842  z = -0.508908 angstrom
           Maximum rank =  0   Radius =  0.325 angstrom
                   Q00  =   0.067162

H          x = -3.208158  y = -3.416842  z =  0.257092 angstrom
           Maximum rank =  0   Radius =  0.325 angstrom
                   Q00  =   0.410288

H          x = -0.106158  y = -3.376842  z = -1.427908 angstrom
           Maximum rank =  0   Radius =  0.325 angstrom
                   Q00  =   0.079695

H          x =  2.969529  y = -1.822732  z =  2.409852 angstrom
           Maximum rank =  0   Radius =  0.325 angstrom
                   Q00  =   0.101445

Total multipoles referred to origin at
           x =   0.000000,  y =    0.000000,  z =    0.000000 angstrom
                   Q00  =  -0.000000

Finished at 17:2:52 on 27 Apr 2020

  DMA results are available in the Python driver through the
	  variable('DMA DISTRIBUTED MULTIPOLES')
  and
	  variable('DMA TOTAL MULTIPOLES')
  commands.

    Psi4 stopped on: Monday, 27 April 2020 05:02PM
    Psi4 wall time for execution: 0:13:18.12

*** Psi4 exiting successfully. Buy a developer a beer!
