                               Psi4 1.3.2 release

  ==> Input File <==

--------------------------------------------------------------------------
import numpy as np
set {scf_type pk
basis cc-pvdz
d_convergence 10
gdma_switch   0
gdma_limit    0
gdma_origin   [ 0.0,  0.0,  0.0 ]
}
molecule test {
    units Angstrom
    -1 1
    --
    -1 1
    C               -0.904846771377890    -0.426241850987553    -2.450423618413808
    C                0.537153228622110     0.057758149012447    -2.666423618413807
    C               -1.045846771377890    -1.931241850987553    -2.209423618413807
    O               -0.072846771377890    -2.592241850987552    -1.772423618413807
    O               -2.159846771377889    -2.442241850987553    -2.480423618413807
    H               -1.315846771377889     0.103758149012447    -1.590423618413807
    H               -1.505846771377890    -0.130241850987553    -3.313423618413807
    H                1.117153228622111    -0.168241850987553    -1.773423618413807
    H                0.507153228622110     1.141758149012447    -2.757423618413807
    H                1.053883228622110    -0.363341850987553    -3.541445618413807
    C               -0.563846771377890     3.333758149012447     1.885576381586193
    C               -0.379846771377890     0.953758149012447     1.103576381586193
    C                0.131153228622110     1.996758149012447     1.868576381586193
    C                0.262153228622110    -0.281241850987553     1.076576381586193
    C                1.316153228622110     1.799758149012447     2.580576381586193
    C                1.427153228622110    -0.472241850987553     1.797576381586193
    C                1.959153228622110     0.566758149012447     2.546576381586193
    H               -1.278846771377890     1.098758149012447     0.523576381586193
    H               -0.143846771377890    -1.093241850987553     0.491576381586193
    H               -1.408846771377890     3.328758149012447     1.194576381586193
    H                0.151153228622110     4.065758149012447     1.510576381586193
    H                1.746153228622110     2.609758149012448     3.153576381586193
    H                1.926153228622111    -1.431241850987553     1.765576381586193
    H                2.884153228622110     0.429758149012447     3.075576381586193
    H               -0.905336771377890     3.659468149012447     2.879206381586192

}
e, wfn = energy('scf', return_wfn=True)
gdma(wfn)
dmavals = variable('DMA DISTRIBUTED MULTIPOLES')
charges = np.array(dmavals)
print(charges)
np.save('SSI-042GLU-095PHE-1-dimer.npy', np.array(charges))--------------------------------------------------------------------------

*** tstart() called on ds3
*** at Mon Apr 27 21:05:24 2020

   => Loading Basis Set <=

    Name: CC-PVDZ
    Role: ORBITAL
    Keyword: BASIS
    atoms 1-3, 11-17  entry C          line   138 file /theoryfs2/ds/metcalf/miniconda2/envs/tf2gpu/share/psi4/basis/cc-pvdz.gbs
    atoms 4-5         entry O          line   198 file /theoryfs2/ds/metcalf/miniconda2/envs/tf2gpu/share/psi4/basis/cc-pvdz.gbs
    atoms 6-10, 18-25 entry H          line    22 file /theoryfs2/ds/metcalf/miniconda2/envs/tf2gpu/share/psi4/basis/cc-pvdz.gbs

         ---------------------------------------------------------
                                   SCF
               by Justin Turney, Rob Parrish, Andy Simmonett
                          and Daniel G. A. Smith
                              RHF Reference
                        1 Threads,    500 MiB Core
         ---------------------------------------------------------

  ==> Geometry <==

    Molecular point group: c1
    Full point group: C1

    Geometry (in Angstrom), charge = -1, multiplicity = 1:

       Center              X                  Y                   Z               Mass
    ------------   -----------------  -----------------  -----------------  -----------------
         C           -0.904846771378    -0.426241850988    -2.450423618414    12.000000000000
         C            0.537153228622     0.057758149012    -2.666423618414    12.000000000000
         C           -1.045846771378    -1.931241850988    -2.209423618414    12.000000000000
         O           -0.072846771378    -2.592241850988    -1.772423618414    15.994914619570
         O           -2.159846771378    -2.442241850988    -2.480423618414    15.994914619570
         H           -1.315846771378     0.103758149012    -1.590423618414     1.007825032230
         H           -1.505846771378    -0.130241850988    -3.313423618414     1.007825032230
         H            1.117153228622    -0.168241850988    -1.773423618414     1.007825032230
         H            0.507153228622     1.141758149012    -2.757423618414     1.007825032230
         H            1.053883228622    -0.363341850988    -3.541445618414     1.007825032230
         C           -0.563846771378     3.333758149012     1.885576381586    12.000000000000
         C           -0.379846771378     0.953758149012     1.103576381586    12.000000000000
         C            0.131153228622     1.996758149012     1.868576381586    12.000000000000
         C            0.262153228622    -0.281241850988     1.076576381586    12.000000000000
         C            1.316153228622     1.799758149012     2.580576381586    12.000000000000
         C            1.427153228622    -0.472241850988     1.797576381586    12.000000000000
         C            1.959153228622     0.566758149012     2.546576381586    12.000000000000
         H           -1.278846771378     1.098758149012     0.523576381586     1.007825032230
         H           -0.143846771378    -1.093241850988     0.491576381586     1.007825032230
         H           -1.408846771378     3.328758149012     1.194576381586     1.007825032230
         H            0.151153228622     4.065758149012     1.510576381586     1.007825032230
         H            1.746153228622     2.609758149012     3.153576381586     1.007825032230
         H            1.926153228622    -1.431241850988     1.765576381586     1.007825032230
         H            2.884153228622     0.429758149012     3.075576381586     1.007825032230
         H           -0.905336771378     3.659468149012     2.879206381586     1.007825032230

  Running in c1 symmetry.

  Rotational constants: A =      0.05142  B =      0.01313  C =      0.01189 [cm^-1]
  Rotational constants: A =   1541.67333  B =    393.68999  C =    356.45108 [MHz]
  Nuclear repulsion =  636.955639624366881

  Charge       = -1
  Multiplicity = 1
  Electrons    = 90
  Nalpha       = 45
  Nbeta        = 45

  ==> Algorithm <==

  SCF Algorithm Type is PK.
  DIIS enabled.
  MOM disabled.
  Fractional occupation disabled.
  Guess Type is SAD.
  Energy threshold   = 1.00e-06
  Density threshold  = 1.00e-10
  Integral threshold = 0.00e+00

  ==> Primary Basis <==

  Basis Set: CC-PVDZ
    Blend: CC-PVDZ
    Number of shells: 111
    Number of basis function: 233
    Number of Cartesian functions: 245
    Spherical Harmonics?: true
    Max angular momentum: 2

  ==> Pre-Iterations <==

   -------------------------------------------------------
    Irrep   Nso     Nmo     Nalpha   Nbeta   Ndocc  Nsocc
   -------------------------------------------------------
     A        233     233       0       0       0       0
   -------------------------------------------------------
    Total     233     233      45      45      45       0
   -------------------------------------------------------

  ==> Integral Setup <==

  Using integral reordering PK algorithm.
  Sizing the integral batches needed.
  Building batch lookup table.
   Calculation information:
      Number of atoms:                  25
      Number of AO shells:             111
      Number of primitives:            329
      Number of atomic orbitals:       245
      Number of basis functions:       233

      Integral cutoff                 1.00e-12
      Number of threads:                 1

	Batch   1 pq = [       0,    9405] index = [             0,44231715] size =     44231715
	Batch   2 pq = [    9405,   13301] index = [      44231715,88464951] size =     44233236
	Batch   3 pq = [   13301,   16290] index = [      88464951,132690195] size =     44225244
	Batch   4 pq = [   16290,   18810] index = [     132690195,176917455] size =     44227260
	Batch   5 pq = [   18810,   21030] index = [     176917455,221140965] size =     44223510
	Batch   6 pq = [   21030,   23037] index = [     221140965,265363203] size =     44222238
	Batch   7 pq = [   23037,   24883] index = [     265363203,309594286] size =     44231083
	Batch   8 pq = [   24883,   26601] index = [     309594286,353819901] size =     44225615
	Batch   9 pq = [   26601,   27261] index = [     353819901,371594691] size =     17774790
  Task number: 34
  Buffer size: 11059200
  Buffer per thread: 2
  We computed 17853440 shell quartets total.
  Whereas there are 19322436 unique shell quartets.

  ==> DiskJK: Disk-Based J/K Matrices <==

    J tasked:                  Yes
    K tasked:                  Yes
    wK tasked:                  No
    Memory [MiB]:              375
    Schwarz Cutoff:          1E-12

    OpenMP threads:              1

  Minimum eigenvalue in the overlap matrix is 2.9852914609E-04.
  Using Symmetric Orthogonalization.

  SCF Guess: Superposition of Atomic Densities via on-the-fly atomic UHF.

  ==> Iterations <==

                        Total Energy        Delta E     RMS |[F,P]|

   @RHF iter SAD:  -534.38001587374993   -5.34380e+02   0.00000e+00
   @RHF iter   1:  -535.68261249115881   -1.30260e+00   3.45692e-03 DIIS
   @RHF iter   2:  -535.96570630377869   -2.83094e-01   1.85443e-03 DIIS
   @RHF iter   3:  -536.03777817219384   -7.20719e-02   3.24010e-04 DIIS
   @RHF iter   4:  -536.04166672530016   -3.88855e-03   1.21745e-04 DIIS
   @RHF iter   5:  -536.04216973663745   -5.03011e-04   1.85590e-05 DIIS
   @RHF iter   6:  -536.04218663594224   -1.68993e-05   5.61529e-06 DIIS
   @RHF iter   7:  -536.04218815511285   -1.51917e-06   2.21188e-06 DIIS
   @RHF iter   8:  -536.04218839247744   -2.37365e-07   8.17668e-07 DIIS
   @RHF iter   9:  -536.04218844754416   -5.50667e-08   4.03276e-07 DIIS
   @RHF iter  10:  -536.04218846647416   -1.89300e-08   1.57067e-07 DIIS
   @RHF iter  11:  -536.04218847063657   -4.16242e-09   7.05239e-08 DIIS
   @RHF iter  12:  -536.04218847114510   -5.08521e-10   2.80362e-08 DIIS
   @RHF iter  13:  -536.04218847123343   -8.83347e-11   9.33963e-09 DIIS
   @RHF iter  14:  -536.04218847124139   -7.95808e-12   3.73625e-09 DIIS
   @RHF iter  15:  -536.04218847124287   -1.47793e-12   1.40689e-09 DIIS
   @RHF iter  16:  -536.04218847124332   -4.54747e-13   6.08016e-10 DIIS
   @RHF iter  17:  -536.04218847124275    5.68434e-13   2.81533e-10 DIIS
   @RHF iter  18:  -536.04218847124821   -5.45697e-12   8.47249e-11 DIIS
  Energy and wave function converged.

  ==> Post-Iterations <==

    Orbital Energies [Eh]
    ---------------------

    Doubly Occupied:

       1A    -20.270015     2A    -20.259934     3A    -11.149853
       4A    -11.149107     5A    -11.142882     6A    -11.139834
       7A    -11.130892     8A    -11.130435     9A    -11.126313
      10A    -11.119533    11A    -11.072226    12A    -11.058379
      13A     -1.150980    14A     -1.059245    15A     -1.038654
      16A     -0.953886    17A     -0.915712    18A     -0.870758
      19A     -0.843579    20A     -0.729951    21A     -0.705282
      22A     -0.700569    23A     -0.596542    24A     -0.539775
      25A     -0.533374    26A     -0.511307    27A     -0.495117
      28A     -0.487120    29A     -0.470162    30A     -0.455136
      31A     -0.451329    32A     -0.432219    33A     -0.394646
      34A     -0.391129    35A     -0.389623    36A     -0.384716
      37A     -0.364221    38A     -0.362665    39A     -0.326788
      40A     -0.302449    41A     -0.236094    42A     -0.228008
      43A     -0.186156    44A     -0.175204    45A     -0.164527

    Virtual:

      46A      0.230442    47A      0.237058    48A      0.266389
      49A      0.288553    50A      0.309449    51A      0.331065
      52A      0.340031    53A      0.345419    54A      0.350909
      55A      0.364381    56A      0.389926    57A      0.397225
      58A      0.421904    59A      0.438310    60A      0.441773
      61A      0.463255    62A      0.469970    63A      0.512084
      64A      0.547110    65A      0.554506    66A      0.568311
      67A      0.577352    68A      0.593618    69A      0.616273
      70A      0.669272    71A      0.694616    72A      0.697445
      73A      0.703927    74A      0.720949    75A      0.743097
      76A      0.769790    77A      0.788846    78A      0.791772
      79A      0.797989    80A      0.816632    81A      0.831942
      82A      0.840109    83A      0.844445    84A      0.854776
      85A      0.861252    86A      0.878723    87A      0.888902
      88A      0.911733    89A      0.917288    90A      0.944996
      91A      0.950878    92A      0.960864    93A      0.964538
      94A      0.970592    95A      0.988024    96A      0.996610
      97A      1.001554    98A      1.006923    99A      1.010413
     100A      1.018430   101A      1.027421   102A      1.043990
     103A      1.047702   104A      1.062601   105A      1.074951
     106A      1.089555   107A      1.096760   108A      1.110542
     109A      1.130206   110A      1.138187   111A      1.157243
     112A      1.171282   113A      1.222850   114A      1.229996
     115A      1.254828   116A      1.259493   117A      1.290098
     118A      1.299592   119A      1.310692   120A      1.313490
     121A      1.339649   122A      1.348854   123A      1.351639
     124A      1.374011   125A      1.393889   126A      1.402876
     127A      1.405075   128A      1.422841   129A      1.430469
     130A      1.469699   131A      1.493423   132A      1.517452
     133A      1.560585   134A      1.585631   135A      1.606813
     136A      1.615818   137A      1.636174   138A      1.643490
     139A      1.644576   140A      1.670998   141A      1.700674
     142A      1.722335   143A      1.760950   144A      1.771806
     145A      1.807993   146A      1.827959   147A      1.838191
     148A      1.841692   149A      1.868081   150A      1.874365
     151A      1.883916   152A      1.910037   153A      1.913855
     154A      1.950895   155A      1.984287   156A      1.990217
     157A      1.996956   158A      2.014862   159A      2.019065
     160A      2.027239   161A      2.034162   162A      2.043131
     163A      2.053296   164A      2.064423   165A      2.070063
     166A      2.077711   167A      2.097307   168A      2.110421
     169A      2.131397   170A      2.138847   171A      2.145738
     172A      2.162299   173A      2.172745   174A      2.185186
     175A      2.200086   176A      2.213629   177A      2.225093
     178A      2.229582   179A      2.260051   180A      2.265331
     181A      2.270277   182A      2.281955   183A      2.301359
     184A      2.333171   185A      2.351750   186A      2.365016
     187A      2.386818   188A      2.397653   189A      2.400331
     190A      2.430905   191A      2.461047   192A      2.500957
     193A      2.504889   194A      2.534555   195A      2.543719
     196A      2.573799   197A      2.585691   198A      2.613772
     199A      2.633774   200A      2.668458   201A      2.697088
     202A      2.725071   203A      2.771289   204A      2.805774
     205A      2.831083   206A      2.849866   207A      2.858162
     208A      2.896121   209A      2.922342   210A      2.926333
     211A      2.930828   212A      2.960321   213A      3.009428
     214A      3.027510   215A      3.073289   216A      3.081650
     217A      3.108661   218A      3.122703   219A      3.144595
     220A      3.243973   221A      3.266899   222A      3.283597
     223A      3.297303   224A      3.307733   225A      3.360475
     226A      3.411982   227A      3.627485   228A      3.778902
     229A      3.820317   230A      4.047215   231A      4.076483
     232A      4.079087   233A      4.190161

    Final Occupation by Irrep:
              A
    DOCC [    45 ]

  @RHF Final Energy:  -536.04218847124821

   => Energetics <=

    Nuclear Repulsion Energy =            636.9556396243668814
    One-Electron Energy =               -2006.8030057324706377
    Two-Electron Energy =                 833.8051776368556602
    Total Energy =                       -536.0421884712482097

Computation Completed

Properties will be evaluated at   0.000000,   0.000000,   0.000000 [a0]

Properties computed using the SCF density matrix

  Nuclear Dipole Moment: [e a0]
     X:     2.6397      Y:    12.3987      Z:     1.4965

  Electronic Dipole Moment: [e a0]
     X:    -0.8558      Y:    -7.9736      Z:     2.0526

  Dipole Moment: [e a0]
     X:     1.7840      Y:     4.4251      Z:     3.5490     Total:     5.9464

  Dipole Moment: [D]
     X:     4.5344      Y:    11.2475      Z:     9.0208     Total:    15.1142

*** tstop() called on ds3 at Mon Apr 27 21:10:18 2020
Module time:
	user time   =     135.64 seconds =       2.26 minutes
	system time =      54.82 seconds =       0.91 minutes
	total time  =        294 seconds =       4.90 minutes
Total time:
	user time   =     135.64 seconds =       2.26 minutes
	system time =      54.82 seconds =       0.91 minutes
	total time  =        294 seconds =       4.90 minutes
                                     G D M A

                                 by Anthony Stone

                           version 2.2.06, 22 June 2011

               Distributed Multipoles from Gaussian wavefunctions

Starting at 21:10:18 on 27 Apr 2020

Using SCF density matrix from file ./SSI/SSI-042GLU-095PHE-1-dimer.test.23233.fchk

                         Distributed Multipole Analysis

Standard DMA

Positions and radii in angstrom
Multipole moments in atomic units, ea_0^k for rank k

C          x = -0.904847  y = -0.426242  z = -2.450424 angstrom
           Maximum rank =  0   Radius =  0.650 angstrom
                   Q00  =  -0.148049

C          x =  0.537153  y =  0.057758  z = -2.666424 angstrom
           Maximum rank =  0   Radius =  0.650 angstrom
                   Q00  =  -0.228802

C          x = -1.045847  y = -1.931242  z = -2.209424 angstrom
           Maximum rank =  0   Radius =  0.650 angstrom
                   Q00  =   1.010151

O          x = -0.072847  y = -2.592242  z = -1.772424 angstrom
           Maximum rank =  0   Radius =  0.650 angstrom
                   Q00  =  -0.952805

O          x = -2.159847  y = -2.442242  z = -2.480424 angstrom
           Maximum rank =  0   Radius =  0.650 angstrom
                   Q00  =  -0.933528

H          x = -1.315847  y =  0.103758  z = -1.590424 angstrom
           Maximum rank =  0   Radius =  0.325 angstrom
                   Q00  =   0.046488

H          x = -1.505847  y = -0.130242  z = -3.313424 angstrom
           Maximum rank =  0   Radius =  0.325 angstrom
                   Q00  =   0.036461

H          x =  1.117153  y = -0.168242  z = -1.773424 angstrom
           Maximum rank =  0   Radius =  0.325 angstrom
                   Q00  =   0.094796

H          x =  0.507153  y =  1.141758  z = -2.757424 angstrom
           Maximum rank =  0   Radius =  0.325 angstrom
                   Q00  =   0.018904

H          x =  1.053883  y = -0.363342  z = -3.541446 angstrom
           Maximum rank =  0   Radius =  0.325 angstrom
                   Q00  =   0.071997

C          x = -0.563847  y =  3.333758  z =  1.885576 angstrom
           Maximum rank =  0   Radius =  0.650 angstrom
                   Q00  =  -0.210018

C          x = -0.379847  y =  0.953758  z =  1.103576 angstrom
           Maximum rank =  0   Radius =  0.650 angstrom
                   Q00  =  -0.044355

C          x =  0.131153  y =  1.996758  z =  1.868576 angstrom
           Maximum rank =  0   Radius =  0.650 angstrom
                   Q00  =  -0.098849

C          x =  0.262153  y = -0.281242  z =  1.076576 angstrom
           Maximum rank =  0   Radius =  0.650 angstrom
                   Q00  =   0.016938

C          x =  1.316153  y =  1.799758  z =  2.580576 angstrom
           Maximum rank =  0   Radius =  0.650 angstrom
                   Q00  =  -0.107138

C          x =  1.427153  y = -0.472242  z =  1.797576 angstrom
           Maximum rank =  0   Radius =  0.650 angstrom
                   Q00  =  -0.075223

C          x =  1.959153  y =  0.566758  z =  2.546576 angstrom
           Maximum rank =  0   Radius =  0.650 angstrom
                   Q00  =  -0.046259

H          x = -1.278847  y =  1.098758  z =  0.523576 angstrom
           Maximum rank =  0   Radius =  0.325 angstrom
                   Q00  =   0.059936

H          x = -0.143847  y = -1.093242  z =  0.491576 angstrom
           Maximum rank =  0   Radius =  0.325 angstrom
                   Q00  =   0.076302

H          x = -1.408847  y =  3.328758  z =  1.194576 angstrom
           Maximum rank =  0   Radius =  0.325 angstrom
                   Q00  =   0.099822

H          x =  0.151153  y =  4.065758  z =  1.510576 angstrom
           Maximum rank =  0   Radius =  0.325 angstrom
                   Q00  =   0.089412

H          x =  1.746153  y =  2.609758  z =  3.153576 angstrom
           Maximum rank =  0   Radius =  0.325 angstrom
                   Q00  =   0.032665

H          x =  1.926153  y = -1.431242  z =  1.765576 angstrom
           Maximum rank =  0   Radius =  0.325 angstrom
                   Q00  =   0.059947

H          x =  2.884153  y =  0.429758  z =  3.075576 angstrom
           Maximum rank =  0   Radius =  0.325 angstrom
                   Q00  =   0.043567

H          x = -0.905337  y =  3.659468  z =  2.879206 angstrom
           Maximum rank =  0   Radius =  0.325 angstrom
                   Q00  =   0.087641

Total multipoles referred to origin at
           x =   0.000000,  y =    0.000000,  z =    0.000000 angstrom
                   Q00  =  -1.000000

Finished at 21:10:18 on 27 Apr 2020

  DMA results are available in the Python driver through the
	  variable('DMA DISTRIBUTED MULTIPOLES')
  and
	  variable('DMA TOTAL MULTIPOLES')
  commands.

    Psi4 stopped on: Monday, 27 April 2020 09:10PM
    Psi4 wall time for execution: 0:04:54.50

*** Psi4 exiting successfully. Buy a developer a beer!
