                               Psi4 1.3.2 release

  ==> Input File <==

--------------------------------------------------------------------------
import numpy as np
set {scf_type pk
basis cc-pvdz
d_convergence 10
gdma_switch   0
gdma_limit    0
gdma_origin   [ 0.0,  0.0,  0.0 ]
}
molecule test {
    units Angstrom
    0 1
    --
    0 1
    C                0.410065358481544     0.156270271879638    -2.544279918963669
    C               -0.210934641518456    -1.143729728120362    -2.062279918963668
    O               -0.531934641518456    -2.026729728120361    -2.858279918963669
    N               -0.389934641518456    -1.279729728120362    -0.757279918963669
    H               -0.780934641518456    -2.144729728120362    -0.417279918963669
    H               -0.182934641518456    -0.535729728120362    -0.100279918963669
    H                1.340065358481544    -0.083729728120362    -3.062279918963668
    H                0.671065358481544     0.789270271879638    -1.695279918963669
    H               -0.245874641518456     0.705878571879638    -3.235419918963669
    C               -0.623934641518456     1.881270271879638     2.937720081036332
    C                0.180065358481544     0.998270271879638     2.003720081036331
    O               -0.083934641518456    -0.193729728120362     1.860720081036332
    N                1.186065358481544     1.575270271879638     1.366720081036331
    H               -0.738934641518456     2.866270271879638     2.491720081036331
    H               -0.039934641518456     2.000270271879638     3.851720081036331
    H                1.798065358481544     1.006270271879639     0.801720081036331
    H                1.413065358481544     2.542270271879638     1.548720081036332
    H               -1.607014641518456     1.459232971879638     3.193520081036331

}
e, wfn = energy('scf', return_wfn=True)
gdma(wfn)
dmavals = variable('DMA DISTRIBUTED MULTIPOLES')
charges = np.array(dmavals)
print(charges)
np.save('SSI-066GLN-070ASN-1-dimer.npy', np.array(charges))--------------------------------------------------------------------------

*** tstart() called on ds3
*** at Tue Apr 28 21:41:49 2020

   => Loading Basis Set <=

    Name: CC-PVDZ
    Role: ORBITAL
    Keyword: BASIS
    atoms 1-2, 10-11 entry C          line   138 file /theoryfs2/ds/metcalf/miniconda2/envs/tf2gpu/share/psi4/basis/cc-pvdz.gbs
    atoms 3, 12      entry O          line   198 file /theoryfs2/ds/metcalf/miniconda2/envs/tf2gpu/share/psi4/basis/cc-pvdz.gbs
    atoms 4, 13      entry N          line   168 file /theoryfs2/ds/metcalf/miniconda2/envs/tf2gpu/share/psi4/basis/cc-pvdz.gbs
    atoms 5-9, 14-18 entry H          line    22 file /theoryfs2/ds/metcalf/miniconda2/envs/tf2gpu/share/psi4/basis/cc-pvdz.gbs

         ---------------------------------------------------------
                                   SCF
               by Justin Turney, Rob Parrish, Andy Simmonett
                          and Daniel G. A. Smith
                              RHF Reference
                        1 Threads,    500 MiB Core
         ---------------------------------------------------------

  ==> Geometry <==

    Molecular point group: c1
    Full point group: C1

    Geometry (in Angstrom), charge = 0, multiplicity = 1:

       Center              X                  Y                   Z               Mass
    ------------   -----------------  -----------------  -----------------  -----------------
         C            0.410065358482     0.156270271880    -2.544279918964    12.000000000000
         C           -0.210934641518    -1.143729728120    -2.062279918964    12.000000000000
         O           -0.531934641518    -2.026729728120    -2.858279918964    15.994914619570
         N           -0.389934641518    -1.279729728120    -0.757279918964    14.003074004430
         H           -0.780934641518    -2.144729728120    -0.417279918964     1.007825032230
         H           -0.182934641518    -0.535729728120    -0.100279918964     1.007825032230
         H            1.340065358482    -0.083729728120    -3.062279918964     1.007825032230
         H            0.671065358482     0.789270271880    -1.695279918964     1.007825032230
         H           -0.245874641518     0.705878571880    -3.235419918964     1.007825032230
         C           -0.623934641518     1.881270271880     2.937720081036    12.000000000000
         C            0.180065358482     0.998270271880     2.003720081036    12.000000000000
         O           -0.083934641518    -0.193729728120     1.860720081036    15.994914619570
         N            1.186065358482     1.575270271880     1.366720081036    14.003074004430
         H           -0.738934641518     2.866270271880     2.491720081036     1.007825032230
         H           -0.039934641518     2.000270271880     3.851720081036     1.007825032230
         H            1.798065358482     1.006270271880     0.801720081036     1.007825032230
         H            1.413065358482     2.542270271880     1.548720081036     1.007825032230
         H           -1.607014641518     1.459232971880     3.193520081036     1.007825032230

  Running in c1 symmetry.

  Rotational constants: A =      0.14173  B =      0.02306  C =      0.02101 [cm^-1]
  Rotational constants: A =   4248.96169  B =    691.19229  C =    629.81654 [MHz]
  Nuclear repulsion =  362.804569674753338

  Charge       = 0
  Multiplicity = 1
  Electrons    = 64
  Nalpha       = 32
  Nbeta        = 32

  ==> Algorithm <==

  SCF Algorithm Type is PK.
  DIIS enabled.
  MOM disabled.
  Fractional occupation disabled.
  Guess Type is SAD.
  Energy threshold   = 1.00e-06
  Density threshold  = 1.00e-10
  Integral threshold = 0.00e+00

  ==> Primary Basis <==

  Basis Set: CC-PVDZ
    Blend: CC-PVDZ
    Number of shells: 78
    Number of basis function: 162
    Number of Cartesian functions: 170
    Spherical Harmonics?: true
    Max angular momentum: 2

  ==> Pre-Iterations <==

   -------------------------------------------------------
    Irrep   Nso     Nmo     Nalpha   Nbeta   Ndocc  Nsocc
   -------------------------------------------------------
     A        162     162       0       0       0       0
   -------------------------------------------------------
    Total     162     162      32      32      32       0
   -------------------------------------------------------

  ==> Integral Setup <==

  Using integral reordering PK algorithm.
  Sizing the integral batches needed.
  Building batch lookup table.
   Calculation information:
      Number of atoms:                  18
      Number of AO shells:              78
      Number of primitives:            226
      Number of atomic orbitals:       170
      Number of basis functions:       162

      Integral cutoff                 1.00e-12
      Number of threads:                 1

	Batch   1 pq = [       0,    9405] index = [             0,44231715] size =     44231715
	Batch   2 pq = [    9405,   13203] index = [      44231715,87166206] size =     42934491
  Task number: 8
  Buffer size: 11059200
  Buffer per thread: 2
  We computed 3729450 shell quartets total.
  Whereas there are 4747821 unique shell quartets.

  ==> DiskJK: Disk-Based J/K Matrices <==

    J tasked:                  Yes
    K tasked:                  Yes
    wK tasked:                  No
    Memory [MiB]:              375
    Schwarz Cutoff:          1E-12

    OpenMP threads:              1

  Minimum eigenvalue in the overlap matrix is 4.4897038585E-03.
  Using Symmetric Orthogonalization.

  SCF Guess: Superposition of Atomic Densities via on-the-fly atomic UHF.

  ==> Iterations <==

                        Total Energy        Delta E     RMS |[F,P]|

   @RHF iter SAD:  -414.56472597045041   -4.14565e+02   0.00000e+00
   @RHF iter   1:  -415.70375797716645   -1.13903e+00   4.66680e-03 DIIS
   @RHF iter   2:  -415.91592121759680   -2.12163e-01   2.74840e-03 DIIS
   @RHF iter   3:  -415.98652338691841   -7.06022e-02   5.17369e-04 DIIS
   @RHF iter   4:  -415.99073121903359   -4.20783e-03   1.95875e-04 DIIS
   @RHF iter   5:  -415.99144682095027   -7.15602e-04   3.65134e-05 DIIS
   @RHF iter   6:  -415.99149636408271   -4.95431e-05   1.85920e-05 DIIS
   @RHF iter   7:  -415.99150591567047   -9.55159e-06   6.98211e-06 DIIS
   @RHF iter   8:  -415.99150789381167   -1.97814e-06   2.09425e-06 DIIS
   @RHF iter   9:  -415.99150807818569   -1.84374e-07   4.64249e-07 DIIS
   @RHF iter  10:  -415.99150808545062   -7.26493e-09   2.04745e-07 DIIS
   @RHF iter  11:  -415.99150808607874   -6.28120e-10   4.87199e-08 DIIS
   @RHF iter  12:  -415.99150808614070   -6.19593e-11   1.43555e-08 DIIS
   @RHF iter  13:  -415.99150808614780   -7.10543e-12   5.14894e-09 DIIS
   @RHF iter  14:  -415.99150808614758    2.27374e-13   1.60396e-09 DIIS
   @RHF iter  15:  -415.99150808614985   -2.27374e-12   5.99029e-10 DIIS
   @RHF iter  16:  -415.99150808614843    1.42109e-12   2.31105e-10 DIIS
   @RHF iter  17:  -415.99150808614792    5.11591e-13   8.81670e-11 DIIS
  Energy and wave function converged.

  ==> Post-Iterations <==

    Orbital Energies [Eh]
    ---------------------

    Doubly Occupied:

       1A    -20.533148     2A    -20.479372     3A    -15.616029
       4A    -15.556696     5A    -11.375792     6A    -11.326904
       7A    -11.262043     8A    -11.232889     9A     -1.399502
      10A     -1.343561    11A     -1.245934    12A     -1.187890
      13A     -1.022139    14A     -0.985740    15A     -0.826422
      16A     -0.776847    17A     -0.754068    18A     -0.705636
      19A     -0.676262    20A     -0.635973    21A     -0.635442
      22A     -0.596627    23A     -0.594925    24A     -0.580847
      25A     -0.552835    26A     -0.546713    27A     -0.539895
      28A     -0.503087    29A     -0.439440    30A     -0.434213
      31A     -0.388397    32A     -0.376027

    Virtual:

      33A      0.140158    34A      0.173908    35A      0.182277
      36A      0.209115    37A      0.215656    38A      0.222435
      39A      0.245050    40A      0.246226    41A      0.258991
      42A      0.281824    43A      0.296021    44A      0.329704
      45A      0.362473    46A      0.402008    47A      0.472048
      48A      0.487399    49A      0.526949    50A      0.588556
      51A      0.615317    52A      0.643896    53A      0.653432
      54A      0.666999    55A      0.695329    56A      0.700008
      57A      0.718356    58A      0.726120    59A      0.734930
      60A      0.758843    61A      0.767847    62A      0.772896
      63A      0.827665    64A      0.842289    65A      0.852229
      66A      0.868800    67A      0.879406    68A      0.895848
      69A      0.908981    70A      0.927344    71A      0.930890
      72A      0.949344    73A      0.980871    74A      1.007911
      75A      1.025354    76A      1.047642    77A      1.054946
      78A      1.068415    79A      1.117671    80A      1.142086
      81A      1.162538    82A      1.202272    83A      1.307656
      84A      1.323672    85A      1.350249    86A      1.369266
      87A      1.385078    88A      1.389153    89A      1.397207
      90A      1.422791    91A      1.434450    92A      1.443188
      93A      1.465454    94A      1.476475    95A      1.483786
      96A      1.588954    97A      1.637874    98A      1.638593
      99A      1.641596   100A      1.674348   101A      1.695105
     102A      1.740742   103A      1.784645   104A      1.817892
     105A      1.845357   106A      1.868632   107A      1.877572
     108A      1.881759   109A      1.901847   110A      1.912576
     111A      1.930887   112A      1.940696   113A      1.945580
     114A      1.958101   115A      1.965556   116A      2.011304
     117A      2.015737   118A      2.057738   119A      2.088984
     120A      2.118154   121A      2.130823   122A      2.167534
     123A      2.201848   124A      2.244189   125A      2.252534
     126A      2.341590   127A      2.387950   128A      2.422674
     129A      2.435371   130A      2.445625   131A      2.473426
     132A      2.477088   133A      2.511126   134A      2.573746
     135A      2.588279   136A      2.592090   137A      2.604152
     138A      2.669188   139A      2.692540   140A      2.726140
     141A      2.755234   142A      2.783076   143A      2.799874
     144A      2.819119   145A      2.857245   146A      2.858944
     147A      2.963087   148A      3.025244   149A      3.063076
     150A      3.103868   151A      3.130266   152A      3.150808
     153A      3.255044   154A      3.340925   155A      3.493472
     156A      3.503368   157A      3.537475   158A      3.554444
     159A      3.842900   160A      3.890416   161A      3.903342
     162A      3.926690

    Final Occupation by Irrep:
              A
    DOCC [    32 ]

  @RHF Final Energy:  -415.99150808614792

   => Energetics <=

    Nuclear Repulsion Energy =            362.8045696747533384
    One-Electron Energy =               -1287.3295667708239307
    Two-Electron Energy =                 508.5334890099226755
    Total Energy =                       -415.9915080861479169

Computation Completed

Properties will be evaluated at   0.000000,   0.000000,   0.000000 [a0]

Properties computed using the SCF density matrix

  Nuclear Dipole Moment: [e a0]
     X:     1.5196      Y:     8.0557      Z:     3.1591

  Electronic Dipole Moment: [e a0]
     X:    -0.5225      Y:    -5.2897      Z:    -1.3768

  Dipole Moment: [e a0]
     X:     0.9972      Y:     2.7660      Z:     1.7824     Total:     3.4383

  Dipole Moment: [D]
     X:     2.5346      Y:     7.0304      Z:     4.5303     Total:     8.7393

*** tstop() called on ds3 at Tue Apr 28 21:42:29 2020
Module time:
	user time   =      29.03 seconds =       0.48 minutes
	system time =      12.91 seconds =       0.22 minutes
	total time  =         40 seconds =       0.67 minutes
Total time:
	user time   =      29.03 seconds =       0.48 minutes
	system time =      12.91 seconds =       0.22 minutes
	total time  =         40 seconds =       0.67 minutes
                                     G D M A

                                 by Anthony Stone

                           version 2.2.06, 22 June 2011

               Distributed Multipoles from Gaussian wavefunctions

Starting at 21:42:29 on 28 Apr 2020

Using SCF density matrix from file ./SSI/SSI-066GLN-070ASN-1-dimer.test.26074.fchk

                         Distributed Multipole Analysis

Standard DMA

Positions and radii in angstrom
Multipole moments in atomic units, ea_0^k for rank k

C          x =  0.410065  y =  0.156270  z = -2.544280 angstrom
           Maximum rank =  0   Radius =  0.650 angstrom
                   Q00  =  -0.259698

C          x = -0.210935  y = -1.143730  z = -2.062280 angstrom
           Maximum rank =  0   Radius =  0.650 angstrom
                   Q00  =   0.827558

O          x = -0.531935  y = -2.026730  z = -2.858280 angstrom
           Maximum rank =  0   Radius =  0.650 angstrom
                   Q00  =  -0.816352

N          x = -0.389935  y = -1.279730  z = -0.757280 angstrom
           Maximum rank =  0   Radius =  0.650 angstrom
                   Q00  =  -0.535615

H          x = -0.780935  y = -2.144730  z = -0.417280 angstrom
           Maximum rank =  0   Radius =  0.325 angstrom
                   Q00  =   0.217177

H          x = -0.182935  y = -0.535730  z = -0.100280 angstrom
           Maximum rank =  0   Radius =  0.325 angstrom
                   Q00  =   0.233226

H          x =  1.340065  y = -0.083730  z = -3.062280 angstrom
           Maximum rank =  0   Radius =  0.325 angstrom
                   Q00  =   0.126170

H          x =  0.671065  y =  0.789270  z = -1.695280 angstrom
           Maximum rank =  0   Radius =  0.325 angstrom
                   Q00  =   0.053885

H          x = -0.245875  y =  0.705879  z = -3.235420 angstrom
           Maximum rank =  0   Radius =  0.325 angstrom
                   Q00  =   0.130084

C          x = -0.623935  y =  1.881270  z =  2.937720 angstrom
           Maximum rank =  0   Radius =  0.650 angstrom
                   Q00  =  -0.252666

C          x =  0.180065  y =  0.998270  z =  2.003720 angstrom
           Maximum rank =  0   Radius =  0.650 angstrom
                   Q00  =   0.802439

O          x = -0.083935  y = -0.193730  z =  1.860720 angstrom
           Maximum rank =  0   Radius =  0.650 angstrom
                   Q00  =  -0.790606

N          x =  1.186065  y =  1.575270  z =  1.366720 angstrom
           Maximum rank =  0   Radius =  0.650 angstrom
                   Q00  =  -0.533876

H          x = -0.738935  y =  2.866270  z =  2.491720 angstrom
           Maximum rank =  0   Radius =  0.325 angstrom
                   Q00  =   0.089951

H          x = -0.039935  y =  2.000270  z =  3.851720 angstrom
           Maximum rank =  0   Radius =  0.325 angstrom
                   Q00  =   0.128589

H          x =  1.798065  y =  1.006270  z =  0.801720 angstrom
           Maximum rank =  0   Radius =  0.325 angstrom
                   Q00  =   0.227712

H          x =  1.413065  y =  2.542270  z =  1.548720 angstrom
           Maximum rank =  0   Radius =  0.325 angstrom
                   Q00  =   0.214027

H          x = -1.607015  y =  1.459233  z =  3.193520 angstrom
           Maximum rank =  0   Radius =  0.325 angstrom
                   Q00  =   0.137993

Total multipoles referred to origin at
           x =   0.000000,  y =    0.000000,  z =    0.000000 angstrom
                   Q00  =  -0.000000

Finished at 21:42:29 on 28 Apr 2020

  DMA results are available in the Python driver through the
	  variable('DMA DISTRIBUTED MULTIPOLES')
  and
	  variable('DMA TOTAL MULTIPOLES')
  commands.

    Psi4 stopped on: Tuesday, 28 April 2020 09:42PM
    Psi4 wall time for execution: 0:00:40.88

*** Psi4 exiting successfully. Buy a developer a beer!
