                               Psi4 1.3.2 release

  ==> Input File <==

--------------------------------------------------------------------------
import numpy as np
set {scf_type pk
basis cc-pvdz
d_convergence 10
gdma_switch   0
gdma_limit    0
gdma_origin   [ 0.0,  0.0,  0.0 ]
}
molecule test {
    units Angstrom
    1 1
    --
    1 1
    C               -0.246322666834984    -0.634751987299163    -1.357262748258331
    C               -0.584322666834984    -0.967751987299163    -4.053262748258332
    S                0.484677333165016    -1.487751987299163    -2.707262748258331
    H               -1.334322666834984    -0.721751987299163    -1.381262748258332
    H                0.124677333165016    -1.103751987299163    -0.452262748258331
    H                0.079677333165016     0.401248012700837    -1.396262748258331
    H               -1.474322666834984    -1.578751987299163    -3.900262748258332
    H               -0.260322666834984    -1.355751987299163    -5.004262748258331
    H               -0.985282666834984     0.055729112700837    -4.011808748258332
    C               -1.117322666834983     2.251248012700836     3.344737251741668
    C                0.244677333165016     0.655248012700837     2.008737251741669
    N                0.125677333165016     1.759248012700837     2.733737251741668
    N               -0.762322666834984    -0.156751987299163     1.781737251741669
    N                1.404677333165016     0.344248012700837     1.471737251741668
    H                0.961677333165016     2.317248012700837     2.868737251741669
    H               -1.675322666834984     0.057248012700837     2.154737251741669
    H               -0.622322666834984    -1.066751987299164     1.370737251741669
    H                2.220677333165017     0.916248012700837     1.684737251741668
    H                1.553677333165016    -0.522751987299163     0.978737251741668
    H               -1.955322666834984     2.094248012700836     2.666737251741668
    H               -1.038322666834983     3.332248012700837     3.480737251741669
    H               -1.361182666834984     1.797334112700837     4.316587251741669

}
e, wfn = energy('scf', return_wfn=True)
gdma(wfn)
dmavals = variable('DMA DISTRIBUTED MULTIPOLES')
charges = np.array(dmavals)
print(charges)
np.save('SSI-040MET-085ARG-1-dimer.npy', np.array(charges))--------------------------------------------------------------------------

*** tstart() called on ds3
*** at Mon Apr 27 21:24:37 2020

   => Loading Basis Set <=

    Name: CC-PVDZ
    Role: ORBITAL
    Keyword: BASIS
    atoms 1-2, 10-11 entry C          line   138 file /theoryfs2/ds/metcalf/miniconda2/envs/tf2gpu/share/psi4/basis/cc-pvdz.gbs
    atoms 3          entry S          line   598 file /theoryfs2/ds/metcalf/miniconda2/envs/tf2gpu/share/psi4/basis/cc-pvdz.gbs
    atoms 4-9, 15-22 entry H          line    22 file /theoryfs2/ds/metcalf/miniconda2/envs/tf2gpu/share/psi4/basis/cc-pvdz.gbs
    atoms 12-14      entry N          line   168 file /theoryfs2/ds/metcalf/miniconda2/envs/tf2gpu/share/psi4/basis/cc-pvdz.gbs

         ---------------------------------------------------------
                                   SCF
               by Justin Turney, Rob Parrish, Andy Simmonett
                          and Daniel G. A. Smith
                              RHF Reference
                        1 Threads,    500 MiB Core
         ---------------------------------------------------------

  ==> Geometry <==

    Molecular point group: c1
    Full point group: C1

    Geometry (in Angstrom), charge = 1, multiplicity = 1:

       Center              X                  Y                   Z               Mass
    ------------   -----------------  -----------------  -----------------  -----------------
         C           -0.246322666835    -0.634751987299    -1.357262748258    12.000000000000
         C           -0.584322666835    -0.967751987299    -4.053262748258    12.000000000000
         S            0.484677333165    -1.487751987299    -2.707262748258    31.972071174400
         H           -1.334322666835    -0.721751987299    -1.381262748258     1.007825032230
         H            0.124677333165    -1.103751987299    -0.452262748258     1.007825032230
         H            0.079677333165     0.401248012701    -1.396262748258     1.007825032230
         H           -1.474322666835    -1.578751987299    -3.900262748258     1.007825032230
         H           -0.260322666835    -1.355751987299    -5.004262748258     1.007825032230
         H           -0.985282666835     0.055729112701    -4.011808748258     1.007825032230
         C           -1.117322666835     2.251248012701     3.344737251742    12.000000000000
         C            0.244677333165     0.655248012701     2.008737251742    12.000000000000
         N            0.125677333165     1.759248012701     2.733737251742    14.003074004430
         N           -0.762322666835    -0.156751987299     1.781737251742    14.003074004430
         N            1.404677333165     0.344248012701     1.471737251742    14.003074004430
         H            0.961677333165     2.317248012701     2.868737251742     1.007825032230
         H           -1.675322666835     0.057248012701     2.154737251742     1.007825032230
         H           -0.622322666835    -1.066751987299     1.370737251742     1.007825032230
         H            2.220677333165     0.916248012701     1.684737251742     1.007825032230
         H            1.553677333165    -0.522751987299     0.978737251742     1.007825032230
         H           -1.955322666835     2.094248012701     2.666737251742     1.007825032230
         H           -1.038322666835     3.332248012701     3.480737251742     1.007825032230
         H           -1.361182666835     1.797334112701     4.316587251742     1.007825032230

  Running in c1 symmetry.

  Rotational constants: A =      0.13031  B =      0.01453  C =      0.01388 [cm^-1]
  Rotational constants: A =   3906.53797  B =    435.63450  C =    416.21659 [MHz]
  Nuclear repulsion =  448.171603808881287

  Charge       = 1
  Multiplicity = 1
  Electrons    = 74
  Nalpha       = 37
  Nbeta        = 37

  ==> Algorithm <==

  SCF Algorithm Type is PK.
  DIIS enabled.
  MOM disabled.
  Fractional occupation disabled.
  Guess Type is SAD.
  Energy threshold   = 1.00e-06
  Density threshold  = 1.00e-10
  Integral threshold = 0.00e+00

  ==> Primary Basis <==

  Basis Set: CC-PVDZ
    Blend: CC-PVDZ
    Number of shells: 92
    Number of basis function: 186
    Number of Cartesian functions: 194
    Spherical Harmonics?: true
    Max angular momentum: 2

  ==> Pre-Iterations <==

   -------------------------------------------------------
    Irrep   Nso     Nmo     Nalpha   Nbeta   Ndocc  Nsocc
   -------------------------------------------------------
     A        186     186       0       0       0       0
   -------------------------------------------------------
    Total     186     186      37      37      37       0
   -------------------------------------------------------

  ==> Integral Setup <==

  Using integral reordering PK algorithm.
  Sizing the integral batches needed.
  Building batch lookup table.
   Calculation information:
      Number of atoms:                  22
      Number of AO shells:              92
      Number of primitives:            274
      Number of atomic orbitals:       194
      Number of basis functions:       186

      Integral cutoff                 1.00e-12
      Number of threads:                 1

	Batch   1 pq = [       0,    9405] index = [             0,44231715] size =     44231715
	Batch   2 pq = [    9405,   13301] index = [      44231715,88464951] size =     44233236
	Batch   3 pq = [   13301,   16290] index = [      88464951,132690195] size =     44225244
	Batch   4 pq = [   16290,   17391] index = [     132690195,151232136] size =     18541941
  Task number: 14
  Buffer size: 11059200
  Buffer per thread: 2
  We computed 6778301 shell quartets total.
  Whereas there are 9152781 unique shell quartets.

  ==> DiskJK: Disk-Based J/K Matrices <==

    J tasked:                  Yes
    K tasked:                  Yes
    wK tasked:                  No
    Memory [MiB]:              375
    Schwarz Cutoff:          1E-12

    OpenMP threads:              1

  Minimum eigenvalue in the overlap matrix is 3.6598139700E-03.
  Using Symmetric Orthogonalization.

  SCF Guess: Superposition of Atomic Densities via on-the-fly atomic UHF.

  ==> Iterations <==

                        Total Energy        Delta E     RMS |[F,P]|

   @RHF iter SAD:  -719.82254555802024   -7.19823e+02   0.00000e+00
   @RHF iter   1:  -720.13259347521205   -3.10048e-01   2.93894e-03 DIIS
   @RHF iter   2:  -720.29783831539646   -1.65245e-01   1.07190e-03 DIIS
   @RHF iter   3:  -720.31783553611399   -1.99972e-02   3.03957e-04 DIIS
   @RHF iter   4:  -720.32029121633627   -2.45568e-03   4.88104e-05 DIIS
   @RHF iter   5:  -720.32036743095955   -7.62146e-05   1.65071e-05 DIIS
   @RHF iter   6:  -720.32037560264803   -8.17169e-06   4.34477e-06 DIIS
   @RHF iter   7:  -720.32037635554866   -7.52901e-07   1.45997e-06 DIIS
   @RHF iter   8:  -720.32037643409399   -7.85453e-08   4.39831e-07 DIIS
   @RHF iter   9:  -720.32037644125933   -7.16534e-09   1.26519e-07 DIIS
   @RHF iter  10:  -720.32037644209231   -8.32983e-10   4.59017e-08 DIIS
   @RHF iter  11:  -720.32037644224113   -1.48816e-10   1.77493e-08 DIIS
   @RHF iter  12:  -720.32037644226398   -2.28511e-11   5.99273e-09 DIIS
   @RHF iter  13:  -720.32037644226682   -2.84217e-12   1.65347e-09 DIIS
   @RHF iter  14:  -720.32037644226727   -4.54747e-13   5.76068e-10 DIIS
   @RHF iter  15:  -720.32037644226807   -7.95808e-13   1.78449e-10 DIIS
   @RHF iter  16:  -720.32037644226841   -3.41061e-13   5.53837e-11 DIIS
  Energy and wave function converged.

  ==> Post-Iterations <==

    Orbital Energies [Eh]
    ---------------------

    Doubly Occupied:

       1A    -92.032954     2A    -15.791160     3A    -15.788691
       4A    -15.786679     5A    -11.591073     6A    -11.444384
       7A    -11.372772     8A    -11.342503     9A     -9.038020
      10A     -6.720206    11A     -6.718481    12A     -6.716114
      13A     -1.548649    14A     -1.406061    15A     -1.390694
      16A     -1.178165    17A     -1.143543    18A     -1.061008
      19A     -1.041924    20A     -0.978753    21A     -0.943305
      22A     -0.909061    23A     -0.866572    24A     -0.850297
      25A     -0.824945    26A     -0.798403    27A     -0.746573
      28A     -0.723194    29A     -0.722346    30A     -0.715684
      31A     -0.685138    32A     -0.640641    33A     -0.618980
      34A     -0.608495    35A     -0.587422    36A     -0.529910
      37A     -0.424999

    Virtual:

      38A     -0.009639    39A      0.021341    40A      0.024785
      41A      0.031967    42A      0.060353    43A      0.079209
      44A      0.090837    45A      0.098374    46A      0.110647
      47A      0.121306    48A      0.131675    49A      0.138434
      50A      0.155574    51A      0.165458    52A      0.175211
      53A      0.188457    54A      0.193988    55A      0.216250
      56A      0.298464    57A      0.320314    58A      0.340524
      59A      0.420229    60A      0.426224    61A      0.449185
      62A      0.458560    63A      0.473626    64A      0.510734
      65A      0.513105    66A      0.525390    67A      0.532500
      68A      0.537330    69A      0.561662    70A      0.566950
      71A      0.592009    72A      0.601837    73A      0.626014
      74A      0.668480    75A      0.670840    76A      0.684804
      77A      0.695383    78A      0.701962    79A      0.710568
      80A      0.717010    81A      0.738996    82A      0.740993
      83A      0.762867    84A      0.774547    85A      0.774904
      86A      0.781407    87A      0.785094    88A      0.792937
      89A      0.811356    90A      0.833564    91A      0.851739
      92A      0.860774    93A      0.865036    94A      0.889573
      95A      0.899757    96A      0.912098    97A      0.939527
      98A      0.943800    99A      0.991869   100A      1.074490
     101A      1.078044   102A      1.115097   103A      1.121203
     104A      1.148240   105A      1.155144   106A      1.180149
     107A      1.208254   108A      1.213743   109A      1.214696
     110A      1.258400   111A      1.292929   112A      1.302160
     113A      1.315346   114A      1.364814   115A      1.396327
     116A      1.415138   117A      1.464708   118A      1.488921
     119A      1.520942   120A      1.535371   121A      1.541936
     122A      1.561331   123A      1.571829   124A      1.613739
     125A      1.677706   126A      1.692125   127A      1.719699
     128A      1.727427   129A      1.740659   130A      1.749530
     131A      1.759034   132A      1.773311   133A      1.783600
     134A      1.805070   135A      1.811984   136A      1.821865
     137A      1.830478   138A      1.838191   139A      1.866226
     140A      1.873250   141A      1.884698   142A      1.905880
     143A      1.928505   144A      1.985086   145A      2.001042
     146A      2.010723   147A      2.032982   148A      2.040595
     149A      2.105258   150A      2.121662   151A      2.145599
     152A      2.156544   153A      2.167683   154A      2.214545
     155A      2.258461   156A      2.287289   157A      2.295135
     158A      2.303498   159A      2.320420   160A      2.332535
     161A      2.352617   162A      2.361124   163A      2.389677
     164A      2.418705   165A      2.464813   166A      2.538500
     167A      2.583630   168A      2.595329   169A      2.616667
     170A      2.644424   171A      2.649384   172A      2.679023
     173A      2.702414   174A      2.721133   175A      2.727254
     176A      2.761375   177A      2.765718   178A      2.797436
     179A      2.840541   180A      2.844747   181A      2.898460
     182A      3.052558   183A      3.077871   184A      3.107604
     185A      3.551235   186A      3.672301

    Final Occupation by Irrep:
              A
    DOCC [    37 ]

  @RHF Final Energy:  -720.32037644226841

   => Energetics <=

    Nuclear Repulsion Energy =            448.1716038088812866
    One-Electron Energy =               -1864.4083613073321430
    Two-Electron Energy =                 695.9163810561825585
    Total Energy =                       -720.3203764422684117

Computation Completed

Properties will be evaluated at   0.000000,   0.000000,   0.000000 [a0]

Properties computed using the SCF density matrix

  Nuclear Dipole Moment: [e a0]
     X:    -5.3952      Y:     4.2881      Z:     3.0757

  Electronic Dipole Moment: [e a0]
     X:     5.0754      Y:    -2.5943      Z:     0.6245

  Dipole Moment: [e a0]
     X:    -0.3198      Y:     1.6938      Z:     3.7002     Total:     4.0820

  Dipole Moment: [D]
     X:    -0.8128      Y:     4.3051      Z:     9.4050     Total:    10.3754

*** tstop() called on ds3 at Mon Apr 27 21:26:05 2020
Module time:
	user time   =      51.44 seconds =       0.86 minutes
	system time =      19.91 seconds =       0.33 minutes
	total time  =         88 seconds =       1.47 minutes
Total time:
	user time   =      51.44 seconds =       0.86 minutes
	system time =      19.91 seconds =       0.33 minutes
	total time  =         88 seconds =       1.47 minutes
                                     G D M A

                                 by Anthony Stone

                           version 2.2.06, 22 June 2011

               Distributed Multipoles from Gaussian wavefunctions

Starting at 21:26:5 on 27 Apr 2020

Using SCF density matrix from file ./SSI/SSI-040MET-085ARG-1-dimer.test.5130.fchk

                         Distributed Multipole Analysis

Standard DMA

Positions and radii in angstrom
Multipole moments in atomic units, ea_0^k for rank k

C          x = -0.246323  y = -0.634752  z = -1.357263 angstrom
           Maximum rank =  0   Radius =  0.650 angstrom
                   Q00  =  -0.340408

C          x = -0.584323  y = -0.967752  z = -4.053263 angstrom
           Maximum rank =  0   Radius =  0.650 angstrom
                   Q00  =  -0.322822

S          x =  0.484677  y = -1.487752  z = -2.707263 angstrom
           Maximum rank =  0   Radius =  0.650 angstrom
                   Q00  =   0.126490

H          x = -1.334323  y = -0.721752  z = -1.381263 angstrom
           Maximum rank =  0   Radius =  0.325 angstrom
                   Q00  =   0.093095

H          x =  0.124677  y = -1.103752  z = -0.452263 angstrom
           Maximum rank =  0   Radius =  0.325 angstrom
                   Q00  =   0.038403

H          x =  0.079677  y =  0.401248  z = -1.396263 angstrom
           Maximum rank =  0   Radius =  0.325 angstrom
                   Q00  =   0.085700

H          x = -1.474323  y = -1.578752  z = -3.900263 angstrom
           Maximum rank =  0   Radius =  0.325 angstrom
                   Q00  =   0.076695

H          x = -0.260323  y = -1.355752  z = -5.004263 angstrom
           Maximum rank =  0   Radius =  0.325 angstrom
                   Q00  =   0.137124

H          x = -0.985283  y =  0.055729  z = -4.011809 angstrom
           Maximum rank =  0   Radius =  0.325 angstrom
                   Q00  =   0.098576

C          x = -1.117323  y =  2.251248  z =  3.344737 angstrom
           Maximum rank =  0   Radius =  0.650 angstrom
                   Q00  =  -0.133472

C          x =  0.244677  y =  0.655248  z =  2.008737 angstrom
           Maximum rank =  0   Radius =  0.650 angstrom
                   Q00  =   1.084761

N          x =  0.125677  y =  1.759248  z =  2.733737 angstrom
           Maximum rank =  0   Radius =  0.650 angstrom
                   Q00  =  -0.501751

N          x = -0.762323  y = -0.156752  z =  1.781737 angstrom
           Maximum rank =  0   Radius =  0.650 angstrom
                   Q00  =  -0.567633

N          x =  1.404677  y =  0.344248  z =  1.471737 angstrom
           Maximum rank =  0   Radius =  0.650 angstrom
                   Q00  =  -0.592395

H          x =  0.961677  y =  2.317248  z =  2.868737 angstrom
           Maximum rank =  0   Radius =  0.325 angstrom
                   Q00  =   0.237135

H          x = -1.675323  y =  0.057248  z =  2.154737 angstrom
           Maximum rank =  0   Radius =  0.325 angstrom
                   Q00  =   0.264551

H          x = -0.622323  y = -1.066752  z =  1.370737 angstrom
           Maximum rank =  0   Radius =  0.325 angstrom
                   Q00  =   0.272677

H          x =  2.220677  y =  0.916248  z =  1.684737 angstrom
           Maximum rank =  0   Radius =  0.325 angstrom
                   Q00  =   0.261090

H          x =  1.553677  y = -0.522752  z =  0.978737 angstrom
           Maximum rank =  0   Radius =  0.325 angstrom
                   Q00  =   0.271657

H          x = -1.955323  y =  2.094248  z =  2.666737 angstrom
           Maximum rank =  0   Radius =  0.325 angstrom
                   Q00  =   0.114326

H          x = -1.038323  y =  3.332248  z =  3.480737 angstrom
           Maximum rank =  0   Radius =  0.325 angstrom
                   Q00  =   0.164557

H          x = -1.361183  y =  1.797334  z =  4.316587 angstrom
           Maximum rank =  0   Radius =  0.325 angstrom
                   Q00  =   0.131643

Total multipoles referred to origin at
           x =   0.000000,  y =    0.000000,  z =    0.000000 angstrom
                   Q00  =   1.000000

Finished at 21:26:5 on 27 Apr 2020

  DMA results are available in the Python driver through the
	  variable('DMA DISTRIBUTED MULTIPOLES')
  and
	  variable('DMA TOTAL MULTIPOLES')
  commands.

    Psi4 stopped on: Monday, 27 April 2020 09:26PM
    Psi4 wall time for execution: 0:01:28.18

*** Psi4 exiting successfully. Buy a developer a beer!
