                               Psi4 1.3.2 release

  ==> Input File <==

--------------------------------------------------------------------------
import numpy as np
set {scf_type pk
basis cc-pvdz
d_convergence 10
gdma_switch   0
gdma_limit    0
gdma_origin   [ 0.0,  0.0,  0.0 ]
}
molecule test {
    units Angstrom
    0 1
    --
    0 1
    C                1.255019835508098     0.181799530714120    -1.028182001209250
    C                1.287019835508098     1.369799530714120    -1.993182001209250
    O                2.027019835508098     0.426799530714120     0.138817998790750
    H                0.223019835508098    -0.032200469285880    -0.751182001209250
    H                1.665019835508098    -0.698200469285880    -1.524182001209250
    H                2.329019835508098     1.598799530714121    -2.203182001209250
    H                1.726019835508098     1.258799530714121     0.530817998790750
    H                0.806689835508098     2.244769530714120    -1.530892001209250
    H                0.808449835508098     1.073029530714120    -2.938112001209250
    C               -1.756980164491902    -1.007200469285880     0.922817998790750
    C               -2.935980164491902    -1.048200469285880     1.911817998790750
    H               -0.814980164491902    -1.178200469285880     1.445817998790750
    H               -1.891980164491902    -1.773200469285880     0.164817998790750
    H               -1.722980164491902    -0.051200469285880     0.400817998790750
    H               -2.934980164491902    -2.011200469285880     2.422817998790750
    H               -2.874650164491902    -0.237480469285880     2.652747998790750
    H               -3.878280164491902    -0.968650469285880     1.349907998790750

}
e, wfn = energy('scf', return_wfn=True)
gdma(wfn)
dmavals = variable('DMA DISTRIBUTED MULTIPOLES')
charges = np.array(dmavals)
print(charges)
np.save('SSI-005SER-028VAL-1-dimer.npy', np.array(charges))--------------------------------------------------------------------------

*** tstart() called on ds3
*** at Mon Apr 27 13:01:35 2020

   => Loading Basis Set <=

    Name: CC-PVDZ
    Role: ORBITAL
    Keyword: BASIS
    atoms 1-2, 10-11 entry C          line   138 file /theoryfs2/ds/metcalf/miniconda2/envs/tf2gpu/share/psi4/basis/cc-pvdz.gbs
    atoms 3          entry O          line   198 file /theoryfs2/ds/metcalf/miniconda2/envs/tf2gpu/share/psi4/basis/cc-pvdz.gbs
    atoms 4-9, 12-17 entry H          line    22 file /theoryfs2/ds/metcalf/miniconda2/envs/tf2gpu/share/psi4/basis/cc-pvdz.gbs

         ---------------------------------------------------------
                                   SCF
               by Justin Turney, Rob Parrish, Andy Simmonett
                          and Daniel G. A. Smith
                              RHF Reference
                        1 Threads,    500 MiB Core
         ---------------------------------------------------------

  ==> Geometry <==

    Molecular point group: c1
    Full point group: C1

    Geometry (in Angstrom), charge = 0, multiplicity = 1:

       Center              X                  Y                   Z               Mass
    ------------   -----------------  -----------------  -----------------  -----------------
         C            1.255019835508     0.181799530714    -1.028182001209    12.000000000000
         C            1.287019835508     1.369799530714    -1.993182001209    12.000000000000
         O            2.027019835508     0.426799530714     0.138817998791    15.994914619570
         H            0.223019835508    -0.032200469286    -0.751182001209     1.007825032230
         H            1.665019835508    -0.698200469286    -1.524182001209     1.007825032230
         H            2.329019835508     1.598799530714    -2.203182001209     1.007825032230
         H            1.726019835508     1.258799530714     0.530817998791     1.007825032230
         H            0.806689835508     2.244769530714    -1.530892001209     1.007825032230
         H            0.808449835508     1.073029530714    -2.938112001209     1.007825032230
         C           -1.756980164492    -1.007200469286     0.922817998791    12.000000000000
         C           -2.935980164492    -1.048200469286     1.911817998791    12.000000000000
         H           -0.814980164492    -1.178200469286     1.445817998791     1.007825032230
         H           -1.891980164492    -1.773200469286     0.164817998791     1.007825032230
         H           -1.722980164492    -0.051200469286     0.400817998791     1.007825032230
         H           -2.934980164492    -2.011200469286     2.422817998791     1.007825032230
         H           -2.874650164492    -0.237480469286     2.652747998791     1.007825032230
         H           -3.878280164492    -0.968650469286     1.349907998791     1.007825032230

  Running in c1 symmetry.

  Rotational constants: A =      0.26782  B =      0.03579  C =      0.03334 [cm^-1]
  Rotational constants: A =   8028.92445  B =   1072.86370  C =    999.48177 [MHz]
  Nuclear repulsion =  175.356690839108950

  Charge       = 0
  Multiplicity = 1
  Electrons    = 44
  Nalpha       = 22
  Nbeta        = 22

  ==> Algorithm <==

  SCF Algorithm Type is PK.
  DIIS enabled.
  MOM disabled.
  Fractional occupation disabled.
  Guess Type is SAD.
  Energy threshold   = 1.00e-06
  Density threshold  = 1.00e-10
  Integral threshold = 0.00e+00

  ==> Primary Basis <==

  Basis Set: CC-PVDZ
    Blend: CC-PVDZ
    Number of shells: 66
    Number of basis function: 130
    Number of Cartesian functions: 135
    Spherical Harmonics?: true
    Max angular momentum: 2

  ==> Pre-Iterations <==

   -------------------------------------------------------
    Irrep   Nso     Nmo     Nalpha   Nbeta   Ndocc  Nsocc
   -------------------------------------------------------
     A        130     130       0       0       0       0
   -------------------------------------------------------
    Total     130     130      22      22      22       0
   -------------------------------------------------------

  ==> Integral Setup <==

  Using integral reordering PK algorithm.
  Sizing the integral batches needed.
  Building batch lookup table.
   Calculation information:
      Number of atoms:                  17
      Number of AO shells:              66
      Number of primitives:            170
      Number of atomic orbitals:       135
      Number of basis functions:       130

      Integral cutoff                 1.00e-12
      Number of threads:                 1

	Batch   1 pq = [       0,    8515] index = [             0,36256870] size =     36256870
  Task number: 4
  Buffer size: 11059200
  Buffer per thread: 2
  We computed 1863626 shell quartets total.
  Whereas there are 2445366 unique shell quartets.

  ==> DiskJK: Disk-Based J/K Matrices <==

    J tasked:                  Yes
    K tasked:                  Yes
    wK tasked:                  No
    Memory [MiB]:              375
    Schwarz Cutoff:          1E-12

    OpenMP threads:              1

  Minimum eigenvalue in the overlap matrix is 5.5228649218E-03.
  Using Symmetric Orthogonalization.

  SCF Guess: Superposition of Atomic Densities via on-the-fly atomic UHF.

  ==> Iterations <==

                        Total Energy        Delta E     RMS |[F,P]|

   @RHF iter SAD:  -232.05683882785505   -2.32057e+02   0.00000e+00
   @RHF iter   1:  -233.14569416077882   -1.08886e+00   4.17071e-03 DIIS
   @RHF iter   2:  -233.29361200730517   -1.47918e-01   1.91504e-03 DIIS
   @RHF iter   3:  -233.32115245637402   -2.75404e-02   3.84195e-04 DIIS
   @RHF iter   4:  -233.32324103751898   -2.08858e-03   1.25100e-04 DIIS
   @RHF iter   5:  -233.32338888740307   -1.47850e-04   2.54290e-05 DIIS
   @RHF iter   6:  -233.32339775388954   -8.86649e-06   4.83562e-06 DIIS
   @RHF iter   7:  -233.32339822616899   -4.72279e-07   1.15635e-06 DIIS
   @RHF iter   8:  -233.32339825412845   -2.79595e-08   3.88249e-07 DIIS
   @RHF iter   9:  -233.32339825709113   -2.96268e-09   1.02498e-07 DIIS
   @RHF iter  10:  -233.32339825733084   -2.39709e-10   2.09717e-08 DIIS
   @RHF iter  11:  -233.32339825734067   -9.83391e-12   5.19466e-09 DIIS
   @RHF iter  12:  -233.32339825734016    5.11591e-13   1.47829e-09 DIIS
   @RHF iter  13:  -233.32339825734169   -1.53477e-12   3.78628e-10 DIIS
   @RHF iter  14:  -233.32339825734061    1.08002e-12   1.18148e-10 DIIS
   @RHF iter  15:  -233.32339825734073   -1.13687e-13   3.78073e-11 DIIS
  Energy and wave function converged.

  ==> Post-Iterations <==

    Orbital Energies [Eh]
    ---------------------

    Doubly Occupied:

       1A    -20.547564     2A    -11.272515     3A    -11.225097
       4A    -11.221696     5A    -11.219157     6A     -1.348952
       7A     -1.017334     8A     -1.007720     9A     -0.844346
      10A     -0.838238    11A     -0.676566    12A     -0.620564
      13A     -0.602910    14A     -0.598700    15A     -0.596622
      16A     -0.535809    17A     -0.525476    18A     -0.501223
      19A     -0.489082    20A     -0.488327    21A     -0.473487
      22A     -0.431149

    Virtual:

      23A      0.169041    24A      0.192257    25A      0.215584
      26A      0.225937    27A      0.241743    28A      0.254380
      29A      0.262762    30A      0.264477    31A      0.277446
      32A      0.285675    33A      0.291167    34A      0.325950
      35A      0.381630    36A      0.403626    37A      0.416477
      38A      0.588872    39A      0.596354    40A      0.597038
      41A      0.609466    42A      0.657353    43A      0.674289
      44A      0.678224    45A      0.694235    46A      0.743927
      47A      0.780464    48A      0.809485    49A      0.855281
      50A      0.877321    51A      0.880829    52A      0.890185
      53A      0.892143    54A      0.897175    55A      0.901283
      56A      0.909659    57A      0.917475    58A      0.923422
      59A      0.933847    60A      0.965372    61A      1.000106
      62A      1.114928    63A      1.120653    64A      1.128724
      65A      1.142280    66A      1.220543    67A      1.244960
      68A      1.281922    69A      1.349335    70A      1.392807
      71A      1.466815    72A      1.471535    73A      1.479909
      74A      1.505070    75A      1.571952    76A      1.588258
      77A      1.662025    78A      1.676885    79A      1.680318
      80A      1.693157    81A      1.754210    82A      1.839204
      83A      1.862528    84A      1.866564    85A      1.877316
      86A      1.892775    87A      1.910908    88A      1.928103
      89A      1.936087    90A      1.940412    91A      1.945282
      92A      1.949894    93A      1.951502    94A      1.968723
      95A      1.984487    96A      2.035676    97A      2.052905
      98A      2.093831    99A      2.105681   100A      2.117478
     101A      2.166493   102A      2.257812   103A      2.277949
     104A      2.300983   105A      2.326260   106A      2.352107
     107A      2.430174   108A      2.453007   109A      2.461076
     110A      2.499607   111A      2.547131   112A      2.556809
     113A      2.560293   114A      2.565481   115A      2.753947
     116A      2.758635   117A      2.775284   118A      2.792752
     119A      2.816358   120A      2.850338   121A      2.852390
     122A      2.874063   123A      2.938956   124A      2.943299
     125A      2.969943   126A      3.312244   127A      3.401036
     128A      3.451585   129A      3.641409   130A      4.098752

    Final Occupation by Irrep:
              A
    DOCC [    22 ]

  @RHF Final Energy:  -233.32339825734073

   => Energetics <=

    Nuclear Repulsion Energy =            175.3566908391089498
    One-Electron Energy =                -663.1951069887132917
    Two-Electron Energy =                 254.5150178922635860
    Total Energy =                       -233.3233982573407275

Computation Completed

Properties will be evaluated at   0.000000,   0.000000,   0.000000 [a0]

Properties computed using the SCF density matrix

  Nuclear Dipole Moment: [e a0]
     X:    -6.1397      Y:    -0.7244      Z:     0.0196

  Electronic Dipole Moment: [e a0]
     X:     5.6532      Y:     1.0914      Z:    -0.2766

  Dipole Moment: [e a0]
     X:    -0.4865      Y:     0.3670      Z:    -0.2570     Total:     0.6614

  Dipole Moment: [D]
     X:    -1.2366      Y:     0.9327      Z:    -0.6532     Total:     1.6810

*** tstop() called on ds3 at Mon Apr 27 13:01:54 2020
Module time:
	user time   =      12.60 seconds =       0.21 minutes
	system time =       7.07 seconds =       0.12 minutes
	total time  =         19 seconds =       0.32 minutes
Total time:
	user time   =      12.60 seconds =       0.21 minutes
	system time =       7.07 seconds =       0.12 minutes
	total time  =         19 seconds =       0.32 minutes
                                     G D M A

                                 by Anthony Stone

                           version 2.2.06, 22 June 2011

               Distributed Multipoles from Gaussian wavefunctions

Starting at 13:1:54 on 27 Apr 2020

Using SCF density matrix from file ./SSI/SSI-005SER-028VAL-1-dimer.test.5027.fchk

                         Distributed Multipole Analysis

Standard DMA

Positions and radii in angstrom
Multipole moments in atomic units, ea_0^k for rank k

C          x =  1.255020  y =  0.181800  z = -1.028182 angstrom
           Maximum rank =  0   Radius =  0.650 angstrom
                   Q00  =   0.098684

C          x =  1.287020  y =  1.369800  z = -1.993182 angstrom
           Maximum rank =  0   Radius =  0.650 angstrom
                   Q00  =  -0.256533

O          x =  2.027020  y =  0.426800  z =  0.138818 angstrom
           Maximum rank =  0   Radius =  0.650 angstrom
                   Q00  =  -0.593102

H          x =  0.223020  y = -0.032200  z = -0.751182 angstrom
           Maximum rank =  0   Radius =  0.325 angstrom
                   Q00  =   0.034342

H          x =  1.665020  y = -0.698200  z = -1.524182 angstrom
           Maximum rank =  0   Radius =  0.325 angstrom
                   Q00  =   0.084310

H          x =  2.329020  y =  1.598800  z = -2.203182 angstrom
           Maximum rank =  0   Radius =  0.325 angstrom
                   Q00  =   0.089153

H          x =  1.726020  y =  1.258800  z =  0.530818 angstrom
           Maximum rank =  0   Radius =  0.325 angstrom
                   Q00  =   0.378018

H          x =  0.806690  y =  2.244770  z = -1.530892 angstrom
           Maximum rank =  0   Radius =  0.325 angstrom
                   Q00  =   0.073101

H          x =  0.808450  y =  1.073030  z = -2.938112 angstrom
           Maximum rank =  0   Radius =  0.325 angstrom
                   Q00  =   0.087838

C          x = -1.756980  y = -1.007200  z =  0.922818 angstrom
           Maximum rank =  0   Radius =  0.650 angstrom
                   Q00  =  -0.240681

C          x = -2.935980  y = -1.048200  z =  1.911818 angstrom
           Maximum rank =  0   Radius =  0.650 angstrom
                   Q00  =  -0.235311

H          x = -0.814980  y = -1.178200  z =  1.445818 angstrom
           Maximum rank =  0   Radius =  0.325 angstrom
                   Q00  =   0.085800

H          x = -1.891980  y = -1.773200  z =  0.164818 angstrom
           Maximum rank =  0   Radius =  0.325 angstrom
                   Q00  =   0.080551

H          x = -1.722980  y = -0.051200  z =  0.400818 angstrom
           Maximum rank =  0   Radius =  0.325 angstrom
                   Q00  =   0.070007

H          x = -2.934980  y = -2.011200  z =  2.422818 angstrom
           Maximum rank =  0   Radius =  0.325 angstrom
                   Q00  =   0.083279

H          x = -2.874650  y = -0.237480  z =  2.652748 angstrom
           Maximum rank =  0   Radius =  0.325 angstrom
                   Q00  =   0.082247

H          x = -3.878280  y = -0.968650  z =  1.349908 angstrom
           Maximum rank =  0   Radius =  0.325 angstrom
                   Q00  =   0.078296

Total multipoles referred to origin at
           x =   0.000000,  y =    0.000000,  z =    0.000000 angstrom
                   Q00  =  -0.000000

Finished at 13:1:54 on 27 Apr 2020

  DMA results are available in the Python driver through the
	  variable('DMA DISTRIBUTED MULTIPOLES')
  and
	  variable('DMA TOTAL MULTIPOLES')
  commands.

    Psi4 stopped on: Monday, 27 April 2020 01:01PM
    Psi4 wall time for execution: 0:00:19.59

*** Psi4 exiting successfully. Buy a developer a beer!
