                               Psi4 1.3.2 release

  ==> Input File <==

--------------------------------------------------------------------------
import numpy as np
set {scf_type pk
basis cc-pvdz
d_convergence 10
gdma_switch   0
gdma_limit    0
gdma_origin   [ 0.0,  0.0,  0.0 ]
}
molecule test {
    units Angstrom
    0 1
    --
    0 1
    C               -0.182736734374238     1.132998313602102     2.781533213167631
    C                0.571263265625762    -0.660001686397899     1.145533213167631
    C                0.139263265625762     0.592998313602101     1.440533213167631
    C                0.524263265625762     0.425998313602101    -0.814466786832369
    C                0.100263265625762     1.311998313602101     0.201533213167631
    C                0.599263265625762     0.809998313602102    -2.147466786832369
    C               -0.241736734374238     2.622998313602102    -0.152466786832369
    C                0.266263265625762     2.118998313602102    -2.465466786832368
    C               -0.167736734374238     3.007998313602102    -1.483466786832368
    N                0.772263265625762    -0.774001686397899    -0.205466786832369
    H                0.744263265625762    -1.454001686397899     1.863533213167631
    H                1.133263265625762    -1.608001686397899    -0.670466786832369
    H               -0.868736734374238     1.974998313602101     2.682533213167632
    H                0.751263265625762     1.517998313602102     3.193533213167631
    H                0.918263265625762     0.109998313602101    -2.905466786832369
    H               -0.558736734374238     3.323998313602102     0.605533213167631
    H                0.350263265625762     2.457998313602102    -3.487466786832369
    H               -0.426736734374238     4.022998313602102    -1.759466786832368
    H               -0.610896734374238     0.390958313602101     3.471503213167631
    C               -0.523736734374238    -3.986001686397898     0.596533213167631
    C               -1.574736734374238    -5.094001686397899     0.584533213167631
    H               -0.139736734374238    -3.821001686397898    -0.409466786832369
    H               -0.983736734374238    -3.065001686397898     0.949533213167631
    H                0.296263265625762    -4.238001686397898     1.268533213167631
    H               -1.811736734374239    -5.351001686397899     1.617533213167631
    H               -1.196676734374239    -5.983051686397899     0.058543213167631
    H               -2.491096734374239    -4.719611686397899     0.104823213167631

}
e, wfn = energy('scf', return_wfn=True)
gdma(wfn)
dmavals = variable('DMA DISTRIBUTED MULTIPOLES')
charges = np.array(dmavals)
print(charges)
np.save('SSI-065TRP-146THR-1-dimer.npy', np.array(charges))--------------------------------------------------------------------------

*** tstart() called on ds3
*** at Sun Apr 26 17:07:53 2020

   => Loading Basis Set <=

    Name: CC-PVDZ
    Role: ORBITAL
    Keyword: BASIS
    atoms 1-9, 20-21   entry C          line   138 file /theoryfs2/ds/metcalf/miniconda2/envs/tf2gpu/share/psi4/basis/cc-pvdz.gbs
    atoms 10           entry N          line   168 file /theoryfs2/ds/metcalf/miniconda2/envs/tf2gpu/share/psi4/basis/cc-pvdz.gbs
    atoms 11-19, 22-27 entry H          line    22 file /theoryfs2/ds/metcalf/miniconda2/envs/tf2gpu/share/psi4/basis/cc-pvdz.gbs

         ---------------------------------------------------------
                                   SCF
               by Justin Turney, Rob Parrish, Andy Simmonett
                          and Daniel G. A. Smith
                              RHF Reference
                        1 Threads,    500 MiB Core
         ---------------------------------------------------------

  ==> Geometry <==

    Molecular point group: c1
    Full point group: C1

    Geometry (in Angstrom), charge = 0, multiplicity = 1:

       Center              X                  Y                   Z               Mass
    ------------   -----------------  -----------------  -----------------  -----------------
         C           -0.182736734374     1.132998313602     2.781533213168    12.000000000000
         C            0.571263265626    -0.660001686398     1.145533213168    12.000000000000
         C            0.139263265626     0.592998313602     1.440533213168    12.000000000000
         C            0.524263265626     0.425998313602    -0.814466786832    12.000000000000
         C            0.100263265626     1.311998313602     0.201533213168    12.000000000000
         C            0.599263265626     0.809998313602    -2.147466786832    12.000000000000
         C           -0.241736734374     2.622998313602    -0.152466786832    12.000000000000
         C            0.266263265626     2.118998313602    -2.465466786832    12.000000000000
         C           -0.167736734374     3.007998313602    -1.483466786832    12.000000000000
         N            0.772263265626    -0.774001686398    -0.205466786832    14.003074004430
         H            0.744263265626    -1.454001686398     1.863533213168     1.007825032230
         H            1.133263265626    -1.608001686398    -0.670466786832     1.007825032230
         H           -0.868736734374     1.974998313602     2.682533213168     1.007825032230
         H            0.751263265626     1.517998313602     3.193533213168     1.007825032230
         H            0.918263265626     0.109998313602    -2.905466786832     1.007825032230
         H           -0.558736734374     3.323998313602     0.605533213168     1.007825032230
         H            0.350263265626     2.457998313602    -3.487466786832     1.007825032230
         H           -0.426736734374     4.022998313602    -1.759466786832     1.007825032230
         H           -0.610896734374     0.390958313602     3.471503213168     1.007825032230
         C           -0.523736734374    -3.986001686398     0.596533213168    12.000000000000
         C           -1.574736734374    -5.094001686398     0.584533213168    12.000000000000
         H           -0.139736734374    -3.821001686398    -0.409466786832     1.007825032230
         H           -0.983736734374    -3.065001686398     0.949533213168     1.007825032230
         H            0.296263265626    -4.238001686398     1.268533213168     1.007825032230
         H           -1.811736734374    -5.351001686398     1.617533213168     1.007825032230
         H           -1.196676734374    -5.983051686398     0.058543213168     1.007825032230
         H           -2.491096734374    -4.719611686398     0.104823213168     1.007825032230

  Running in c1 symmetry.

  Rotational constants: A =      0.04566  B =      0.01519  C =      0.01226 [cm^-1]
  Rotational constants: A =   1368.79130  B =    455.38007  C =    367.46517 [MHz]
  Nuclear repulsion =  645.941306105199715

  Charge       = 0
  Multiplicity = 1
  Electrons    = 88
  Nalpha       = 44
  Nbeta        = 44

  ==> Algorithm <==

  SCF Algorithm Type is PK.
  DIIS enabled.
  MOM disabled.
  Fractional occupation disabled.
  Guess Type is SAD.
  Energy threshold   = 1.00e-06
  Density threshold  = 1.00e-10
  Integral threshold = 0.00e+00

  ==> Primary Basis <==

  Basis Set: CC-PVDZ
    Blend: CC-PVDZ
    Number of shells: 117
    Number of basis function: 243
    Number of Cartesian functions: 255
    Spherical Harmonics?: true
    Max angular momentum: 2

  ==> Pre-Iterations <==

   -------------------------------------------------------
    Irrep   Nso     Nmo     Nalpha   Nbeta   Ndocc  Nsocc
   -------------------------------------------------------
     A        243     243       0       0       0       0
   -------------------------------------------------------
    Total     243     243      44      44      44       0
   -------------------------------------------------------

  ==> Integral Setup <==

  Using integral reordering PK algorithm.
  Sizing the integral batches needed.
  Building batch lookup table.
   Calculation information:
      Number of atoms:                  27
      Number of AO shells:             117
      Number of primitives:            339
      Number of atomic orbitals:       255
      Number of basis functions:       243

      Integral cutoff                 1.00e-12
      Number of threads:                 1

	Batch   1 pq = [       0,    9405] index = [             0,44231715] size =     44231715
	Batch   2 pq = [    9405,   13301] index = [      44231715,88464951] size =     44233236
	Batch   3 pq = [   13301,   16290] index = [      88464951,132690195] size =     44225244
	Batch   4 pq = [   16290,   18810] index = [     132690195,176917455] size =     44227260
	Batch   5 pq = [   18810,   21030] index = [     176917455,221140965] size =     44223510
	Batch   6 pq = [   21030,   23037] index = [     221140965,265363203] size =     44222238
	Batch   7 pq = [   23037,   24883] index = [     265363203,309594286] size =     44231083
	Batch   8 pq = [   24883,   26601] index = [     309594286,353819901] size =     44225615
	Batch   9 pq = [   26601,   28214] index = [     353819901,398029005] size =     44209104
	Batch  10 pq = [   28214,   29646] index = [     398029005,439457481] size =     41428476
  Task number: 40
  Buffer size: 11059200
  Buffer per thread: 2
  We computed 19926482 shell quartets total.
  Whereas there are 23829156 unique shell quartets.

  ==> DiskJK: Disk-Based J/K Matrices <==

    J tasked:                  Yes
    K tasked:                  Yes
    wK tasked:                  No
    Memory [MiB]:              375
    Schwarz Cutoff:          1E-12

    OpenMP threads:              1

  Minimum eigenvalue in the overlap matrix is 2.3397557895E-04.
  Using Symmetric Orthogonalization.

  SCF Guess: Superposition of Atomic Densities via on-the-fly atomic UHF.

  ==> Iterations <==

                        Total Energy        Delta E     RMS |[F,P]|

   @RHF iter SAD:  -479.12783821539739   -4.79128e+02   0.00000e+00
   @RHF iter   1:  -479.48441460768873   -3.56576e-01   2.62551e-03 DIIS
   @RHF iter   2:  -479.71877210393745   -2.34357e-01   1.17844e-03 DIIS
   @RHF iter   3:  -479.76194407894718   -4.31720e-02   3.07180e-04 DIIS
   @RHF iter   4:  -479.76582148015103   -3.87740e-03   1.41969e-04 DIIS
   @RHF iter   5:  -479.76649310049265   -6.71620e-04   1.98057e-05 DIIS
   @RHF iter   6:  -479.76652240526863   -2.93048e-05   9.17301e-06 DIIS
   @RHF iter   7:  -479.76652833764234   -5.93237e-06   3.81678e-06 DIIS
   @RHF iter   8:  -479.76653005652054   -1.71888e-06   1.51160e-06 DIIS
   @RHF iter   9:  -479.76653039197322   -3.35453e-07   6.73375e-07 DIIS
   @RHF iter  10:  -479.76653045931931   -6.73461e-08   3.03851e-07 DIIS
   @RHF iter  11:  -479.76653047545409   -1.61348e-08   1.13393e-07 DIIS
   @RHF iter  12:  -479.76653047762971   -2.17563e-09   3.64295e-08 DIIS
   @RHF iter  13:  -479.76653047778302   -1.53307e-10   9.10704e-09 DIIS
   @RHF iter  14:  -479.76653047778728   -4.26326e-12   3.64682e-09 DIIS
   @RHF iter  15:  -479.76653047779314   -5.85487e-12   1.89646e-09 DIIS
   @RHF iter  16:  -479.76653047779183    1.30740e-12   9.05654e-10 DIIS
   @RHF iter  17:  -479.76653047779280   -9.66338e-13   3.34419e-10 DIIS
   @RHF iter  18:  -479.76653047779325   -4.54747e-13   1.50280e-10 DIIS
   @RHF iter  19:  -479.76653047779058    2.67164e-12   4.57832e-11 DIIS
  Energy and wave function converged.

  ==> Post-Iterations <==

    Orbital Energies [Eh]
    ---------------------

    Doubly Occupied:

       1A    -15.598888     2A    -11.260806     3A    -11.259701
       4A    -11.229072     5A    -11.228514     6A    -11.227029
       7A    -11.224496     8A    -11.224253     9A    -11.223684
      10A    -11.218713    11A    -11.217844    12A    -11.213757
      13A     -1.295066    14A     -1.128436    15A     -1.074304
      16A     -1.025657    17A     -0.996402    18A     -0.987958
      19A     -0.931104    20A     -0.845080    21A     -0.837608
      22A     -0.801711    23A     -0.751537    24A     -0.717184
      25A     -0.661189    26A     -0.642380    27A     -0.606562
      28A     -0.605090    29A     -0.601862    30A     -0.592382
      31A     -0.589237    32A     -0.568854    33A     -0.552248
      34A     -0.537446    35A     -0.525446    36A     -0.506268
      37A     -0.494248    38A     -0.492487    39A     -0.491070
      40A     -0.471430    41A     -0.460722    42A     -0.370296
      43A     -0.295101    44A     -0.272211

    Virtual:

      45A      0.125802    46A      0.167030    47A      0.173221
      48A      0.187310    49A      0.192725    50A      0.204111
      51A      0.219160    52A      0.221430    53A      0.231843
      54A      0.250009    55A      0.255938    56A      0.263622
      57A      0.272494    58A      0.277598    59A      0.290613
      60A      0.295332    61A      0.308138    62A      0.313690
      63A      0.361825    64A      0.385749    65A      0.400390
      66A      0.414009    67A      0.431402    68A      0.445986
      69A      0.473226    70A      0.485104    71A      0.505718
      72A      0.517812    73A      0.589889    74A      0.592189
      75A      0.593861    76A      0.620696    77A      0.630926
      78A      0.643384    79A      0.658418    80A      0.666073
      81A      0.677977    82A      0.691452    83A      0.696015
      84A      0.704997    85A      0.719517    86A      0.731358
      87A      0.740156    88A      0.744014    89A      0.752651
      90A      0.753625    91A      0.766634    92A      0.777849
      93A      0.789196    94A      0.799831    95A      0.811081
      96A      0.839077    97A      0.849268    98A      0.864336
      99A      0.877351   100A      0.880638   101A      0.884297
     102A      0.886213   103A      0.891069   104A      0.894252
     105A      0.900239   106A      0.908673   107A      0.911010
     108A      0.922058   109A      0.935454   110A      0.950731
     111A      0.967786   112A      0.972308   113A      0.981078
     114A      0.989844   115A      0.998711   116A      1.025478
     117A      1.047534   118A      1.088971   119A      1.099636
     120A      1.125804   121A      1.127897   122A      1.138789
     123A      1.140993   124A      1.154371   125A      1.165567
     126A      1.174606   127A      1.209999   128A      1.218659
     129A      1.237426   130A      1.239424   131A      1.253317
     132A      1.267875   133A      1.282491   134A      1.293835
     135A      1.302066   136A      1.325551   137A      1.344741
     138A      1.365321   139A      1.374517   140A      1.419849
     141A      1.450359   142A      1.476546   143A      1.485007
     144A      1.530092   145A      1.561710   146A      1.573092
     147A      1.585159   148A      1.607489   149A      1.630382
     150A      1.637195   151A      1.648438   152A      1.674123
     153A      1.686799   154A      1.696109   155A      1.704677
     156A      1.747262   157A      1.763284   158A      1.774000
     159A      1.788656   160A      1.814936   161A      1.831256
     162A      1.842049   163A      1.853962   164A      1.871535
     165A      1.882958   166A      1.891592   167A      1.894866
     168A      1.908809   169A      1.914877   170A      1.923372
     171A      1.924672   172A      1.936046   173A      1.939838
     174A      1.946648   175A      1.948878   176A      1.955528
     177A      1.971547   178A      1.982972   179A      2.001591
     180A      2.004007   181A      2.007600   182A      2.039233
     183A      2.049066   184A      2.071209   185A      2.088319
     186A      2.098119   187A      2.105768   188A      2.114613
     189A      2.118847   190A      2.128563   191A      2.140854
     192A      2.144056   193A      2.170248   194A      2.179417
     195A      2.183891   196A      2.235108   197A      2.262835
     198A      2.278941   199A      2.293161   200A      2.302121
     201A      2.312075   202A      2.326719   203A      2.347751
     204A      2.356768   205A      2.410391   206A      2.435260
     207A      2.441001   208A      2.452170   209A      2.459212
     210A      2.468404   211A      2.550795   212A      2.565715
     213A      2.577424   214A      2.586419   215A      2.603622
     216A      2.647225   217A      2.671332   218A      2.696062
     219A      2.733041   220A      2.759377   221A      2.769781
     222A      2.777643   223A      2.782304   224A      2.784404
     225A      2.805754   226A      2.830907   227A      2.834748
     228A      2.842037   229A      2.847667   230A      2.879113
     231A      2.927600   232A      2.941322   233A      2.960262
     234A      2.982205   235A      3.045372   236A      3.062890
     237A      3.086555   238A      3.129870   239A      3.215232
     240A      3.314999   241A      3.392738   242A      3.745913
     243A      3.962383

    Final Occupation by Irrep:
              A
    DOCC [    44 ]

  @RHF Final Energy:  -479.76653047779058

   => Energetics <=

    Nuclear Repulsion Energy =            645.9413061051997147
    One-Electron Energy =               -1929.7050089427018520
    Two-Electron Energy =                 803.9971723597113851
    Total Energy =                       -479.7665304777906385

Computation Completed

Properties will be evaluated at   0.000000,   0.000000,   0.000000 [a0]

Properties computed using the SCF density matrix

  Nuclear Dipole Moment: [e a0]
     X:    -4.5907      Y:   -15.4104      Z:     6.1722

  Electronic Dipole Moment: [e a0]
     X:     4.8286      Y:    14.6607      Z:    -6.0511

  Dipole Moment: [e a0]
     X:     0.2379      Y:    -0.7497      Z:     0.1211     Total:     0.7958

  Dipole Moment: [D]
     X:     0.6047      Y:    -1.9056      Z:     0.3078     Total:     2.0228

*** tstop() called on ds3 at Sun Apr 26 17:12:15 2020
Module time:
	user time   =     167.03 seconds =       2.78 minutes
	system time =      72.22 seconds =       1.20 minutes
	total time  =        262 seconds =       4.37 minutes
Total time:
	user time   =     167.03 seconds =       2.78 minutes
	system time =      72.22 seconds =       1.20 minutes
	total time  =        262 seconds =       4.37 minutes
                                     G D M A

                                 by Anthony Stone

                           version 2.2.06, 22 June 2011

               Distributed Multipoles from Gaussian wavefunctions

Starting at 17:12:15 on 26 Apr 2020

Using SCF density matrix from file ./SSI/SSI-065TRP-146THR-1-dimer.test.17615.fchk

                         Distributed Multipole Analysis

Standard DMA

Positions and radii in angstrom
Multipole moments in atomic units, ea_0^k for rank k

C          x = -0.182737  y =  1.132998  z =  2.781533 angstrom
           Maximum rank =  0   Radius =  0.650 angstrom
                   Q00  =  -0.215619

C          x =  0.571263  y = -0.660002  z =  1.145533 angstrom
           Maximum rank =  0   Radius =  0.650 angstrom
                   Q00  =   0.069231

C          x =  0.139263  y =  0.592998  z =  1.440533 angstrom
           Maximum rank =  0   Radius =  0.650 angstrom
                   Q00  =  -0.113487

C          x =  0.524263  y =  0.425998  z = -0.814467 angstrom
           Maximum rank =  0   Radius =  0.650 angstrom
                   Q00  =   0.302112

C          x =  0.100263  y =  1.311998  z =  0.201533 angstrom
           Maximum rank =  0   Radius =  0.650 angstrom
                   Q00  =  -0.052543

C          x =  0.599263  y =  0.809998  z = -2.147467 angstrom
           Maximum rank =  0   Radius =  0.650 angstrom
                   Q00  =  -0.122748

C          x = -0.241737  y =  2.622998  z = -0.152467 angstrom
           Maximum rank =  0   Radius =  0.650 angstrom
                   Q00  =  -0.101026

C          x =  0.266263  y =  2.118998  z = -2.465467 angstrom
           Maximum rank =  0   Radius =  0.650 angstrom
                   Q00  =  -0.076175

C          x = -0.167737  y =  3.007998  z = -1.483467 angstrom
           Maximum rank =  0   Radius =  0.650 angstrom
                   Q00  =  -0.076192

N          x =  0.772263  y = -0.774002  z = -0.205467 angstrom
           Maximum rank =  0   Radius =  0.650 angstrom
                   Q00  =  -0.499499

H          x =  0.744263  y = -1.454002  z =  1.863533 angstrom
           Maximum rank =  0   Radius =  0.325 angstrom
                   Q00  =   0.099279

H          x =  1.133263  y = -1.608002  z = -0.670467 angstrom
           Maximum rank =  0   Radius =  0.325 angstrom
                   Q00  =   0.218254

H          x = -0.868737  y =  1.974998  z =  2.682533 angstrom
           Maximum rank =  0   Radius =  0.325 angstrom
                   Q00  =   0.105220

H          x =  0.751263  y =  1.517998  z =  3.193533 angstrom
           Maximum rank =  0   Radius =  0.325 angstrom
                   Q00  =   0.096090

H          x =  0.918263  y =  0.109998  z = -2.905467 angstrom
           Maximum rank =  0   Radius =  0.325 angstrom
                   Q00  =   0.072527

H          x = -0.558737  y =  3.323998  z =  0.605533 angstrom
           Maximum rank =  0   Radius =  0.325 angstrom
                   Q00  =   0.068334

H          x =  0.350263  y =  2.457998  z = -3.487467 angstrom
           Maximum rank =  0   Radius =  0.325 angstrom
                   Q00  =   0.063688

H          x = -0.426737  y =  4.022998  z = -1.759467 angstrom
           Maximum rank =  0   Radius =  0.325 angstrom
                   Q00  =   0.058627

H          x = -0.610897  y =  0.390958  z =  3.471503 angstrom
           Maximum rank =  0   Radius =  0.325 angstrom
                   Q00  =   0.105518

C          x = -0.523737  y = -3.986002  z =  0.596533 angstrom
           Maximum rank =  0   Radius =  0.650 angstrom
                   Q00  =  -0.263051

C          x = -1.574737  y = -5.094002  z =  0.584533 angstrom
           Maximum rank =  0   Radius =  0.650 angstrom
                   Q00  =  -0.216861

H          x = -0.139737  y = -3.821002  z = -0.409467 angstrom
           Maximum rank =  0   Radius =  0.325 angstrom
                   Q00  =   0.071025

H          x = -0.983737  y = -3.065002  z =  0.949533 angstrom
           Maximum rank =  0   Radius =  0.325 angstrom
                   Q00  =   0.089404

H          x =  0.296263  y = -4.238002  z =  1.268533 angstrom
           Maximum rank =  0   Radius =  0.325 angstrom
                   Q00  =   0.075120

H          x = -1.811737  y = -5.351002  z =  1.617533 angstrom
           Maximum rank =  0   Radius =  0.325 angstrom
                   Q00  =   0.080379

H          x = -1.196677  y = -5.983052  z =  0.058543 angstrom
           Maximum rank =  0   Radius =  0.325 angstrom
                   Q00  =   0.079928

H          x = -2.491097  y = -4.719612  z =  0.104823 angstrom
           Maximum rank =  0   Radius =  0.325 angstrom
                   Q00  =   0.082465

Total multipoles referred to origin at
           x =   0.000000,  y =    0.000000,  z =    0.000000 angstrom
                   Q00  =  -0.000000

Finished at 17:12:15 on 26 Apr 2020

  DMA results are available in the Python driver through the
	  variable('DMA DISTRIBUTED MULTIPOLES')
  and
	  variable('DMA TOTAL MULTIPOLES')
  commands.

    Psi4 stopped on: Sunday, 26 April 2020 05:12PM
    Psi4 wall time for execution: 0:04:22.58

*** Psi4 exiting successfully. Buy a developer a beer!
