                               Psi4 1.3.2 release

  ==> Input File <==

--------------------------------------------------------------------------
import numpy as np
set {scf_type pk
basis cc-pvdz
d_convergence 10
gdma_switch   0
gdma_limit    0
gdma_origin   [ 0.0,  0.0,  0.0 ]
}
molecule test {
    units Angstrom
    0 1
    --
    0 1
    C                0.611316493559224     3.740668930169957    -0.395321780282523
    C                0.747316493559224     2.275668930169958    -0.047321780282523
    O                0.585316493559223     1.393668930169957    -0.887321780282523
    N                1.063316493559224     2.008668930169958     1.209678219717477
    H                1.618316493559224     4.128668930169957    -0.548321780282523
    H                0.167316493559224     4.255668930169957     0.458678219717477
    H                1.268316493559224     1.060668930169957     1.470678219717477
    H                1.298316493559224     2.767668930169957     1.845678219717477
    H               -0.012363506440776     3.927918930169957    -1.281867780282523
    C               -0.445683506440777    -3.354331069830043     1.007678219717477
    C               -0.815683506440776    -2.340331069830043    -0.053321780282523
    O               -1.583683506440776    -2.628331069830043    -0.968321780282523
    N               -0.246683506440776    -1.155331069830043     0.048678219717477
    H               -0.415683506440777    -0.446331069830043    -0.654321780282523
    H                0.422316493559223    -0.993331069830043     0.778678219717477
    H               -0.302683506440776    -2.847331069830043     1.963678219717477
    H                0.504316493559223    -3.806331069830043     0.718678219717477
    H               -1.208073506440776    -4.138999069830043     1.121929219717477

}
e, wfn = energy('scf', return_wfn=True)
gdma(wfn)
dmavals = variable('DMA DISTRIBUTED MULTIPOLES')
charges = np.array(dmavals)
print(charges)
np.save('SSI-009GLN-072ASN-1-dimer.npy', np.array(charges))--------------------------------------------------------------------------

*** tstart() called on ds3
*** at Tue Apr 28 09:16:56 2020

   => Loading Basis Set <=

    Name: CC-PVDZ
    Role: ORBITAL
    Keyword: BASIS
    atoms 1-2, 10-11 entry C          line   138 file /theoryfs2/ds/metcalf/miniconda2/envs/tf2gpu/share/psi4/basis/cc-pvdz.gbs
    atoms 3, 12      entry O          line   198 file /theoryfs2/ds/metcalf/miniconda2/envs/tf2gpu/share/psi4/basis/cc-pvdz.gbs
    atoms 4, 13      entry N          line   168 file /theoryfs2/ds/metcalf/miniconda2/envs/tf2gpu/share/psi4/basis/cc-pvdz.gbs
    atoms 5-9, 14-18 entry H          line    22 file /theoryfs2/ds/metcalf/miniconda2/envs/tf2gpu/share/psi4/basis/cc-pvdz.gbs

         ---------------------------------------------------------
                                   SCF
               by Justin Turney, Rob Parrish, Andy Simmonett
                          and Daniel G. A. Smith
                              RHF Reference
                        1 Threads,    500 MiB Core
         ---------------------------------------------------------

  ==> Geometry <==

    Molecular point group: c1
    Full point group: C1

    Geometry (in Angstrom), charge = 0, multiplicity = 1:

       Center              X                  Y                   Z               Mass
    ------------   -----------------  -----------------  -----------------  -----------------
         C            0.611316493559     3.740668930170    -0.395321780283    12.000000000000
         C            0.747316493559     2.275668930170    -0.047321780283    12.000000000000
         O            0.585316493559     1.393668930170    -0.887321780283    15.994914619570
         N            1.063316493559     2.008668930170     1.209678219717    14.003074004430
         H            1.618316493559     4.128668930170    -0.548321780283     1.007825032230
         H            0.167316493559     4.255668930170     0.458678219717     1.007825032230
         H            1.268316493559     1.060668930170     1.470678219717     1.007825032230
         H            1.298316493559     2.767668930170     1.845678219717     1.007825032230
         H           -0.012363506441     3.927918930170    -1.281867780283     1.007825032230
         C           -0.445683506441    -3.354331069830     1.007678219717    12.000000000000
         C           -0.815683506441    -2.340331069830    -0.053321780283    12.000000000000
         O           -1.583683506441    -2.628331069830    -0.968321780283    15.994914619570
         N           -0.246683506441    -1.155331069830     0.048678219717    14.003074004430
         H           -0.415683506441    -0.446331069830    -0.654321780283     1.007825032230
         H            0.422316493559    -0.993331069830     0.778678219717     1.007825032230
         H           -0.302683506441    -2.847331069830     1.963678219717     1.007825032230
         H            0.504316493559    -3.806331069830     0.718678219717     1.007825032230
         H           -1.208073506441    -4.138999069830     1.121929219717     1.007825032230

  Running in c1 symmetry.

  Rotational constants: A =      0.16416  B =      0.02043  C =      0.01859 [cm^-1]
  Rotational constants: A =   4921.40037  B =    612.33394  C =    557.39249 [MHz]
  Nuclear repulsion =  357.618386868974881

  Charge       = 0
  Multiplicity = 1
  Electrons    = 64
  Nalpha       = 32
  Nbeta        = 32

  ==> Algorithm <==

  SCF Algorithm Type is PK.
  DIIS enabled.
  MOM disabled.
  Fractional occupation disabled.
  Guess Type is SAD.
  Energy threshold   = 1.00e-06
  Density threshold  = 1.00e-10
  Integral threshold = 0.00e+00

  ==> Primary Basis <==

  Basis Set: CC-PVDZ
    Blend: CC-PVDZ
    Number of shells: 78
    Number of basis function: 162
    Number of Cartesian functions: 170
    Spherical Harmonics?: true
    Max angular momentum: 2

  ==> Pre-Iterations <==

   -------------------------------------------------------
    Irrep   Nso     Nmo     Nalpha   Nbeta   Ndocc  Nsocc
   -------------------------------------------------------
     A        162     162       0       0       0       0
   -------------------------------------------------------
    Total     162     162      32      32      32       0
   -------------------------------------------------------

  ==> Integral Setup <==

  Using integral reordering PK algorithm.
  Sizing the integral batches needed.
  Building batch lookup table.
   Calculation information:
      Number of atoms:                  18
      Number of AO shells:              78
      Number of primitives:            226
      Number of atomic orbitals:       170
      Number of basis functions:       162

      Integral cutoff                 1.00e-12
      Number of threads:                 1

	Batch   1 pq = [       0,    9405] index = [             0,44231715] size =     44231715
	Batch   2 pq = [    9405,   13203] index = [      44231715,87166206] size =     42934491
  Task number: 8
  Buffer size: 11059200
  Buffer per thread: 2
  We computed 3365952 shell quartets total.
  Whereas there are 4747821 unique shell quartets.

  ==> DiskJK: Disk-Based J/K Matrices <==

    J tasked:                  Yes
    K tasked:                  Yes
    wK tasked:                  No
    Memory [MiB]:              375
    Schwarz Cutoff:          1E-12

    OpenMP threads:              1

  Minimum eigenvalue in the overlap matrix is 4.3941444302E-03.
  Using Symmetric Orthogonalization.

  SCF Guess: Superposition of Atomic Densities via on-the-fly atomic UHF.

  ==> Iterations <==

                        Total Energy        Delta E     RMS |[F,P]|

   @RHF iter SAD:  -414.59197698523786   -4.14592e+02   0.00000e+00
   @RHF iter   1:  -415.69375873346337   -1.10178e+00   4.69763e-03 DIIS
   @RHF iter   2:  -415.90935649230698   -2.15598e-01   2.79663e-03 DIIS
   @RHF iter   3:  -415.98273116606060   -7.33747e-02   5.29566e-04 DIIS
   @RHF iter   4:  -415.98711007274858   -4.37891e-03   1.99009e-04 DIIS
   @RHF iter   5:  -415.98785475811303   -7.44685e-04   3.69883e-05 DIIS
   @RHF iter   6:  -415.98790524688474   -5.04888e-05   1.85905e-05 DIIS
   @RHF iter   7:  -415.98791467393266   -9.42705e-06   7.00432e-06 DIIS
   @RHF iter   8:  -415.98791656349675   -1.88956e-06   2.13383e-06 DIIS
   @RHF iter   9:  -415.98791675118912   -1.87692e-07   4.59543e-07 DIIS
   @RHF iter  10:  -415.98791675888225   -7.69313e-09   1.40475e-07 DIIS
   @RHF iter  11:  -415.98791675923519   -3.52941e-10   5.44194e-08 DIIS
   @RHF iter  12:  -415.98791675929482   -5.96287e-11   1.34402e-08 DIIS
   @RHF iter  13:  -415.98791675929999   -5.17275e-12   3.99853e-09 DIIS
   @RHF iter  14:  -415.98791675929897    1.02318e-12   1.56942e-09 DIIS
   @RHF iter  15:  -415.98791675929931   -3.41061e-13   5.78282e-10 DIIS
   @RHF iter  16:  -415.98791675930073   -1.42109e-12   2.39241e-10 DIIS
   @RHF iter  17:  -415.98791675929971    1.02318e-12   1.00040e-10 DIIS
   @RHF iter  18:  -415.98791675930056   -8.52651e-13   3.02841e-11 DIIS
  Energy and wave function converged.

  ==> Post-Iterations <==

    Orbital Energies [Eh]
    ---------------------

    Doubly Occupied:

       1A    -20.525770     2A    -20.481543     3A    -15.610773
       4A    -15.560719     5A    -11.368802     6A    -11.325708
       7A    -11.256677     8A    -11.229734     9A     -1.391192
      10A     -1.346331    11A     -1.240231    12A     -1.196095
      13A     -1.017455    14A     -0.985447    15A     -0.820704
      16A     -0.780003    17A     -0.747275    18A     -0.706952
      19A     -0.673793    20A     -0.635656    21A     -0.632096
      22A     -0.598422    23A     -0.590729    24A     -0.572552
      25A     -0.549473    26A     -0.545417    27A     -0.540066
      28A     -0.503878    29A     -0.432694    30A     -0.427278
      31A     -0.388605    32A     -0.380323

    Virtual:

      33A      0.140964    34A      0.171471    35A      0.182044
      36A      0.205771    37A      0.215201    38A      0.220444
      39A      0.248122    40A      0.262309    41A      0.264629
      42A      0.290012    43A      0.298245    44A      0.321365
      45A      0.369044    46A      0.410782    47A      0.457935
      48A      0.481001    49A      0.533230    50A      0.566153
      51A      0.608292    52A      0.631098    53A      0.656245
      54A      0.669939    55A      0.690313    56A      0.707250
      57A      0.718912    58A      0.725844    59A      0.727299
      60A      0.752286    61A      0.766116    62A      0.811776
      63A      0.836841    64A      0.849100    65A      0.852672
      66A      0.873228    67A      0.875723    68A      0.895251
      69A      0.901391    70A      0.927373    71A      0.946908
      72A      0.963306    73A      0.985694    74A      0.992143
      75A      1.029760    76A      1.034813    77A      1.051684
      78A      1.089381    79A      1.118776    80A      1.133526
      81A      1.152705    82A      1.198612    83A      1.288620
      84A      1.343400    85A      1.351996    86A      1.359124
      87A      1.367643    88A      1.388287    89A      1.398105
      90A      1.410277    91A      1.432415    92A      1.451619
      93A      1.461246    94A      1.486281    95A      1.493032
      96A      1.548064    97A      1.636747    98A      1.642537
      99A      1.666180   100A      1.671078   101A      1.702662
     102A      1.735420   103A      1.797902   104A      1.808642
     105A      1.850388   106A      1.872980   107A      1.884497
     108A      1.891691   109A      1.901281   110A      1.909059
     111A      1.929169   112A      1.942072   113A      1.950396
     114A      1.959349   115A      1.987739   116A      1.997836
     117A      2.018378   118A      2.054464   119A      2.097921
     120A      2.108714   121A      2.162938   122A      2.199508
     123A      2.209126   124A      2.228326   125A      2.253001
     126A      2.291568   127A      2.376178   128A      2.422222
     129A      2.442526   130A      2.465569   131A      2.470207
     132A      2.489060   133A      2.511228   134A      2.551759
     135A      2.580952   136A      2.620043   137A      2.627281
     138A      2.649065   139A      2.712828   140A      2.732974
     141A      2.742672   142A      2.756108   143A      2.779244
     144A      2.807193   145A      2.870358   146A      2.885349
     147A      2.963049   148A      3.019763   149A      3.076148
     150A      3.111631   151A      3.133925   152A      3.158042
     153A      3.252417   154A      3.331437   155A      3.495327
     156A      3.508547   157A      3.532681   158A      3.569781
     159A      3.843392   160A      3.885223   161A      3.923459
     162A      3.932744

    Final Occupation by Irrep:
              A
    DOCC [    32 ]

  @RHF Final Energy:  -415.98791675930056

   => Energetics <=

    Nuclear Repulsion Energy =            357.6183868689748806
    One-Electron Energy =               -1277.0878237084029934
    Two-Electron Energy =                 503.4815200801275523
    Total Energy =                       -415.9879167593005604

Computation Completed

Properties will be evaluated at   0.000000,   0.000000,   0.000000 [a0]

Properties computed using the SCF density matrix

  Nuclear Dipole Moment: [e a0]
     X:     3.1241      Y:     3.6555      Z:     5.4936

  Electronic Dipole Moment: [e a0]
     X:    -1.4830      Y:    -1.6473      Z:    -3.1705

  Dipole Moment: [e a0]
     X:     1.6411      Y:     2.0082      Z:     2.3231     Total:     3.4818

  Dipole Moment: [D]
     X:     4.1713      Y:     5.1044      Z:     5.9047     Total:     8.8499

*** tstop() called on ds3 at Tue Apr 28 09:17:38 2020
Module time:
	user time   =      27.31 seconds =       0.46 minutes
	system time =      15.68 seconds =       0.26 minutes
	total time  =         42 seconds =       0.70 minutes
Total time:
	user time   =      27.31 seconds =       0.46 minutes
	system time =      15.68 seconds =       0.26 minutes
	total time  =         42 seconds =       0.70 minutes
                                     G D M A

                                 by Anthony Stone

                           version 2.2.06, 22 June 2011

               Distributed Multipoles from Gaussian wavefunctions

Starting at 9:17:38 on 28 Apr 2020

Using SCF density matrix from file ./SSI/SSI-009GLN-072ASN-1-dimer.test.9973.fchk

                         Distributed Multipole Analysis

Standard DMA

Positions and radii in angstrom
Multipole moments in atomic units, ea_0^k for rank k

C          x =  0.611316  y =  3.740669  z = -0.395322 angstrom
           Maximum rank =  0   Radius =  0.650 angstrom
                   Q00  =  -0.253677

C          x =  0.747316  y =  2.275669  z = -0.047322 angstrom
           Maximum rank =  0   Radius =  0.650 angstrom
                   Q00  =   0.808441

O          x =  0.585316  y =  1.393669  z = -0.887322 angstrom
           Maximum rank =  0   Radius =  0.650 angstrom
                   Q00  =  -0.792021

N          x =  1.063316  y =  2.008669  z =  1.209678 angstrom
           Maximum rank =  0   Radius =  0.650 angstrom
                   Q00  =  -0.519305

H          x =  1.618316  y =  4.128669  z = -0.548322 angstrom
           Maximum rank =  0   Radius =  0.325 angstrom
                   Q00  =   0.126063

H          x =  0.167316  y =  4.255669  z =  0.458678 angstrom
           Maximum rank =  0   Radius =  0.325 angstrom
                   Q00  =   0.085500

H          x =  1.268316  y =  1.060669  z =  1.470678 angstrom
           Maximum rank =  0   Radius =  0.325 angstrom
                   Q00  =   0.211761

H          x =  1.298316  y =  2.767669  z =  1.845678 angstrom
           Maximum rank =  0   Radius =  0.325 angstrom
                   Q00  =   0.211789

H          x = -0.012364  y =  3.927919  z = -1.281868 angstrom
           Maximum rank =  0   Radius =  0.325 angstrom
                   Q00  =   0.138603

C          x = -0.445684  y = -3.354331  z =  1.007678 angstrom
           Maximum rank =  0   Radius =  0.650 angstrom
                   Q00  =  -0.267547

C          x = -0.815684  y = -2.340331  z = -0.053322 angstrom
           Maximum rank =  0   Radius =  0.650 angstrom
                   Q00  =   0.829947

O          x = -1.583684  y = -2.628331  z = -0.968322 angstrom
           Maximum rank =  0   Radius =  0.650 angstrom
                   Q00  =  -0.803983

N          x = -0.246684  y = -1.155331  z =  0.048678 angstrom
           Maximum rank =  0   Radius =  0.650 angstrom
                   Q00  =  -0.535854

H          x = -0.415684  y = -0.446331  z = -0.654322 angstrom
           Maximum rank =  0   Radius =  0.325 angstrom
                   Q00  =   0.265446

H          x =  0.422316  y = -0.993331  z =  0.778678 angstrom
           Maximum rank =  0   Radius =  0.325 angstrom
                   Q00  =   0.171965

H          x = -0.302684  y = -2.847331  z =  1.963678 angstrom
           Maximum rank =  0   Radius =  0.325 angstrom
                   Q00  =   0.073095

H          x =  0.504316  y = -3.806331  z =  0.718678 angstrom
           Maximum rank =  0   Radius =  0.325 angstrom
                   Q00  =   0.120694

H          x = -1.208074  y = -4.138999  z =  1.121929 angstrom
           Maximum rank =  0   Radius =  0.325 angstrom
                   Q00  =   0.129081

Total multipoles referred to origin at
           x =   0.000000,  y =    0.000000,  z =    0.000000 angstrom
                   Q00  =  -0.000000

Finished at 9:17:38 on 28 Apr 2020

  DMA results are available in the Python driver through the
	  variable('DMA DISTRIBUTED MULTIPOLES')
  and
	  variable('DMA TOTAL MULTIPOLES')
  commands.

    Psi4 stopped on: Tuesday, 28 April 2020 09:17AM
    Psi4 wall time for execution: 0:00:41.50

*** Psi4 exiting successfully. Buy a developer a beer!
