                               Psi4 1.3.2 release

  ==> Input File <==

--------------------------------------------------------------------------
import numpy as np
set {scf_type pk
basis cc-pvdz
d_convergence 10
gdma_switch   0
gdma_limit    0
gdma_origin   [ 0.0,  0.0,  0.0 ]
}
molecule test {
    units Angstrom
    0 1
    --
    0 1
    C               -1.555130080361188    -1.343498208393598    -0.388974964480969
    C               -0.634130080361188    -1.840498208393598    -1.497974964480969
    H               -2.599130080361188    -1.529498208393598    -0.645974964480969
    H               -1.316130080361188    -1.847498208393598     0.546025035519031
    H               -1.413130080361188    -0.271498208393598    -0.244974964480969
    H                0.394869919638812    -1.781498208392598    -1.134974964480969
    H               -0.730310080361188    -1.193738208393598    -2.382536964480968
    H               -0.838090080361188    -2.892508208393598    -1.746306964480969
    C                1.208869919638812     0.835501791606402     0.894025035519031
    C                0.977869919638812     2.347501791606402     0.986025035519031
    H                2.140869919638812     0.567501791606402     1.391025035519031
    H                0.405869919638812     0.302501791606402     1.395025035519031
    H                1.253869919638812     0.521501791606402    -0.148974964480969
    H                1.031869919638812     2.649501791606402     2.028025035519032
    H                1.730059919638812     2.912181791607402     0.415624035519031
    H               -0.030610080361188     2.574871791607401     0.610175035519031

}
e, wfn = energy('scf', return_wfn=True)
gdma(wfn)
dmavals = variable('DMA DISTRIBUTED MULTIPOLES')
charges = np.array(dmavals)
print(charges)
np.save('SSI-027ALA-074LEU-1-dimer.npy', np.array(charges))--------------------------------------------------------------------------

*** tstart() called on ds3
*** at Mon Apr 27 22:12:41 2020

   => Loading Basis Set <=

    Name: CC-PVDZ
    Role: ORBITAL
    Keyword: BASIS
    atoms 1-2, 9-10  entry C          line   138 file /theoryfs2/ds/metcalf/miniconda2/envs/tf2gpu/share/psi4/basis/cc-pvdz.gbs
    atoms 3-8, 11-16 entry H          line    22 file /theoryfs2/ds/metcalf/miniconda2/envs/tf2gpu/share/psi4/basis/cc-pvdz.gbs

         ---------------------------------------------------------
                                   SCF
               by Justin Turney, Rob Parrish, Andy Simmonett
                          and Daniel G. A. Smith
                              RHF Reference
                        1 Threads,    500 MiB Core
         ---------------------------------------------------------

  ==> Geometry <==

    Molecular point group: c1
    Full point group: C1

    Geometry (in Angstrom), charge = 0, multiplicity = 1:

       Center              X                  Y                   Z               Mass
    ------------   -----------------  -----------------  -----------------  -----------------
         C           -1.555130080361    -1.343498208394    -0.388974964481    12.000000000000
         C           -0.634130080361    -1.840498208394    -1.497974964481    12.000000000000
         H           -2.599130080361    -1.529498208394    -0.645974964481     1.007825032230
         H           -1.316130080361    -1.847498208394     0.546025035519     1.007825032230
         H           -1.413130080361    -0.271498208394    -0.244974964481     1.007825032230
         H            0.394869919639    -1.781498208393    -1.134974964481     1.007825032230
         H           -0.730310080361    -1.193738208394    -2.382536964481     1.007825032230
         H           -0.838090080361    -2.892508208394    -1.746306964481     1.007825032230
         C            1.208869919639     0.835501791606     0.894025035519    12.000000000000
         C            0.977869919639     2.347501791606     0.986025035519    12.000000000000
         H            2.140869919639     0.567501791606     1.391025035519     1.007825032230
         H            0.405869919639     0.302501791606     1.395025035519     1.007825032230
         H            1.253869919639     0.521501791606    -0.148974964481     1.007825032230
         H            1.031869919639     2.649501791606     2.028025035519     1.007825032230
         H            1.730059919639     2.912181791607     0.415624035519     1.007825032230
         H           -0.030610080361     2.574871791607     0.610175035519     1.007825032230

  Running in c1 symmetry.

  Rotational constants: A =      0.42466  B =      0.05484  C =      0.05268 [cm^-1]
  Rotational constants: A =  12731.03871  B =   1643.99396  C =   1579.44708 [MHz]
  Nuclear repulsion =  124.078402010698426

  Charge       = 0
  Multiplicity = 1
  Electrons    = 36
  Nalpha       = 18
  Nbeta        = 18

  ==> Algorithm <==

  SCF Algorithm Type is PK.
  DIIS enabled.
  MOM disabled.
  Fractional occupation disabled.
  Guess Type is SAD.
  Energy threshold   = 1.00e-06
  Density threshold  = 1.00e-10
  Integral threshold = 0.00e+00

  ==> Primary Basis <==

  Basis Set: CC-PVDZ
    Blend: CC-PVDZ
    Number of shells: 60
    Number of basis function: 116
    Number of Cartesian functions: 120
    Spherical Harmonics?: true
    Max angular momentum: 2

  ==> Pre-Iterations <==

   -------------------------------------------------------
    Irrep   Nso     Nmo     Nalpha   Nbeta   Ndocc  Nsocc
   -------------------------------------------------------
     A        116     116       0       0       0       0
   -------------------------------------------------------
    Total     116     116      18      18      18       0
   -------------------------------------------------------

  ==> Integral Setup <==

  Using integral reordering PK algorithm.
  Sizing the integral batches needed.
  Building batch lookup table.
   Calculation information:
      Number of atoms:                  16
      Number of AO shells:              60
      Number of primitives:            148
      Number of atomic orbitals:       120
      Number of basis functions:       116

      Integral cutoff                 1.00e-12
      Number of threads:                 1

	Batch   1 pq = [       0,    6786] index = [             0,23028291] size =     23028291
  Task number: 3
  Buffer size: 11059200
  Buffer per thread: 2
  We computed 1517227 shell quartets total.
  Whereas there are 1675365 unique shell quartets.

  ==> DiskJK: Disk-Based J/K Matrices <==

    J tasked:                  Yes
    K tasked:                  Yes
    wK tasked:                  No
    Memory [MiB]:              375
    Schwarz Cutoff:          1E-12

    OpenMP threads:              1

  Minimum eigenvalue in the overlap matrix is 7.5255137226E-03.
  Using Symmetric Orthogonalization.

  SCF Guess: Superposition of Atomic Densities via on-the-fly atomic UHF.

  ==> Iterations <==

                        Total Energy        Delta E     RMS |[F,P]|

   @RHF iter SAD:  -157.35291399898401   -1.57353e+02   0.00000e+00
   @RHF iter   1:  -158.30749239074248   -9.54578e-01   4.21195e-03 DIIS
   @RHF iter   2:  -158.44094614093601   -1.33454e-01   1.79638e-03 DIIS
   @RHF iter   3:  -158.46437205025993   -2.34259e-02   3.49733e-04 DIIS
   @RHF iter   4:  -158.46620790027507   -1.83585e-03   3.86822e-05 DIIS
   @RHF iter   5:  -158.46623146154633   -2.35613e-05   6.34165e-06 DIIS
   @RHF iter   6:  -158.46623206564527   -6.04099e-07   9.88816e-07 DIIS
   @RHF iter   7:  -158.46623207553546   -9.89019e-09   3.01810e-07 DIIS
   @RHF iter   8:  -158.46623207630626   -7.70797e-10   3.79706e-08 DIIS
   @RHF iter   9:  -158.46623207632575   -1.94973e-11   7.89376e-09 DIIS
   @RHF iter  10:  -158.46623207632680   -1.05160e-12   2.02200e-09 DIIS
   @RHF iter  11:  -158.46623207632641    3.97904e-13   6.35318e-10 DIIS
   @RHF iter  12:  -158.46623207632641    0.00000e+00   1.61592e-10 DIIS
   @RHF iter  13:  -158.46623207632661   -1.98952e-13   2.23623e-11 DIIS
  Energy and wave function converged.

  ==> Post-Iterations <==

    Orbital Energies [Eh]
    ---------------------

    Doubly Occupied:

       1A    -11.219720     2A    -11.218984     3A    -11.216661
       4A    -11.216205     5A     -1.020039     6A     -1.016682
       7A     -0.838649     8A     -0.835466     9A     -0.604010
      10A     -0.599295    11A     -0.598223    12A     -0.591034
      13A     -0.502873    14A     -0.498729    15A     -0.490091
      16A     -0.487448    17A     -0.484191    18A     -0.480023

    Virtual:

      19A      0.170602    20A      0.198447    21A      0.224365
      22A      0.226620    23A      0.246665    24A      0.258138
      25A      0.264824    26A      0.272616    27A      0.284966
      28A      0.299964    29A      0.307072    30A      0.341668
      31A      0.395249    32A      0.400494    33A      0.568556
      34A      0.593349    35A      0.598419    36A      0.606106
      37A      0.621387    38A      0.633869    39A      0.665515
      40A      0.686247    41A      0.711711    42A      0.800279
      43A      0.843806    44A      0.847883    45A      0.883482
      46A      0.889191    47A      0.892327    48A      0.895783
      49A      0.899400    50A      0.907183    51A      0.916535
      52A      0.931748    53A      0.939146    54A      0.967336
      55A      0.981688    56A      1.003540    57A      1.124270
      58A      1.126643    59A      1.132124    60A      1.149666
      61A      1.232438    62A      1.244242    63A      1.465551
      64A      1.472675    65A      1.484473    66A      1.488748
      67A      1.564922    68A      1.583709    69A      1.681469
      70A      1.684352    71A      1.692226    72A      1.708703
      73A      1.858314    74A      1.866290    75A      1.875295
      76A      1.884320    77A      1.893162    78A      1.909072
      79A      1.940837    80A      1.943830    81A      1.945317
      82A      1.947935    83A      1.952696    84A      1.957488
      85A      1.959122    86A      1.966142    87A      1.975993
      88A      2.014464    89A      2.096716    90A      2.114183
      91A      2.119872    92A      2.134115    93A      2.294327
      94A      2.300388    95A      2.316936    96A      2.318466
      97A      2.445534    98A      2.451277    99A      2.462437
     100A      2.464930   101A      2.558716   102A      2.571161
     103A      2.573549   104A      2.584408   105A      2.759856
     106A      2.764866   107A      2.791931   108A      2.794738
     109A      2.846140   110A      2.851022   111A      2.858842
     112A      2.868555   113A      2.932866   114A      2.953686
     115A      2.965090   116A      2.984914

    Final Occupation by Irrep:
              A
    DOCC [    18 ]

  @RHF Final Energy:  -158.46623207632661

   => Energetics <=

    Nuclear Repulsion Energy =            124.0784020106984258
    One-Electron Energy =                -457.2526251598498561
    Two-Electron Energy =                 174.7079910728248251
    Total Energy =                       -158.4662320763266052

Computation Completed

Properties will be evaluated at   0.000000,   0.000000,   0.000000 [a0]

Properties computed using the SCF density matrix

  Nuclear Dipole Moment: [e a0]
     X:     0.0281      Y:     0.0111      Z:     0.0770

  Electronic Dipole Moment: [e a0]
     X:    -0.0201      Y:    -0.0138      Z:    -0.0532

  Dipole Moment: [e a0]
     X:     0.0081      Y:    -0.0027      Z:     0.0238     Total:     0.0253

  Dipole Moment: [D]
     X:     0.0205      Y:    -0.0069      Z:     0.0605     Total:     0.0643

*** tstop() called on ds3 at Mon Apr 27 22:12:52 2020
Module time:
	user time   =       8.23 seconds =       0.14 minutes
	system time =       2.96 seconds =       0.05 minutes
	total time  =         11 seconds =       0.18 minutes
Total time:
	user time   =       8.23 seconds =       0.14 minutes
	system time =       2.96 seconds =       0.05 minutes
	total time  =         11 seconds =       0.18 minutes
                                     G D M A

                                 by Anthony Stone

                           version 2.2.06, 22 June 2011

               Distributed Multipoles from Gaussian wavefunctions

Starting at 22:12:52 on 27 Apr 2020

Using SCF density matrix from file ./SSI/SSI-027ALA-074LEU-1-dimer.test.1369.fchk

                         Distributed Multipole Analysis

Standard DMA

Positions and radii in angstrom
Multipole moments in atomic units, ea_0^k for rank k

C          x = -1.555130  y = -1.343498  z = -0.388975 angstrom
           Maximum rank =  0   Radius =  0.650 angstrom
                   Q00  =  -0.233718

C          x = -0.634130  y = -1.840498  z = -1.497975 angstrom
           Maximum rank =  0   Radius =  0.650 angstrom
                   Q00  =  -0.239289

H          x = -2.599130  y = -1.529498  z = -0.645975 angstrom
           Maximum rank =  0   Radius =  0.325 angstrom
                   Q00  =   0.077879

H          x = -1.316130  y = -1.847498  z =  0.546025 angstrom
           Maximum rank =  0   Radius =  0.325 angstrom
                   Q00  =   0.078336

H          x = -1.413130  y = -0.271498  z = -0.244975 angstrom
           Maximum rank =  0   Radius =  0.325 angstrom
                   Q00  =   0.080197

H          x =  0.394870  y = -1.781498  z = -1.134975 angstrom
           Maximum rank =  0   Radius =  0.325 angstrom
                   Q00  =   0.077680

H          x = -0.730310  y = -1.193738  z = -2.382537 angstrom
           Maximum rank =  0   Radius =  0.325 angstrom
                   Q00  =   0.078083

H          x = -0.838090  y = -2.892508  z = -1.746307 angstrom
           Maximum rank =  0   Radius =  0.325 angstrom
                   Q00  =   0.079968

C          x =  1.208870  y =  0.835502  z =  0.894025 angstrom
           Maximum rank =  0   Radius =  0.650 angstrom
                   Q00  =  -0.239565

C          x =  0.977870  y =  2.347502  z =  0.986025 angstrom
           Maximum rank =  0   Radius =  0.650 angstrom
                   Q00  =  -0.237708

H          x =  2.140870  y =  0.567502  z =  1.391025 angstrom
           Maximum rank =  0   Radius =  0.325 angstrom
                   Q00  =   0.078360

H          x =  0.405870  y =  0.302502  z =  1.395025 angstrom
           Maximum rank =  0   Radius =  0.325 angstrom
                   Q00  =   0.082072

H          x =  1.253870  y =  0.521502  z = -0.148975 angstrom
           Maximum rank =  0   Radius =  0.325 angstrom
                   Q00  =   0.080186

H          x =  1.031870  y =  2.649502  z =  2.028025 angstrom
           Maximum rank =  0   Radius =  0.325 angstrom
                   Q00  =   0.079894

H          x =  1.730060  y =  2.912182  z =  0.415624 angstrom
           Maximum rank =  0   Radius =  0.325 angstrom
                   Q00  =   0.081355

H          x = -0.030610  y =  2.574872  z =  0.610175 angstrom
           Maximum rank =  0   Radius =  0.325 angstrom
                   Q00  =   0.076270

Total multipoles referred to origin at
           x =   0.000000,  y =    0.000000,  z =    0.000000 angstrom
                   Q00  =  -0.000000

Finished at 22:12:52 on 27 Apr 2020

  DMA results are available in the Python driver through the
	  variable('DMA DISTRIBUTED MULTIPOLES')
  and
	  variable('DMA TOTAL MULTIPOLES')
  commands.

    Psi4 stopped on: Monday, 27 April 2020 10:12PM
    Psi4 wall time for execution: 0:00:11.00

*** Psi4 exiting successfully. Buy a developer a beer!
