                               Psi4 1.3.2 release

  ==> Input File <==

--------------------------------------------------------------------------
import numpy as np
set {scf_type pk
basis cc-pvdz
d_convergence 10
gdma_switch   0
gdma_limit    0
gdma_origin   [ 0.0,  0.0,  0.0 ]
}
molecule test {
    units Angstrom
    0 1
    --
    0 1
    C                1.060718569045619     1.405328107068020     0.213774546759657
    C                2.146718569045619     2.475328107068020     0.235774546759657
    H                1.318718569045619     0.592328107068020     0.892774546759657
    H                0.113718569045619     1.842328107068020     0.532774546759657
    H                0.928718569045619     1.012328107068020    -0.793225453240343
    H                1.875718569045619     3.246328107068020    -0.486225453240343
    H                3.116748569045619     2.043418107068020    -0.051455453240343
    H                2.204068569045619     2.951338107068020     1.225784546759657
    C               -1.303281430954381    -1.252671892931980    -0.079225453240343
    C               -1.899281430954381    -2.631671892931980    -0.372225453240343
    H               -0.849281430954381    -0.841671892931980    -0.982225453240343
    H               -2.085281430954381    -0.574671892931980     0.260774546759657
    H               -0.551281430954381    -1.300671892931980     0.707774546759657
    H               -2.374281430954381    -2.998671892931981     0.534774546759657
    H               -1.095101430954381    -3.327621892931980    -0.653185453240343
    H               -2.660501430954381    -2.600851892931980    -1.165695453240343

}
e, wfn = energy('scf', return_wfn=True)
gdma(wfn)
dmavals = variable('DMA DISTRIBUTED MULTIPOLES')
charges = np.array(dmavals)
print(charges)
np.save('SSI-071VAL-083ILE-1-dimer.npy', np.array(charges))--------------------------------------------------------------------------

*** tstart() called on ds3
*** at Mon Apr 27 12:53:55 2020

   => Loading Basis Set <=

    Name: CC-PVDZ
    Role: ORBITAL
    Keyword: BASIS
    atoms 1-2, 9-10  entry C          line   138 file /theoryfs2/ds/metcalf/miniconda2/envs/tf2gpu/share/psi4/basis/cc-pvdz.gbs
    atoms 3-8, 11-16 entry H          line    22 file /theoryfs2/ds/metcalf/miniconda2/envs/tf2gpu/share/psi4/basis/cc-pvdz.gbs

         ---------------------------------------------------------
                                   SCF
               by Justin Turney, Rob Parrish, Andy Simmonett
                          and Daniel G. A. Smith
                              RHF Reference
                        1 Threads,    500 MiB Core
         ---------------------------------------------------------

  ==> Geometry <==

    Molecular point group: c1
    Full point group: C1

    Geometry (in Angstrom), charge = 0, multiplicity = 1:

       Center              X                  Y                   Z               Mass
    ------------   -----------------  -----------------  -----------------  -----------------
         C            1.060718569046     1.405328107068     0.213774546760    12.000000000000
         C            2.146718569046     2.475328107068     0.235774546760    12.000000000000
         H            1.318718569046     0.592328107068     0.892774546760     1.007825032230
         H            0.113718569046     1.842328107068     0.532774546760     1.007825032230
         H            0.928718569046     1.012328107068    -0.793225453240     1.007825032230
         H            1.875718569046     3.246328107068    -0.486225453240     1.007825032230
         H            3.116748569046     2.043418107068    -0.051455453240     1.007825032230
         H            2.204068569046     2.951338107068     1.225784546760     1.007825032230
         C           -1.303281430954    -1.252671892932    -0.079225453240    12.000000000000
         C           -1.899281430954    -2.631671892932    -0.372225453240    12.000000000000
         H           -0.849281430954    -0.841671892932    -0.982225453240     1.007825032230
         H           -2.085281430954    -0.574671892932     0.260774546760     1.007825032230
         H           -0.551281430954    -1.300671892932     0.707774546760     1.007825032230
         H           -2.374281430954    -2.998671892932     0.534774546760     1.007825032230
         H           -1.095101430954    -3.327621892932    -0.653185453240     1.007825032230
         H           -2.660501430954    -2.600851892932    -1.165695453240     1.007825032230

  Running in c1 symmetry.

  Rotational constants: A =      1.15255  B =      0.03903  C =      0.03885 [cm^-1]
  Rotational constants: A =  34552.64715  B =   1170.03110  C =   1164.82434 [MHz]
  Nuclear repulsion =  120.142074211195407

  Charge       = 0
  Multiplicity = 1
  Electrons    = 36
  Nalpha       = 18
  Nbeta        = 18

  ==> Algorithm <==

  SCF Algorithm Type is PK.
  DIIS enabled.
  MOM disabled.
  Fractional occupation disabled.
  Guess Type is SAD.
  Energy threshold   = 1.00e-06
  Density threshold  = 1.00e-10
  Integral threshold = 0.00e+00

  ==> Primary Basis <==

  Basis Set: CC-PVDZ
    Blend: CC-PVDZ
    Number of shells: 60
    Number of basis function: 116
    Number of Cartesian functions: 120
    Spherical Harmonics?: true
    Max angular momentum: 2

  ==> Pre-Iterations <==

   -------------------------------------------------------
    Irrep   Nso     Nmo     Nalpha   Nbeta   Ndocc  Nsocc
   -------------------------------------------------------
     A        116     116       0       0       0       0
   -------------------------------------------------------
    Total     116     116      18      18      18       0
   -------------------------------------------------------

  ==> Integral Setup <==

  Using integral reordering PK algorithm.
  Sizing the integral batches needed.
  Building batch lookup table.
   Calculation information:
      Number of atoms:                  16
      Number of AO shells:              60
      Number of primitives:            148
      Number of atomic orbitals:       120
      Number of basis functions:       116

      Integral cutoff                 1.00e-12
      Number of threads:                 1

	Batch   1 pq = [       0,    6786] index = [             0,23028291] size =     23028291
  Task number: 3
  Buffer size: 11059200
  Buffer per thread: 2
  We computed 1328615 shell quartets total.
  Whereas there are 1675365 unique shell quartets.

  ==> DiskJK: Disk-Based J/K Matrices <==

    J tasked:                  Yes
    K tasked:                  Yes
    wK tasked:                  No
    Memory [MiB]:              375
    Schwarz Cutoff:          1E-12

    OpenMP threads:              1

  Minimum eigenvalue in the overlap matrix is 5.5654829802E-03.
  Using Symmetric Orthogonalization.

  SCF Guess: Superposition of Atomic Densities via on-the-fly atomic UHF.

  ==> Iterations <==

                        Total Energy        Delta E     RMS |[F,P]|

   @RHF iter SAD:  -157.34780142086447   -1.57348e+02   0.00000e+00
   @RHF iter   1:  -158.30759301215923   -9.59792e-01   4.21785e-03 DIIS
   @RHF iter   2:  -158.44146136726528   -1.33868e-01   1.79948e-03 DIIS
   @RHF iter   3:  -158.46494952988601   -2.34882e-02   3.50629e-04 DIIS
   @RHF iter   4:  -158.46678698216763   -1.83745e-03   3.89857e-05 DIIS
   @RHF iter   5:  -158.46681049663357   -2.35145e-05   6.86984e-06 DIIS
   @RHF iter   6:  -158.46681116638271   -6.69749e-07   1.23637e-06 DIIS
   @RHF iter   7:  -158.46681118026197   -1.38793e-08   3.17062e-07 DIIS
   @RHF iter   8:  -158.46681118120048   -9.38513e-10   3.63660e-08 DIIS
   @RHF iter   9:  -158.46681118122214   -2.16573e-11   5.66872e-09 DIIS
   @RHF iter  10:  -158.46681118122297   -8.24230e-13   1.53211e-09 DIIS
   @RHF iter  11:  -158.46681118122311   -1.42109e-13   4.76010e-10 DIIS
   @RHF iter  12:  -158.46681118122257    5.40012e-13   8.07435e-11 DIIS
  Energy and wave function converged.

  ==> Post-Iterations <==

    Orbital Energies [Eh]
    ---------------------

    Doubly Occupied:

       1A    -11.218577     2A    -11.218383     3A    -11.215746
       4A    -11.215524     5A     -1.018885     6A     -1.015860
       7A     -0.840225     8A     -0.832326     9A     -0.599410
      10A     -0.598565    11A     -0.595181    12A     -0.593470
      13A     -0.508393    14A     -0.495382    15A     -0.487447
      16A     -0.486676    17A     -0.481504    18A     -0.479782

    Virtual:

      19A      0.176992    20A      0.194000    21A      0.219803
      22A      0.231882    23A      0.238479    24A      0.264575
      25A      0.268396    26A      0.277964    27A      0.279147
      28A      0.290343    29A      0.315777    30A      0.338997
      31A      0.368077    32A      0.428681    33A      0.562552
      34A      0.590648    35A      0.597520    36A      0.599679
      37A      0.603497    38A      0.656306    39A      0.671063
      40A      0.698627    41A      0.708467    42A      0.746570
      43A      0.832723    44A      0.883911    45A      0.887316
      46A      0.893216    47A      0.893986    48A      0.896503
      49A      0.902538    50A      0.915191    51A      0.919518
      52A      0.925356    53A      0.947425    54A      0.951927
      55A      0.969486    56A      1.006749    57A      1.124211
      58A      1.126492    59A      1.133262    60A      1.139998
      61A      1.201649    62A      1.298204    63A      1.464509
      64A      1.474845    65A      1.482835    66A      1.485006
      67A      1.572111    68A      1.596373    69A      1.680017
      70A      1.684551    71A      1.694788    72A      1.698531
      73A      1.841465    74A      1.850705    75A      1.885611
      76A      1.887141    77A      1.893526    78A      1.923008
      79A      1.938539    80A      1.940260    81A      1.942962
      82A      1.946323    83A      1.950402    84A      1.958718
      85A      1.964679    86A      1.971650    87A      1.980791
      88A      2.079361    89A      2.093512    90A      2.104370
      91A      2.116916    92A      2.120363    93A      2.301778
      94A      2.305606    95A      2.314286    96A      2.400987
      97A      2.448658    98A      2.454555    99A      2.468660
     100A      2.477642   101A      2.547129   102A      2.558400
     103A      2.574997   104A      2.577055   105A      2.755811
     106A      2.768098   107A      2.788763   108A      2.789956
     109A      2.846523   110A      2.850051   111A      2.862507
     112A      2.874364   113A      2.940745   114A      2.946274
     115A      2.958749   116A      2.974829

    Final Occupation by Irrep:
              A
    DOCC [    18 ]

  @RHF Final Energy:  -158.46681118122257

   => Energetics <=

    Nuclear Repulsion Energy =            120.1420742111954070
    One-Electron Energy =                -449.4150990868879489
    Two-Electron Energy =                 170.8062136944699887
    Total Energy =                       -158.4668111812225675

Computation Completed

Properties will be evaluated at   0.000000,   0.000000,   0.000000 [a0]

Properties computed using the SCF density matrix

  Nuclear Dipole Moment: [e a0]
     X:    -0.0544      Y:     0.0412      Z:     0.0212

  Electronic Dipole Moment: [e a0]
     X:     0.0431      Y:    -0.0317      Z:    -0.0159

  Dipole Moment: [e a0]
     X:    -0.0113      Y:     0.0095      Z:     0.0054     Total:     0.0157

  Dipole Moment: [D]
     X:    -0.0287      Y:     0.0241      Z:     0.0136     Total:     0.0399

*** tstop() called on ds3 at Mon Apr 27 12:54:08 2020
Module time:
	user time   =       9.70 seconds =       0.16 minutes
	system time =       3.70 seconds =       0.06 minutes
	total time  =         13 seconds =       0.22 minutes
Total time:
	user time   =       9.70 seconds =       0.16 minutes
	system time =       3.70 seconds =       0.06 minutes
	total time  =         13 seconds =       0.22 minutes
                                     G D M A

                                 by Anthony Stone

                           version 2.2.06, 22 June 2011

               Distributed Multipoles from Gaussian wavefunctions

Starting at 12:54:8 on 27 Apr 2020

Using SCF density matrix from file ./SSI/SSI-071VAL-083ILE-1-dimer.test.4595.fchk

                         Distributed Multipole Analysis

Standard DMA

Positions and radii in angstrom
Multipole moments in atomic units, ea_0^k for rank k

C          x =  1.060719  y =  1.405328  z =  0.213775 angstrom
           Maximum rank =  0   Radius =  0.650 angstrom
                   Q00  =  -0.234917

C          x =  2.146719  y =  2.475328  z =  0.235775 angstrom
           Maximum rank =  0   Radius =  0.650 angstrom
                   Q00  =  -0.236616

H          x =  1.318719  y =  0.592328  z =  0.892775 angstrom
           Maximum rank =  0   Radius =  0.325 angstrom
                   Q00  =   0.077609

H          x =  0.113719  y =  1.842328  z =  0.532775 angstrom
           Maximum rank =  0   Radius =  0.325 angstrom
                   Q00  =   0.077746

H          x =  0.928719  y =  1.012328  z = -0.793225 angstrom
           Maximum rank =  0   Radius =  0.325 angstrom
                   Q00  =   0.079305

H          x =  1.875719  y =  3.246328  z = -0.486225 angstrom
           Maximum rank =  0   Radius =  0.325 angstrom
                   Q00  =   0.077284

H          x =  3.116749  y =  2.043418  z = -0.051455 angstrom
           Maximum rank =  0   Radius =  0.325 angstrom
                   Q00  =   0.079615

H          x =  2.204069  y =  2.951338  z =  1.225785 angstrom
           Maximum rank =  0   Radius =  0.325 angstrom
                   Q00  =   0.079750

C          x = -1.303281  y = -1.252672  z = -0.079225 angstrom
           Maximum rank =  0   Radius =  0.650 angstrom
                   Q00  =  -0.239573

C          x = -1.899281  y = -2.631672  z = -0.372225 angstrom
           Maximum rank =  0   Radius =  0.650 angstrom
                   Q00  =  -0.236074

H          x = -0.849281  y = -0.841672  z = -0.982225 angstrom
           Maximum rank =  0   Radius =  0.325 angstrom
                   Q00  =   0.078031

H          x = -2.085281  y = -0.574672  z =  0.260775 angstrom
           Maximum rank =  0   Radius =  0.325 angstrom
                   Q00  =   0.078255

H          x = -0.551281  y = -1.300672  z =  0.707775 angstrom
           Maximum rank =  0   Radius =  0.325 angstrom
                   Q00  =   0.081232

H          x = -2.374281  y = -2.998672  z =  0.534775 angstrom
           Maximum rank =  0   Radius =  0.325 angstrom
                   Q00  =   0.078495

H          x = -1.095101  y = -3.327622  z = -0.653185 angstrom
           Maximum rank =  0   Radius =  0.325 angstrom
                   Q00  =   0.078129

H          x = -2.660501  y = -2.600852  z = -1.165695 angstrom
           Maximum rank =  0   Radius =  0.325 angstrom
                   Q00  =   0.081730

Total multipoles referred to origin at
           x =   0.000000,  y =    0.000000,  z =    0.000000 angstrom
                   Q00  =  -0.000000

Finished at 12:54:8 on 27 Apr 2020

  DMA results are available in the Python driver through the
	  variable('DMA DISTRIBUTED MULTIPOLES')
  and
	  variable('DMA TOTAL MULTIPOLES')
  commands.

    Psi4 stopped on: Monday, 27 April 2020 12:54PM
    Psi4 wall time for execution: 0:00:13.07

*** Psi4 exiting successfully. Buy a developer a beer!
