                               Psi4 1.3.2 release

  ==> Input File <==

--------------------------------------------------------------------------
import numpy as np
set {scf_type pk
basis cc-pvdz
d_convergence 10
gdma_switch   0
gdma_limit    0
gdma_origin   [ 0.0,  0.0,  0.0 ]
}
molecule test {
    units Angstrom
    0 1
    --
    0 1
    C               -2.194972473094214     1.086054688449225    -3.226662754027438
    C               -1.613972473094214     2.145054688449225    -4.219662754027438
    H               -3.148972473094214     0.703054688449225    -3.592662754027439
    H               -1.491972473094214     0.259054688449225    -3.122662754027439
    H               -2.349972473094213     1.543054688449224    -2.248662754027438
    H               -0.658972473094214     2.499054688449225    -3.829662754027439
    H               -2.298712473094213     2.996834688449225    -4.344570754027439
    H               -1.426812473094214     1.667164688449225    -5.192591754027439
    C                2.912027526905787    -0.203945311550775     2.737337245972562
    C               -0.609972473094214    -0.537945311550775     0.270337245972562
    C                0.089027526905786    -1.667945311550775     0.687337245972562
    C               -0.094972473094214     0.710054688449225     0.575337245972562
    C                1.250027526905786    -1.548945311550775     1.446337245972562
    C                1.011027526905786     0.842054688449225     1.418337245972562
    C                1.723027526905786    -0.312945311550775     1.828337245972562
    O               -1.757972473094214    -0.748945311550775    -0.516662754027438
    H               -1.952972473094214    -1.683945311550775    -0.631662754027438
    H               -0.271972473094214    -2.652945311550775     0.424337245972562
    H               -0.621972473094214     1.584054688449225     0.227337245972562
    H                1.752027526905786    -2.448945311550775     1.763337245972562
    H                1.355027526905786     1.826054688449225     1.711337245972562
    H                2.602027526905787    -0.531945311550775     3.728337245972561
    H                3.210027526905786     0.842054688449225     2.816337245972562
    H                3.778797526905787    -0.806545311550775     2.428187245972561

}
e, wfn = energy('scf', return_wfn=True)
gdma(wfn)
dmavals = variable('DMA DISTRIBUTED MULTIPOLES')
charges = np.array(dmavals)
print(charges)
np.save('SSI-159ALA-197TYR-1-dimer.npy', np.array(charges))--------------------------------------------------------------------------

*** tstart() called on ds3
*** at Tue Apr 28 09:32:42 2020

   => Loading Basis Set <=

    Name: CC-PVDZ
    Role: ORBITAL
    Keyword: BASIS
    atoms 1-2, 9-15  entry C          line   138 file /theoryfs2/ds/metcalf/miniconda2/envs/tf2gpu/share/psi4/basis/cc-pvdz.gbs
    atoms 3-8, 17-24 entry H          line    22 file /theoryfs2/ds/metcalf/miniconda2/envs/tf2gpu/share/psi4/basis/cc-pvdz.gbs
    atoms 16         entry O          line   198 file /theoryfs2/ds/metcalf/miniconda2/envs/tf2gpu/share/psi4/basis/cc-pvdz.gbs

         ---------------------------------------------------------
                                   SCF
               by Justin Turney, Rob Parrish, Andy Simmonett
                          and Daniel G. A. Smith
                              RHF Reference
                        1 Threads,    500 MiB Core
         ---------------------------------------------------------

  ==> Geometry <==

    Molecular point group: c1
    Full point group: C1

    Geometry (in Angstrom), charge = 0, multiplicity = 1:

       Center              X                  Y                   Z               Mass
    ------------   -----------------  -----------------  -----------------  -----------------
         C           -2.194972473094     1.086054688449    -3.226662754027    12.000000000000
         C           -1.613972473094     2.145054688449    -4.219662754027    12.000000000000
         H           -3.148972473094     0.703054688449    -3.592662754027     1.007825032230
         H           -1.491972473094     0.259054688449    -3.122662754027     1.007825032230
         H           -2.349972473094     1.543054688449    -2.248662754027     1.007825032230
         H           -0.658972473094     2.499054688449    -3.829662754027     1.007825032230
         H           -2.298712473094     2.996834688449    -4.344570754027     1.007825032230
         H           -1.426812473094     1.667164688449    -5.192591754027     1.007825032230
         C            2.912027526906    -0.203945311551     2.737337245973    12.000000000000
         C           -0.609972473094    -0.537945311551     0.270337245973    12.000000000000
         C            0.089027526906    -1.667945311551     0.687337245973    12.000000000000
         C           -0.094972473094     0.710054688449     0.575337245973    12.000000000000
         C            1.250027526906    -1.548945311551     1.446337245973    12.000000000000
         C            1.011027526906     0.842054688449     1.418337245973    12.000000000000
         C            1.723027526906    -0.312945311551     1.828337245973    12.000000000000
         O           -1.757972473094    -0.748945311551    -0.516662754027    15.994914619570
         H           -1.952972473094    -1.683945311551    -0.631662754027     1.007825032230
         H           -0.271972473094    -2.652945311551     0.424337245973     1.007825032230
         H           -0.621972473094     1.584054688449     0.227337245973     1.007825032230
         H            1.752027526906    -2.448945311551     1.763337245973     1.007825032230
         H            1.355027526906     1.826054688449     1.711337245973     1.007825032230
         H            2.602027526906    -0.531945311551     3.728337245973     1.007825032230
         H            3.210027526906     0.842054688449     2.816337245973     1.007825032230
         H            3.778797526906    -0.806545311551     2.428187245973     1.007825032230

  Running in c1 symmetry.

  Rotational constants: A =      0.08185  B =      0.01573  C =      0.01404 [cm^-1]
  Rotational constants: A =   2453.93755  B =    471.65337  C =    420.84539 [MHz]
  Nuclear repulsion =  482.565869600994859

  Charge       = 0
  Multiplicity = 1
  Electrons    = 76
  Nalpha       = 38
  Nbeta        = 38

  ==> Algorithm <==

  SCF Algorithm Type is PK.
  DIIS enabled.
  MOM disabled.
  Fractional occupation disabled.
  Guess Type is SAD.
  Energy threshold   = 1.00e-06
  Density threshold  = 1.00e-10
  Integral threshold = 0.00e+00

  ==> Primary Basis <==

  Basis Set: CC-PVDZ
    Blend: CC-PVDZ
    Number of shells: 102
    Number of basis function: 210
    Number of Cartesian functions: 220
    Spherical Harmonics?: true
    Max angular momentum: 2

  ==> Pre-Iterations <==

   -------------------------------------------------------
    Irrep   Nso     Nmo     Nalpha   Nbeta   Ndocc  Nsocc
   -------------------------------------------------------
     A        210     210       0       0       0       0
   -------------------------------------------------------
    Total     210     210      38      38      38       0
   -------------------------------------------------------

  ==> Integral Setup <==

  Using integral reordering PK algorithm.
  Sizing the integral batches needed.
  Building batch lookup table.
   Calculation information:
      Number of atoms:                  24
      Number of AO shells:             102
      Number of primitives:            290
      Number of atomic orbitals:       220
      Number of basis functions:       210

      Integral cutoff                 1.00e-12
      Number of threads:                 1

	Batch   1 pq = [       0,    9405] index = [             0,44231715] size =     44231715
	Batch   2 pq = [    9405,   13301] index = [      44231715,88464951] size =     44233236
	Batch   3 pq = [   13301,   16290] index = [      88464951,132690195] size =     44225244
	Batch   4 pq = [   16290,   18810] index = [     132690195,176917455] size =     44227260
	Batch   5 pq = [   18810,   21030] index = [     176917455,221140965] size =     44223510
	Batch   6 pq = [   21030,   22155] index = [     221140965,245433090] size =     24292125
  Task number: 23
  Buffer size: 11059200
  Buffer per thread: 2
  We computed 10099815 shell quartets total.
  Whereas there are 13799631 unique shell quartets.

  ==> DiskJK: Disk-Based J/K Matrices <==

    J tasked:                  Yes
    K tasked:                  Yes
    wK tasked:                  No
    Memory [MiB]:              375
    Schwarz Cutoff:          1E-12

    OpenMP threads:              1

  Minimum eigenvalue in the overlap matrix is 3.5304988570E-04.
  Using Symmetric Orthogonalization.

  SCF Guess: Superposition of Atomic Densities via on-the-fly atomic UHF.

  ==> Iterations <==

                        Total Energy        Delta E     RMS |[F,P]|

   @RHF iter SAD:  -422.53239425162434   -4.22532e+02   0.00000e+00
   @RHF iter   1:  -423.59883724857116   -1.06644e+00   2.95938e-03 DIIS
   @RHF iter   2:  -423.81249702026139   -2.13660e-01   1.25425e-03 DIIS
   @RHF iter   3:  -423.84690632495568   -3.44093e-02   2.86272e-04 DIIS
   @RHF iter   4:  -423.84977793444659   -2.87161e-03   1.20739e-04 DIIS
   @RHF iter   5:  -423.85015078324983   -3.72849e-04   2.08038e-05 DIIS
   @RHF iter   6:  -423.85016841621768   -1.76330e-05   6.40924e-06 DIIS
   @RHF iter   7:  -423.85017005729185   -1.64107e-06   2.06902e-06 DIIS
   @RHF iter   8:  -423.85017026211540   -2.04824e-07   7.53411e-07 DIIS
   @RHF iter   9:  -423.85017028722416   -2.51088e-08   2.22298e-07 DIIS
   @RHF iter  10:  -423.85017028959948   -2.37532e-09   6.32495e-08 DIIS
   @RHF iter  11:  -423.85017028986954   -2.70063e-10   2.47382e-08 DIIS
   @RHF iter  12:  -423.85017028991479   -4.52474e-11   1.26734e-08 DIIS
   @RHF iter  13:  -423.85017028993707   -2.22826e-11   6.38303e-09 DIIS
   @RHF iter  14:  -423.85017028993803   -9.66338e-13   2.29966e-09 DIIS
   @RHF iter  15:  -423.85017028994054   -2.50111e-12   6.54696e-10 DIIS
   @RHF iter  16:  -423.85017028993906    1.47793e-12   2.05422e-10 DIIS
   @RHF iter  17:  -423.85017028993900    5.68434e-14   8.04689e-11 DIIS
  Energy and wave function converged.

  ==> Post-Iterations <==

    Orbital Energies [Eh]
    ---------------------

    Doubly Occupied:

       1A    -20.580586     2A    -11.301466     3A    -11.244434
       4A    -11.238471     5A    -11.236643     6A    -11.236340
       7A    -11.235266     8A    -11.229845     9A    -11.212714
      10A    -11.206382    11A     -1.380422    12A     -1.153957
      13A     -1.042596    14A     -1.018526    15A     -0.998481
      16A     -0.929065    17A     -0.843747    18A     -0.827904
      19A     -0.800298    20A     -0.726584    21A     -0.667020
      22A     -0.642785    23A     -0.612432    24A     -0.587553
      25A     -0.585554    26A     -0.582129    27A     -0.580614
      28A     -0.566329    29A     -0.562756    30A     -0.531429
      31A     -0.501910    32A     -0.485471    33A     -0.479992
      34A     -0.479103    35A     -0.474798    36A     -0.467793
      37A     -0.339984    38A     -0.306813

    Virtual:

      39A      0.128127    40A      0.151702    41A      0.176168
      42A      0.184688    43A      0.190990    44A      0.214829
      45A      0.220677    46A      0.240916    47A      0.255152
      48A      0.266113    49A      0.267590    50A      0.276203
      51A      0.282059    52A      0.288894    53A      0.297593
      54A      0.335060    55A      0.366292    56A      0.369915
      57A      0.398062    58A      0.418586    59A      0.456146
      60A      0.479622    61A      0.492443    62A      0.503535
      63A      0.600903    64A      0.604801    65A      0.611137
      66A      0.616866    67A      0.623579    68A      0.641314
      69A      0.659876    70A      0.675625    71A      0.690658
      72A      0.699528    73A      0.705202    74A      0.720500
      75A      0.728825    76A      0.733433    77A      0.745384
      78A      0.769751    79A      0.775964    80A      0.783989
      81A      0.797007    82A      0.823932    83A      0.833529
      84A      0.849640    85A      0.863711    86A      0.876072
      87A      0.885158    88A      0.890824    89A      0.894976
      90A      0.900961    91A      0.904378    92A      0.911976
      93A      0.920451    94A      0.921820    95A      0.928782
      96A      0.937547    97A      0.946044    98A      0.961012
      99A      0.988246   100A      1.010891   101A      1.026790
     102A      1.056750   103A      1.109487   104A      1.124723
     105A      1.134080   106A      1.159651   107A      1.168672
     108A      1.169530   109A      1.203611   110A      1.232380
     111A      1.241451   112A      1.245210   113A      1.282591
     114A      1.285711   115A      1.301522   116A      1.314513
     117A      1.321457   118A      1.354726   119A      1.367265
     120A      1.397914   121A      1.473498   122A      1.480568
     123A      1.485582   124A      1.506179   125A      1.535338
     126A      1.552887   127A      1.583747   128A      1.621969
     129A      1.638332   130A      1.666686   131A      1.689663
     132A      1.693169   133A      1.706443   134A      1.728663
     135A      1.740086   136A      1.779938   137A      1.793483
     138A      1.812383   139A      1.852612   140A      1.872490
     141A      1.877826   142A      1.885067   143A      1.888588
     144A      1.897998   145A      1.907171   146A      1.921078
     147A      1.928224   148A      1.943314   149A      1.947256
     150A      1.949523   151A      1.950773   152A      1.951544
     153A      1.955698   154A      1.966666   155A      1.979151
     156A      2.020018   157A      2.039029   158A      2.041474
     159A      2.052965   160A      2.071751   161A      2.080953
     162A      2.100717   163A      2.110542   164A      2.121116
     165A      2.153522   166A      2.185639   167A      2.207981
     168A      2.214203   169A      2.253133   170A      2.271174
     171A      2.298149   172A      2.302253   173A      2.322992
     174A      2.347121   175A      2.375681   176A      2.388550
     177A      2.445524   178A      2.460234   179A      2.464972
     180A      2.469159   181A      2.491242   182A      2.531421
     183A      2.533800   184A      2.565958   185A      2.578687
     186A      2.607024   187A      2.646043   188A      2.735159
     189A      2.765801   190A      2.768255   191A      2.790241
     192A      2.799104   193A      2.808450   194A      2.841664
     195A      2.844234   196A      2.858204   197A      2.882423
     198A      2.950460   199A      2.952205   200A      2.962957
     201A      2.987854   202A      3.061052   203A      3.123775
     204A      3.236091   205A      3.283995   206A      3.330750
     207A      3.556855   208A      3.613230   209A      3.979356
     210A      4.166725

    Final Occupation by Irrep:
              A
    DOCC [    38 ]

  @RHF Final Energy:  -423.85017028993900

   => Energetics <=

    Nuclear Repulsion Energy =            482.5658696009948585
    One-Electron Energy =               -1531.0357040344899815
    Two-Electron Energy =                 624.6196641435561787
    Total Energy =                       -423.8501702899390011

Computation Completed

Properties will be evaluated at   0.000000,   0.000000,   0.000000 [a0]

Properties computed using the SCF density matrix

  Nuclear Dipole Moment: [e a0]
     X:    -1.4375      Y:     5.4300      Z:    -9.2490

  Electronic Dipole Moment: [e a0]
     X:     1.7515      Y:    -5.9920      Z:     9.6152

  Dipole Moment: [e a0]
     X:     0.3140      Y:    -0.5620      Z:     0.3663     Total:     0.7406

  Dipole Moment: [D]
     X:     0.7980      Y:    -1.4284      Z:     0.9309     Total:     1.8825

*** tstop() called on ds3 at Tue Apr 28 09:35:09 2020
Module time:
	user time   =      79.74 seconds =       1.33 minutes
	system time =      38.15 seconds =       0.64 minutes
	total time  =        147 seconds =       2.45 minutes
Total time:
	user time   =      79.74 seconds =       1.33 minutes
	system time =      38.15 seconds =       0.64 minutes
	total time  =        147 seconds =       2.45 minutes
                                     G D M A

                                 by Anthony Stone

                           version 2.2.06, 22 June 2011

               Distributed Multipoles from Gaussian wavefunctions

Starting at 9:35:9 on 28 Apr 2020

Using SCF density matrix from file ./SSI/SSI-159ALA-197TYR-1-dimer.test.10747.fchk

                         Distributed Multipole Analysis

Standard DMA

Positions and radii in angstrom
Multipole moments in atomic units, ea_0^k for rank k

C          x = -2.194972  y =  1.086055  z = -3.226663 angstrom
           Maximum rank =  0   Radius =  0.650 angstrom
                   Q00  =  -0.226806

C          x = -1.613972  y =  2.145055  z = -4.219663 angstrom
           Maximum rank =  0   Radius =  0.650 angstrom
                   Q00  =  -0.256160

H          x = -3.148972  y =  0.703055  z = -3.592663 angstrom
           Maximum rank =  0   Radius =  0.325 angstrom
                   Q00  =   0.074986

H          x = -1.491972  y =  0.259055  z = -3.122663 angstrom
           Maximum rank =  0   Radius =  0.325 angstrom
                   Q00  =   0.083718

H          x = -2.349972  y =  1.543055  z = -2.248663 angstrom
           Maximum rank =  0   Radius =  0.325 angstrom
                   Q00  =   0.083528

H          x = -0.658972  y =  2.499055  z = -3.829663 angstrom
           Maximum rank =  0   Radius =  0.325 angstrom
                   Q00  =   0.079057

H          x = -2.298712  y =  2.996835  z = -4.344571 angstrom
           Maximum rank =  0   Radius =  0.325 angstrom
                   Q00  =   0.079957

H          x = -1.426812  y =  1.667165  z = -5.192592 angstrom
           Maximum rank =  0   Radius =  0.325 angstrom
                   Q00  =   0.077283

C          x =  2.912028  y = -0.203945  z =  2.737337 angstrom
           Maximum rank =  0   Radius =  0.650 angstrom
                   Q00  =  -0.202538

C          x = -0.609972  y = -0.537945  z =  0.270337 angstrom
           Maximum rank =  0   Radius =  0.650 angstrom
                   Q00  =   0.262805

C          x =  0.089028  y = -1.667945  z =  0.687337 angstrom
           Maximum rank =  0   Radius =  0.650 angstrom
                   Q00  =  -0.059579

C          x = -0.094972  y =  0.710055  z =  0.575337 angstrom
           Maximum rank =  0   Radius =  0.650 angstrom
                   Q00  =  -0.072149

C          x =  1.250028  y = -1.548945  z =  1.446337 angstrom
           Maximum rank =  0   Radius =  0.650 angstrom
                   Q00  =  -0.058996

C          x =  1.011028  y =  0.842055  z =  1.418337 angstrom
           Maximum rank =  0   Radius =  0.650 angstrom
                   Q00  =  -0.062580

C          x =  1.723028  y = -0.312945  z =  1.828337 angstrom
           Maximum rank =  0   Radius =  0.650 angstrom
                   Q00  =  -0.125866

O          x = -1.757972  y = -0.748945  z = -0.516663 angstrom
           Maximum rank =  0   Radius =  0.650 angstrom
                   Q00  =  -0.670803

H          x = -1.952972  y = -1.683945  z = -0.631663 angstrom
           Maximum rank =  0   Radius =  0.325 angstrom
                   Q00  =   0.409200

H          x = -0.271972  y = -2.652945  z =  0.424337 angstrom
           Maximum rank =  0   Radius =  0.325 angstrom
                   Q00  =   0.067572

H          x = -0.621972  y =  1.584055  z =  0.227337 angstrom
           Maximum rank =  0   Radius =  0.325 angstrom
                   Q00  =   0.085737

H          x =  1.752028  y = -2.448945  z =  1.763337 angstrom
           Maximum rank =  0   Radius =  0.325 angstrom
                   Q00  =   0.064429

H          x =  1.355028  y =  1.826055  z =  1.711337 angstrom
           Maximum rank =  0   Radius =  0.325 angstrom
                   Q00  =   0.071542

H          x =  2.602028  y = -0.531945  z =  3.728337 angstrom
           Maximum rank =  0   Radius =  0.325 angstrom
                   Q00  =   0.098960

H          x =  3.210028  y =  0.842055  z =  2.816337 angstrom
           Maximum rank =  0   Radius =  0.325 angstrom
                   Q00  =   0.096615

H          x =  3.778798  y = -0.806545  z =  2.428187 angstrom
           Maximum rank =  0   Radius =  0.325 angstrom
                   Q00  =   0.100088

Total multipoles referred to origin at
           x =   0.000000,  y =    0.000000,  z =    0.000000 angstrom
                   Q00  =  -0.000000

Finished at 9:35:10 on 28 Apr 2020

  DMA results are available in the Python driver through the
	  variable('DMA DISTRIBUTED MULTIPOLES')
  and
	  variable('DMA TOTAL MULTIPOLES')
  commands.

    Psi4 stopped on: Tuesday, 28 April 2020 09:35AM
    Psi4 wall time for execution: 0:02:27.97

*** Psi4 exiting successfully. Buy a developer a beer!
