                               Psi4 1.3.2 release

  ==> Input File <==

--------------------------------------------------------------------------
import numpy as np
set {scf_type pk
basis cc-pvdz
d_convergence 10
gdma_switch   0
gdma_limit    0
gdma_origin   [ 0.0,  0.0,  0.0 ]
}
molecule test {
    units Angstrom
    1 1
    --
    1 1
    C                1.039422147991202    -3.183275040296768    -0.751372414979447
    C               -0.243577852008798    -0.442275040296768     1.585627585020553
    C               -0.122577852008798    -1.634275040296768     0.883627585020553
    C                0.697422147991202     0.567724959703232     1.413627585020553
    C                0.924422147991201    -1.869275040296768    -0.019372414979447
    C                1.748422147991202     0.356724959703232     0.520627585020553
    C                1.869422147991202    -0.846275040296768    -0.174372414979447
    O                0.542422147991202     1.743724959703232     2.109627585020553
    H               -1.068577852008798    -0.315275040296768     2.273627585020553
    H               -0.864577852008799    -2.404275040296768     1.026627585020553
    H               -0.269577852008798     1.727724959703232     2.617627585020553
    H                2.480422147991201     1.139724959703232     0.378627585020553
    H                1.178422147991202    -3.961275040296768     0.000627585020553
    H                1.938422147991202    -3.169275040296768    -1.368372414979447
    H                2.700422147991202    -0.987275040296768    -0.854372414979447
    H                0.177532147991202    -3.450855040296768    -1.380302414979447
    C               -1.497577852008798     1.341724959703232    -1.235372414979447
    C               -2.944577852008799     1.765724959703232    -0.979372414979447
    N               -1.217577852008799     1.350724959703232    -2.702372414979447
    H               -0.820577852008798     2.027724959703232    -0.712372414979447
    H               -1.341577852008798     0.334724959703232    -0.830372414979447
    H               -3.120577852008798     1.707724959703232     0.097627585020553
    H               -3.619577852008799     1.068724959703232    -1.476372414979447
    H               -1.306577852008799     2.274724959703232    -3.111372414979447
    H               -0.267577852008798     1.034724959703232    -2.873372414979447
    H               -1.825577852008798     0.703724959703232    -3.195372414979447
    H               -3.174177852008798     2.781364959703231    -1.334002414979447

}
e, wfn = energy('scf', return_wfn=True)
gdma(wfn)
dmavals = variable('DMA DISTRIBUTED MULTIPOLES')
charges = np.array(dmavals)
print(charges)
np.save('SSI-142TYR-147LYS-1-dimer.npy', np.array(charges))--------------------------------------------------------------------------

*** tstart() called on ds3
*** at Sun Apr 26 23:23:53 2020

   => Loading Basis Set <=

    Name: CC-PVDZ
    Role: ORBITAL
    Keyword: BASIS
    atoms 1-7, 17-18  entry C          line   138 file /theoryfs2/ds/metcalf/miniconda2/envs/tf2gpu/share/psi4/basis/cc-pvdz.gbs
    atoms 8           entry O          line   198 file /theoryfs2/ds/metcalf/miniconda2/envs/tf2gpu/share/psi4/basis/cc-pvdz.gbs
    atoms 9-16, 20-27 entry H          line    22 file /theoryfs2/ds/metcalf/miniconda2/envs/tf2gpu/share/psi4/basis/cc-pvdz.gbs
    atoms 19          entry N          line   168 file /theoryfs2/ds/metcalf/miniconda2/envs/tf2gpu/share/psi4/basis/cc-pvdz.gbs

         ---------------------------------------------------------
                                   SCF
               by Justin Turney, Rob Parrish, Andy Simmonett
                          and Daniel G. A. Smith
                              RHF Reference
                        1 Threads,    500 MiB Core
         ---------------------------------------------------------

  ==> Geometry <==

    Molecular point group: c1
    Full point group: C1

    Geometry (in Angstrom), charge = 1, multiplicity = 1:

       Center              X                  Y                   Z               Mass
    ------------   -----------------  -----------------  -----------------  -----------------
         C            1.039422147991    -3.183275040297    -0.751372414979    12.000000000000
         C           -0.243577852009    -0.442275040297     1.585627585021    12.000000000000
         C           -0.122577852009    -1.634275040297     0.883627585021    12.000000000000
         C            0.697422147991     0.567724959703     1.413627585021    12.000000000000
         C            0.924422147991    -1.869275040297    -0.019372414979    12.000000000000
         C            1.748422147991     0.356724959703     0.520627585021    12.000000000000
         C            1.869422147991    -0.846275040297    -0.174372414979    12.000000000000
         O            0.542422147991     1.743724959703     2.109627585021    15.994914619570
         H           -1.068577852009    -0.315275040297     2.273627585021     1.007825032230
         H           -0.864577852009    -2.404275040297     1.026627585021     1.007825032230
         H           -0.269577852009     1.727724959703     2.617627585021     1.007825032230
         H            2.480422147991     1.139724959703     0.378627585021     1.007825032230
         H            1.178422147991    -3.961275040297     0.000627585021     1.007825032230
         H            1.938422147991    -3.169275040297    -1.368372414979     1.007825032230
         H            2.700422147991    -0.987275040297    -0.854372414979     1.007825032230
         H            0.177532147991    -3.450855040297    -1.380302414979     1.007825032230
         C           -1.497577852009     1.341724959703    -1.235372414979    12.000000000000
         C           -2.944577852009     1.765724959703    -0.979372414979    12.000000000000
         N           -1.217577852009     1.350724959703    -2.702372414979    14.003074004430
         H           -0.820577852009     2.027724959703    -0.712372414979     1.007825032230
         H           -1.341577852009     0.334724959703    -0.830372414979     1.007825032230
         H           -3.120577852009     1.707724959703     0.097627585021     1.007825032230
         H           -3.619577852009     1.068724959703    -1.476372414979     1.007825032230
         H           -1.306577852009     2.274724959703    -3.111372414979     1.007825032230
         H           -0.267577852009     1.034724959703    -2.873372414979     1.007825032230
         H           -1.825577852009     0.703724959703    -3.195372414979     1.007825032230
         H           -3.174177852009     2.781364959703    -1.334002414979     1.007825032230

  Running in c1 symmetry.

  Rotational constants: A =      0.03650  B =      0.02290  C =      0.01780 [cm^-1]
  Rotational constants: A =   1094.34084  B =    686.65422  C =    533.67300 [MHz]
  Nuclear repulsion =  610.245037825423537

  Charge       = 1
  Multiplicity = 1
  Electrons    = 84
  Nalpha       = 42
  Nbeta        = 42

  ==> Algorithm <==

  SCF Algorithm Type is PK.
  DIIS enabled.
  MOM disabled.
  Fractional occupation disabled.
  Guess Type is SAD.
  Energy threshold   = 1.00e-06
  Density threshold  = 1.00e-10
  Integral threshold = 0.00e+00

  ==> Primary Basis <==

  Basis Set: CC-PVDZ
    Blend: CC-PVDZ
    Number of shells: 114
    Number of basis function: 234
    Number of Cartesian functions: 245
    Spherical Harmonics?: true
    Max angular momentum: 2

  ==> Pre-Iterations <==

   -------------------------------------------------------
    Irrep   Nso     Nmo     Nalpha   Nbeta   Ndocc  Nsocc
   -------------------------------------------------------
     A        234     234       0       0       0       0
   -------------------------------------------------------
    Total     234     234      42      42      42       0
   -------------------------------------------------------

  ==> Integral Setup <==

  Using integral reordering PK algorithm.
  Sizing the integral batches needed.
  Building batch lookup table.
   Calculation information:
      Number of atoms:                  27
      Number of AO shells:             114
      Number of primitives:            322
      Number of atomic orbitals:       245
      Number of basis functions:       234

      Integral cutoff                 1.00e-12
      Number of threads:                 1

	Batch   1 pq = [       0,    9405] index = [             0,44231715] size =     44231715
	Batch   2 pq = [    9405,   13301] index = [      44231715,88464951] size =     44233236
	Batch   3 pq = [   13301,   16290] index = [      88464951,132690195] size =     44225244
	Batch   4 pq = [   16290,   18810] index = [     132690195,176917455] size =     44227260
	Batch   5 pq = [   18810,   21030] index = [     176917455,221140965] size =     44223510
	Batch   6 pq = [   21030,   23037] index = [     221140965,265363203] size =     44222238
	Batch   7 pq = [   23037,   24883] index = [     265363203,309594286] size =     44231083
	Batch   8 pq = [   24883,   26601] index = [     309594286,353819901] size =     44225615
	Batch   9 pq = [   26601,   27495] index = [     353819901,378001260] size =     24181359
  Task number: 35
  Buffer size: 11059200
  Buffer per thread: 2
  We computed 21318740 shell quartets total.
  Whereas there are 21487290 unique shell quartets.

  ==> DiskJK: Disk-Based J/K Matrices <==

    J tasked:                  Yes
    K tasked:                  Yes
    wK tasked:                  No
    Memory [MiB]:              375
    Schwarz Cutoff:          1E-12

    OpenMP threads:              1

  Minimum eigenvalue in the overlap matrix is 3.2487987108E-04.
  Using Symmetric Orthogonalization.

  SCF Guess: Superposition of Atomic Densities via on-the-fly atomic UHF.

  ==> Iterations <==

                        Total Energy        Delta E     RMS |[F,P]|

   @RHF iter SAD:  -478.45474769873340   -4.78455e+02   0.00000e+00
   @RHF iter   1:  -479.00012743704121   -5.45380e-01   2.67595e-03 DIIS
   @RHF iter   2:  -479.22864229541062   -2.28515e-01   1.04635e-03 DIIS
   @RHF iter   3:  -479.25876027344742   -3.01180e-02   2.85136e-04 DIIS
   @RHF iter   4:  -479.26204430964901   -3.28404e-03   1.07638e-04 DIIS
   @RHF iter   5:  -479.26240922916827   -3.64920e-04   2.18276e-05 DIIS
   @RHF iter   6:  -479.26243347808889   -2.42489e-05   6.68214e-06 DIIS
   @RHF iter   7:  -479.26243567006622   -2.19198e-06   2.26242e-06 DIIS
   @RHF iter   8:  -479.26243596466873   -2.94603e-07   7.36692e-07 DIIS
   @RHF iter   9:  -479.26243600022053   -3.55518e-08   2.61112e-07 DIIS
   @RHF iter  10:  -479.26243600517199   -4.95146e-09   1.07267e-07 DIIS
   @RHF iter  11:  -479.26243600674258   -1.57058e-09   4.79573e-08 DIIS
   @RHF iter  12:  -479.26243600712098   -3.78407e-10   2.30254e-08 DIIS
   @RHF iter  13:  -479.26243600718522   -6.42331e-11   8.00519e-09 DIIS
   @RHF iter  14:  -479.26243600719619   -1.09708e-11   2.34496e-09 DIIS
   @RHF iter  15:  -479.26243600719550    6.82121e-13   8.21463e-10 DIIS
   @RHF iter  16:  -479.26243600719113    4.37694e-12   2.19827e-10 DIIS
   @RHF iter  17:  -479.26243600719613   -5.00222e-12   7.21811e-11 DIIS
  Energy and wave function converged.

  ==> Post-Iterations <==

    Orbital Energies [Eh]
    ---------------------

    Doubly Occupied:

       1A    -20.692038     2A    -15.895419     3A    -11.468553
       4A    -11.412369     5A    -11.399235     6A    -11.351918
       7A    -11.349379     8A    -11.347367     9A    -11.345122
      10A    -11.344094    11A    -11.329028    12A     -1.513712
      13A     -1.505436    14A     -1.262235    15A     -1.209483
      16A     -1.146302    17A     -1.128927    18A     -1.046850
      19A     -1.033055    20A     -0.973974    21A     -0.954852
      22A     -0.952343    23A     -0.911321    24A     -0.851762
      25A     -0.839924    26A     -0.786147    27A     -0.777400
      28A     -0.749778    29A     -0.717768    30A     -0.710326
      31A     -0.703751    32A     -0.694152    33A     -0.687931
      34A     -0.678793    35A     -0.673000    36A     -0.670786
      37A     -0.632751    38A     -0.607838    39A     -0.590025
      40A     -0.577112    41A     -0.453063    42A     -0.414514

    Virtual:

      43A     -0.041747    44A      0.014493    45A      0.023897
      46A      0.026160    47A      0.035186    48A      0.044820
      49A      0.080596    50A      0.088502    51A      0.097290
      52A      0.108503    53A      0.121696    54A      0.127243
      55A      0.133292    56A      0.145995    57A      0.159363
      58A      0.167067    59A      0.175693    60A      0.180477
      61A      0.198064    62A      0.206519    63A      0.261742
      64A      0.266432    65A      0.315953    66A      0.347277
      67A      0.376659    68A      0.381500    69A      0.387897
      70A      0.394458    71A      0.399881    72A      0.421245
      73A      0.440501    74A      0.452920    75A      0.508162
      76A      0.522806    77A      0.540077    78A      0.553335
      79A      0.580210    80A      0.586446    81A      0.599553
      82A      0.605487    83A      0.619587    84A      0.625198
      85A      0.635074    86A      0.641657    87A      0.656397
      88A      0.662623    89A      0.677672    90A      0.681756
      91A      0.703768    92A      0.707655    93A      0.712893
      94A      0.718000    95A      0.721772    96A      0.736891
      97A      0.750872    98A      0.759857    99A      0.770828
     100A      0.776008   101A      0.785868   102A      0.790064
     103A      0.793068   104A      0.808442   105A      0.818558
     106A      0.819600   107A      0.828365   108A      0.838958
     109A      0.848003   110A      0.855084   111A      0.867968
     112A      0.907731   113A      0.918644   114A      0.947729
     115A      0.955501   116A      0.973888   117A      1.016505
     118A      1.020509   119A      1.036537   120A      1.057615
     121A      1.077321   122A      1.107486   123A      1.129846
     124A      1.148526   125A      1.161317   126A      1.173043
     127A      1.191484   128A      1.196706   129A      1.207882
     130A      1.219373   131A      1.240435   132A      1.248286
     133A      1.265419   134A      1.280950   135A      1.308005
     136A      1.379926   137A      1.385921   138A      1.406277
     139A      1.430718   140A      1.443740   141A      1.469559
     142A      1.499891   143A      1.510725   144A      1.516271
     145A      1.518435   146A      1.574650   147A      1.588008
     148A      1.606539   149A      1.623958   150A      1.629782
     151A      1.664244   152A      1.678091   153A      1.693315
     154A      1.699083   155A      1.707513   156A      1.731912
     157A      1.752395   158A      1.753698   159A      1.762156
     160A      1.778300   161A      1.789549   162A      1.791348
     163A      1.797785   164A      1.805389   165A      1.810645
     166A      1.825698   167A      1.840863   168A      1.848535
     169A      1.852544   170A      1.858003   171A      1.873344
     172A      1.890389   173A      1.915965   174A      1.927306
     175A      1.935437   176A      1.945929   177A      1.955353
     178A      1.970013   179A      1.972839   180A      1.981683
     181A      1.997657   182A      2.010208   183A      2.034142
     184A      2.054378   185A      2.079935   186A      2.091543
     187A      2.114556   188A      2.135224   189A      2.156725
     190A      2.165396   191A      2.178326   192A      2.184490
     193A      2.203693   194A      2.258947   195A      2.268644
     196A      2.280871   197A      2.301448   198A      2.331551
     199A      2.361957   200A      2.364784   201A      2.374685
     202A      2.392581   203A      2.417170   204A      2.442345
     205A      2.466418   206A      2.507127   207A      2.520228
     208A      2.536774   209A      2.546592   210A      2.595413
     211A      2.629465   212A      2.647542   213A      2.666720
     214A      2.681695   215A      2.684327   216A      2.700650
     217A      2.744239   218A      2.747275   219A      2.781500
     220A      2.802313   221A      2.864845   222A      2.889168
     223A      2.899187   224A      2.964913   225A      3.014061
     226A      3.098521   227A      3.134867   228A      3.149645
     229A      3.173700   230A      3.231449   231A      3.470080
     232A      3.543159   233A      3.858807   234A      4.074869

    Final Occupation by Irrep:
              A
    DOCC [    42 ]

  @RHF Final Energy:  -479.26243600719613

   => Energetics <=

    Nuclear Repulsion Energy =            610.2450378254235375
    One-Electron Energy =               -1848.2352867583722400
    Two-Electron Energy =                 758.7278129257526871
    Total Energy =                       -479.2624360071961291

Computation Completed

Properties will be evaluated at   0.000000,   0.000000,   0.000000 [a0]

Properties computed using the SCF density matrix

  Nuclear Dipole Moment: [e a0]
     X:    -8.6221      Y:     0.4851      Z:   -10.0519

  Electronic Dipole Moment: [e a0]
     X:     5.9114      Y:     1.3308      Z:     5.9899

  Dipole Moment: [e a0]
     X:    -2.7107      Y:     1.8159      Z:    -4.0620     Total:     5.2101

  Dipole Moment: [D]
     X:    -6.8898      Y:     4.6156      Z:   -10.3245     Total:    13.2427

*** tstop() called on ds3 at Sun Apr 26 23:27:22 2020
Module time:
	user time   =     149.10 seconds =       2.49 minutes
	system time =      53.54 seconds =       0.89 minutes
	total time  =        209 seconds =       3.48 minutes
Total time:
	user time   =     149.10 seconds =       2.49 minutes
	system time =      53.54 seconds =       0.89 minutes
	total time  =        209 seconds =       3.48 minutes
                                     G D M A

                                 by Anthony Stone

                           version 2.2.06, 22 June 2011

               Distributed Multipoles from Gaussian wavefunctions

Starting at 23:27:22 on 26 Apr 2020

Using SCF density matrix from file ./SSI/SSI-142TYR-147LYS-1-dimer.test.30341.fchk

                         Distributed Multipole Analysis

Standard DMA

Positions and radii in angstrom
Multipole moments in atomic units, ea_0^k for rank k

C          x =  1.039422  y = -3.183275  z = -0.751372 angstrom
           Maximum rank =  0   Radius =  0.650 angstrom
                   Q00  =  -0.197808

C          x = -0.243578  y = -0.442275  z =  1.585628 angstrom
           Maximum rank =  0   Radius =  0.650 angstrom
                   Q00  =  -0.193090

C          x = -0.122578  y = -1.634275  z =  0.883628 angstrom
           Maximum rank =  0   Radius =  0.650 angstrom
                   Q00  =   0.033316

C          x =  0.697422  y =  0.567725  z =  1.413628 angstrom
           Maximum rank =  0   Radius =  0.650 angstrom
                   Q00  =   0.260909

C          x =  0.924422  y = -1.869275  z = -0.019372 angstrom
           Maximum rank =  0   Radius =  0.650 angstrom
                   Q00  =  -0.160120

C          x =  1.748422  y =  0.356725  z =  0.520628 angstrom
           Maximum rank =  0   Radius =  0.650 angstrom
                   Q00  =  -0.094546

C          x =  1.869422  y = -0.846275  z = -0.174372 angstrom
           Maximum rank =  0   Radius =  0.650 angstrom
                   Q00  =  -0.056872

O          x =  0.542422  y =  1.743725  z =  2.109628 angstrom
           Maximum rank =  0   Radius =  0.650 angstrom
                   Q00  =  -0.653311

H          x = -1.068578  y = -0.315275  z =  2.273628 angstrom
           Maximum rank =  0   Radius =  0.325 angstrom
                   Q00  =   0.081683

H          x = -0.864578  y = -2.404275  z =  1.026628 angstrom
           Maximum rank =  0   Radius =  0.325 angstrom
                   Q00  =   0.080073

H          x = -0.269578  y =  1.727725  z =  2.617628 angstrom
           Maximum rank =  0   Radius =  0.325 angstrom
                   Q00  =   0.413046

H          x =  2.480422  y =  1.139725  z =  0.378628 angstrom
           Maximum rank =  0   Radius =  0.325 angstrom
                   Q00  =   0.091499

H          x =  1.178422  y = -3.961275  z =  0.000628 angstrom
           Maximum rank =  0   Radius =  0.325 angstrom
                   Q00  =   0.122777

H          x =  1.938422  y = -3.169275  z = -1.368372 angstrom
           Maximum rank =  0   Radius =  0.325 angstrom
                   Q00  =   0.106725

H          x =  2.700422  y = -0.987275  z = -0.854372 angstrom
           Maximum rank =  0   Radius =  0.325 angstrom
                   Q00  =   0.077967

H          x =  0.177532  y = -3.450855  z = -1.380302 angstrom
           Maximum rank =  0   Radius =  0.325 angstrom
                   Q00  =   0.095625

C          x = -1.497578  y =  1.341725  z = -1.235372 angstrom
           Maximum rank =  0   Radius =  0.650 angstrom
                   Q00  =  -0.020871

C          x = -2.944578  y =  1.765725  z = -0.979372 angstrom
           Maximum rank =  0   Radius =  0.650 angstrom
                   Q00  =  -0.238302

N          x = -1.217578  y =  1.350725  z = -2.702372 angstrom
           Maximum rank =  0   Radius =  0.650 angstrom
                   Q00  =  -0.141182

H          x = -0.820578  y =  2.027725  z = -0.712372 angstrom
           Maximum rank =  0   Radius =  0.325 angstrom
                   Q00  =   0.131745

H          x = -1.341578  y =  0.334725  z = -0.830372 angstrom
           Maximum rank =  0   Radius =  0.325 angstrom
                   Q00  =   0.140410

H          x = -3.120578  y =  1.707725  z =  0.097628 angstrom
           Maximum rank =  0   Radius =  0.325 angstrom
                   Q00  =   0.144188

H          x = -3.619578  y =  1.068725  z = -1.476372 angstrom
           Maximum rank =  0   Radius =  0.325 angstrom
                   Q00  =   0.100227

H          x = -1.306578  y =  2.274725  z = -3.111372 angstrom
           Maximum rank =  0   Radius =  0.325 angstrom
                   Q00  =   0.258618

H          x = -0.267578  y =  1.034725  z = -2.873372 angstrom
           Maximum rank =  0   Radius =  0.325 angstrom
                   Q00  =   0.252922

H          x = -1.825578  y =  0.703725  z = -3.195372 angstrom
           Maximum rank =  0   Radius =  0.325 angstrom
                   Q00  =   0.255104

H          x = -3.174178  y =  2.781365  z = -1.334002 angstrom
           Maximum rank =  0   Radius =  0.325 angstrom
                   Q00  =   0.109268

Total multipoles referred to origin at
           x =   0.000000,  y =    0.000000,  z =    0.000000 angstrom
                   Q00  =   1.000000

Finished at 23:27:22 on 26 Apr 2020

  DMA results are available in the Python driver through the
	  variable('DMA DISTRIBUTED MULTIPOLES')
  and
	  variable('DMA TOTAL MULTIPOLES')
  commands.

    Psi4 stopped on: Sunday, 26 April 2020 11:27PM
    Psi4 wall time for execution: 0:03:29.32

*** Psi4 exiting successfully. Buy a developer a beer!
