                               Psi4 1.3.2 release

  ==> Input File <==

--------------------------------------------------------------------------
import numpy as np
set {scf_type pk
basis cc-pvdz
d_convergence 10
gdma_switch   0
gdma_limit    0
gdma_origin   [ 0.0,  0.0,  0.0 ]
}
molecule test {
    units Angstrom
    0 1
    --
    0 1
    C               -0.027087699470040     0.489419531232065     1.298503358880015
    C               -1.563087699470040    -1.838580468767935     1.551503358880015
    S                0.124912300529960    -1.301580468767935     1.132503358880016
    H               -0.417087699470040     0.739419531232065     2.285503358880015
    H                0.951912300529960     0.951419531232065     1.174503358880015
    H               -0.700087699470040     0.885419531232065     0.543503358880016
    H               -2.015087699470040    -1.092580468767935     2.199503358880015
    H               -1.481087699470040    -2.764580468767935     2.119503358880015
    H               -2.215777699470040    -2.042500468767935     0.689873358880015
    C                1.027912300529960     2.009419531232065    -1.959496641119985
    C                0.371912300529960     2.058419531232065    -3.332496641119985
    H                2.049912300529960     1.642419531232065    -2.047496641119985
    H                1.043912300529960     3.011419531232065    -1.535496641119985
    H                0.460912300529960     1.351419531232065    -1.307496641119985
    H               -0.620087699470040     2.489419531232065    -3.206496641119985
    H                0.300722300529960     1.044529531232065    -3.753156641119985
    H                0.945622300529960     2.704479531232065    -4.013276641119985

}
e, wfn = energy('scf', return_wfn=True)
gdma(wfn)
dmavals = variable('DMA DISTRIBUTED MULTIPOLES')
charges = np.array(dmavals)
print(charges)
np.save('SSI-038MET-041LEU-1-dimer.npy', np.array(charges))--------------------------------------------------------------------------

*** tstart() called on ds3
*** at Tue Apr 28 15:54:44 2020

   => Loading Basis Set <=

    Name: CC-PVDZ
    Role: ORBITAL
    Keyword: BASIS
    atoms 1-2, 10-11 entry C          line   138 file /theoryfs2/ds/metcalf/miniconda2/envs/tf2gpu/share/psi4/basis/cc-pvdz.gbs
    atoms 3          entry S          line   598 file /theoryfs2/ds/metcalf/miniconda2/envs/tf2gpu/share/psi4/basis/cc-pvdz.gbs
    atoms 4-9, 12-17 entry H          line    22 file /theoryfs2/ds/metcalf/miniconda2/envs/tf2gpu/share/psi4/basis/cc-pvdz.gbs

         ---------------------------------------------------------
                                   SCF
               by Justin Turney, Rob Parrish, Andy Simmonett
                          and Daniel G. A. Smith
                              RHF Reference
                        1 Threads,    500 MiB Core
         ---------------------------------------------------------

  ==> Geometry <==

    Molecular point group: c1
    Full point group: C1

    Geometry (in Angstrom), charge = 0, multiplicity = 1:

       Center              X                  Y                   Z               Mass
    ------------   -----------------  -----------------  -----------------  -----------------
         C           -0.027087699470     0.489419531232     1.298503358880    12.000000000000
         C           -1.563087699470    -1.838580468768     1.551503358880    12.000000000000
         S            0.124912300530    -1.301580468768     1.132503358880    31.972071174400
         H           -0.417087699470     0.739419531232     2.285503358880     1.007825032230
         H            0.951912300530     0.951419531232     1.174503358880     1.007825032230
         H           -0.700087699470     0.885419531232     0.543503358880     1.007825032230
         H           -2.015087699470    -1.092580468768     2.199503358880     1.007825032230
         H           -1.481087699470    -2.764580468768     2.119503358880     1.007825032230
         H           -2.215777699470    -2.042500468768     0.689873358880     1.007825032230
         C            1.027912300530     2.009419531232    -1.959496641120    12.000000000000
         C            0.371912300530     2.058419531232    -3.332496641120    12.000000000000
         H            2.049912300530     1.642419531232    -2.047496641120     1.007825032230
         H            1.043912300530     3.011419531232    -1.535496641120     1.007825032230
         H            0.460912300530     1.351419531232    -1.307496641120     1.007825032230
         H           -0.620087699470     2.489419531232    -3.206496641120     1.007825032230
         H            0.300722300530     1.044529531232    -3.753156641120     1.007825032230
         H            0.945622300530     2.704479531232    -4.013276641120     1.007825032230

  Running in c1 symmetry.

  Rotational constants: A =      0.21697  B =      0.02856  C =      0.02754 [cm^-1]
  Rotational constants: A =   6504.46906  B =    856.23701  C =    825.62050 [MHz]
  Nuclear repulsion =  217.122609511984649

  Charge       = 0
  Multiplicity = 1
  Electrons    = 52
  Nalpha       = 26
  Nbeta        = 26

  ==> Algorithm <==

  SCF Algorithm Type is PK.
  DIIS enabled.
  MOM disabled.
  Fractional occupation disabled.
  Guess Type is SAD.
  Energy threshold   = 1.00e-06
  Density threshold  = 1.00e-10
  Integral threshold = 0.00e+00

  ==> Primary Basis <==

  Basis Set: CC-PVDZ
    Blend: CC-PVDZ
    Number of shells: 68
    Number of basis function: 134
    Number of Cartesian functions: 139
    Spherical Harmonics?: true
    Max angular momentum: 2

  ==> Pre-Iterations <==

   -------------------------------------------------------
    Irrep   Nso     Nmo     Nalpha   Nbeta   Ndocc  Nsocc
   -------------------------------------------------------
     A        134     134       0       0       0       0
   -------------------------------------------------------
    Total     134     134      26      26      26       0
   -------------------------------------------------------

  ==> Integral Setup <==

  Using integral reordering PK algorithm.
  Sizing the integral batches needed.
  Building batch lookup table.
   Calculation information:
      Number of atoms:                  17
      Number of AO shells:              68
      Number of primitives:            198
      Number of atomic orbitals:       139
      Number of basis functions:       134

      Integral cutoff                 1.00e-12
      Number of threads:                 1

	Batch   1 pq = [       0,    9045] index = [             0,40910535] size =     40910535
  Task number: 4
  Buffer size: 11059200
  Buffer per thread: 2
  We computed 2067417 shell quartets total.
  Whereas there are 2753031 unique shell quartets.

  ==> DiskJK: Disk-Based J/K Matrices <==

    J tasked:                  Yes
    K tasked:                  Yes
    wK tasked:                  No
    Memory [MiB]:              375
    Schwarz Cutoff:          1E-12

    OpenMP threads:              1

  Minimum eigenvalue in the overlap matrix is 7.1567194849E-03.
  Using Symmetric Orthogonalization.

  SCF Guess: Superposition of Atomic Densities via on-the-fly atomic UHF.

  ==> Iterations <==

                        Total Energy        Delta E     RMS |[F,P]|

   @RHF iter SAD:  -554.88496195169876   -5.54885e+02   0.00000e+00
   @RHF iter   1:  -555.84400099462550   -9.59039e-01   3.37737e-03 DIIS
   @RHF iter   2:  -555.96745967860772   -1.23459e-01   1.33582e-03 DIIS
   @RHF iter   3:  -555.98541303183379   -1.79534e-02   3.14339e-04 DIIS
   @RHF iter   4:  -555.98727385785855   -1.86083e-03   4.77980e-05 DIIS
   @RHF iter   5:  -555.98731243186035   -3.85740e-05   1.06554e-05 DIIS
   @RHF iter   6:  -555.98731442078076   -1.98892e-06   2.61461e-06 DIIS
   @RHF iter   7:  -555.98731453087055   -1.10090e-07   7.10114e-07 DIIS
   @RHF iter   8:  -555.98731454015376   -9.28321e-09   1.84717e-07 DIIS
   @RHF iter   9:  -555.98731454111271   -9.58948e-10   6.24370e-08 DIIS
   @RHF iter  10:  -555.98731454121958   -1.06866e-10   1.97706e-08 DIIS
   @RHF iter  11:  -555.98731454123538   -1.58025e-11   5.67994e-09 DIIS
   @RHF iter  12:  -555.98731454123481    5.68434e-13   2.07611e-09 DIIS
   @RHF iter  13:  -555.98731454123538   -5.68434e-13   6.55686e-10 DIIS
   @RHF iter  14:  -555.98731454123356    1.81899e-12   1.81049e-10 DIIS
   @RHF iter  15:  -555.98731454123413   -5.68434e-13   5.38444e-11 DIIS
  Energy and wave function converged.

  ==> Post-Iterations <==

    Orbital Energies [Eh]
    ---------------------

    Doubly Occupied:

       1A    -91.936746     2A    -11.257261     3A    -11.255410
       4A    -11.217921     5A    -11.214738     6A     -8.940074
       7A     -6.622129     8A     -6.620550     9A     -6.618327
      10A     -1.058517    11A     -1.020226    12A     -0.951651
      13A     -0.835205    14A     -0.807327    15A     -0.608822
      16A     -0.600848    17A     -0.600237    18A     -0.591854
      19A     -0.571852    20A     -0.562683    21A     -0.501362
      22A     -0.495428    23A     -0.486268    24A     -0.483423
      25A     -0.425641    26A     -0.331926

    Virtual:

      27A      0.172073    28A      0.183209    29A      0.198305
      30A      0.225209    31A      0.230863    32A      0.247328
      33A      0.251247    34A      0.255181    35A      0.266289
      36A      0.268840    37A      0.276950    38A      0.288348
      39A      0.303536    40A      0.335910    41A      0.404893
      42A      0.522500    43A      0.572929    44A      0.587195
      45A      0.596199    46A      0.605078    47A      0.608898
      48A      0.624871    49A      0.651168    50A      0.677986
      51A      0.694133    52A      0.704302    53A      0.732073
      54A      0.762032    55A      0.796234    56A      0.821126
      57A      0.843842    58A      0.866272    59A      0.870659
      60A      0.879397    61A      0.880644    62A      0.890523
      63A      0.894374    64A      0.897479    65A      0.900771
      66A      0.907566    67A      0.923183    68A      0.929511
      69A      0.945931    70A      0.956126    71A      0.988365
      72A      1.055252    73A      1.127496    74A      1.132050
      75A      1.162618    76A      1.245523    77A      1.264152
      78A      1.303577    79A      1.318014    80A      1.348803
      81A      1.375227    82A      1.446983    83A      1.482055
      84A      1.486786    85A      1.496729    86A      1.589440
      87A      1.670875    88A      1.674488    89A      1.681001
      90A      1.701003    91A      1.853622    92A      1.855832
      93A      1.873183    94A      1.873523    95A      1.894570
      96A      1.902452    97A      1.910474    98A      1.923420
      99A      1.945132   100A      1.948785   101A      1.961852
     102A      1.970152   103A      1.978255   104A      1.986746
     105A      1.999612   106A      2.005834   107A      2.035110
     108A      2.073200   109A      2.100835   110A      2.130451
     111A      2.232929   112A      2.239730   113A      2.295669
     114A      2.310195   115A      2.408459   116A      2.419396
     117A      2.426710   118A      2.446109   119A      2.466015
     120A      2.475135   121A      2.569939   122A      2.579812
     123A      2.733610   124A      2.757045   125A      2.766110
     126A      2.777427   127A      2.781462   128A      2.790873
     129A      2.825230   130A      2.845066   131A      2.850758
     132A      2.859812   133A      2.951655   134A      2.979425

    Final Occupation by Irrep:
              A
    DOCC [    26 ]

  @RHF Final Energy:  -555.98731454123413

   => Energetics <=

    Nuclear Repulsion Energy =            217.1226095119846491
    One-Electron Energy =               -1192.9869948083219242
    Two-Electron Energy =                 419.8770707551032615
    Total Energy =                       -555.9873145412341273

Computation Completed

Properties will be evaluated at   0.000000,   0.000000,   0.000000 [a0]

Properties computed using the SCF density matrix

  Nuclear Dipole Moment: [e a0]
     X:    -1.5869      Y:     8.3281      Z:    -6.3927

  Electronic Dipole Moment: [e a0]
     X:     1.0519      Y:    -7.9679      Z:     6.6005

  Dipole Moment: [e a0]
     X:    -0.5350      Y:     0.3602      Z:     0.2077     Total:     0.6776

  Dipole Moment: [D]
     X:    -1.3597      Y:     0.9156      Z:     0.5280     Total:     1.7222

*** tstop() called on ds3 at Tue Apr 28 15:55:30 2020
Module time:
	user time   =      15.48 seconds =       0.26 minutes
	system time =       4.69 seconds =       0.08 minutes
	total time  =         46 seconds =       0.77 minutes
Total time:
	user time   =      15.48 seconds =       0.26 minutes
	system time =       4.69 seconds =       0.08 minutes
	total time  =         46 seconds =       0.77 minutes
                                     G D M A

                                 by Anthony Stone

                           version 2.2.06, 22 June 2011

               Distributed Multipoles from Gaussian wavefunctions

Starting at 15:55:30 on 28 Apr 2020

Using SCF density matrix from file ./SSI/SSI-038MET-041LEU-1-dimer.test.23449.fchk

                         Distributed Multipole Analysis

Standard DMA

Positions and radii in angstrom
Multipole moments in atomic units, ea_0^k for rank k

C          x = -0.027088  y =  0.489420  z =  1.298503 angstrom
           Maximum rank =  0   Radius =  0.650 angstrom
                   Q00  =  -0.352231

C          x = -1.563088  y = -1.838580  z =  1.551503 angstrom
           Maximum rank =  0   Radius =  0.650 angstrom
                   Q00  =  -0.361541

S          x =  0.124912  y = -1.301580  z =  1.132503 angstrom
           Maximum rank =  0   Radius =  0.650 angstrom
                   Q00  =   0.116948

H          x = -0.417088  y =  0.739420  z =  2.285503 angstrom
           Maximum rank =  0   Radius =  0.325 angstrom
                   Q00  =   0.089171

H          x =  0.951912  y =  0.951420  z =  1.174503 angstrom
           Maximum rank =  0   Radius =  0.325 angstrom
                   Q00  =   0.123262

H          x = -0.700088  y =  0.885420  z =  0.543503 angstrom
           Maximum rank =  0   Radius =  0.325 angstrom
                   Q00  =   0.082324

H          x = -2.015088  y = -1.092580  z =  2.199503 angstrom
           Maximum rank =  0   Radius =  0.325 angstrom
                   Q00  =   0.095882

H          x = -1.481088  y = -2.764580  z =  2.119503 angstrom
           Maximum rank =  0   Radius =  0.325 angstrom
                   Q00  =   0.111914

H          x = -2.215778  y = -2.042500  z =  0.689873 angstrom
           Maximum rank =  0   Radius =  0.325 angstrom
                   Q00  =   0.097848

C          x =  1.027912  y =  2.009420  z = -1.959497 angstrom
           Maximum rank =  0   Radius =  0.650 angstrom
                   Q00  =  -0.239198

C          x =  0.371912  y =  2.058420  z = -3.332497 angstrom
           Maximum rank =  0   Radius =  0.650 angstrom
                   Q00  =  -0.232662

H          x =  2.049912  y =  1.642420  z = -2.047497 angstrom
           Maximum rank =  0   Radius =  0.325 angstrom
                   Q00  =   0.080134

H          x =  1.043912  y =  3.011420  z = -1.535497 angstrom
           Maximum rank =  0   Radius =  0.325 angstrom
                   Q00  =   0.073804

H          x =  0.460912  y =  1.351420  z = -1.307497 angstrom
           Maximum rank =  0   Radius =  0.325 angstrom
                   Q00  =   0.080534

H          x = -0.620088  y =  2.489420  z = -3.206497 angstrom
           Maximum rank =  0   Radius =  0.325 angstrom
                   Q00  =   0.074811

H          x =  0.300722  y =  1.044530  z = -3.753157 angstrom
           Maximum rank =  0   Radius =  0.325 angstrom
                   Q00  =   0.081015

H          x =  0.945622  y =  2.704480  z = -4.013277 angstrom
           Maximum rank =  0   Radius =  0.325 angstrom
                   Q00  =   0.077988

Total multipoles referred to origin at
           x =   0.000000,  y =    0.000000,  z =    0.000000 angstrom
                   Q00  =   0.000000

Finished at 15:55:30 on 28 Apr 2020

  DMA results are available in the Python driver through the
	  variable('DMA DISTRIBUTED MULTIPOLES')
  and
	  variable('DMA TOTAL MULTIPOLES')
  commands.

    Psi4 stopped on: Tuesday, 28 April 2020 03:55PM
    Psi4 wall time for execution: 0:00:45.58

*** Psi4 exiting successfully. Buy a developer a beer!
