                               Psi4 1.3.2 release

  ==> Input File <==

--------------------------------------------------------------------------
import numpy as np
set {scf_type pk
basis cc-pvdz
d_convergence 10
gdma_switch   0
gdma_limit    0
gdma_origin   [ 0.0,  0.0,  0.0 ]
}
molecule test {
    units Angstrom
    0 1
    --
    0 1
    C                4.238540524752519    -1.031885957755627     0.615256173926638
    C                0.801540524752520    -1.047885957755627    -1.047743826073362
    C                1.618540524752520    -0.852885957755627     0.103256173926638
    C                2.988540524752520    -1.118885957755628    -0.272743826073362
    C                2.947540524752520    -1.463885957755627    -1.591743826073362
    C               -1.183459475247480    -0.491885957755627     0.174256173926638
    C               -0.583459475247480    -0.868885957755627    -1.028743826073362
    C               -0.408459475247480    -0.295885957755627     1.324256173926638
    C                0.989540524752520    -0.463885957755627     1.300256173926638
    N                1.645540524752520    -1.427885957755628    -2.061743826073362
    H               -2.252459475247480    -0.349885957755627     0.224256173926638
    H               -1.144459475247480    -1.029885957755627    -1.938743826073362
    H               -0.885459475247480    -0.009885957755627     2.251256173926638
    H                1.555540524752520    -0.287885957755627     2.210256173926638
    H                1.350540524752520    -1.655885957755628    -3.005743826073362
    H                3.869540524752520    -1.713885957755628    -2.103743826073362
    H                4.933540524752519    -1.803885957755627     0.276256173926638
    H                3.931540524752520    -1.267885957755627     1.639256173926638
    H                4.729520524752520    -0.047785957755627     0.593266173926638
    C               -3.606459475247480     2.289114042244373     0.765256173926638
    C               -4.023459475247479     3.049114042244373     2.028256173926638
    C               -4.329459475247480     2.799114042244373    -0.494743826073362
    H               -2.528459475247480     2.398114042244373     0.641256173926638
    H               -3.841459475247480     1.235114042244372     0.908256173926638
    H               -5.112459475247480     3.062114042244373     2.086256173926638
    H               -5.342459475247480     2.398114042244373    -0.502743826073362
    H               -4.377459475247480     3.887114042244372    -0.450743826073362
    H               -3.646996475247480     4.081914042244373     1.989336173926638
    H               -3.737792475247480     2.472014042244373     2.920056173926638
    H               -3.809602475247480     2.502214042244373    -1.417583826073362

}
e, wfn = energy('scf', return_wfn=True)
gdma(wfn)
dmavals = variable('DMA DISTRIBUTED MULTIPOLES')
charges = np.array(dmavals)
print(charges)
np.save('SSI-112TRP-119ARG-1-dimer.npy', np.array(charges))--------------------------------------------------------------------------

*** tstart() called on ds3
*** at Mon Apr 27 23:09:50 2020

   => Loading Basis Set <=

    Name: CC-PVDZ
    Role: ORBITAL
    Keyword: BASIS
    atoms 1-9, 20-22   entry C          line   138 file /theoryfs2/ds/metcalf/miniconda2/envs/tf2gpu/share/psi4/basis/cc-pvdz.gbs
    atoms 10           entry N          line   168 file /theoryfs2/ds/metcalf/miniconda2/envs/tf2gpu/share/psi4/basis/cc-pvdz.gbs
    atoms 11-19, 23-30 entry H          line    22 file /theoryfs2/ds/metcalf/miniconda2/envs/tf2gpu/share/psi4/basis/cc-pvdz.gbs

         ---------------------------------------------------------
                                   SCF
               by Justin Turney, Rob Parrish, Andy Simmonett
                          and Daniel G. A. Smith
                              RHF Reference
                        1 Threads,    500 MiB Core
         ---------------------------------------------------------

  ==> Geometry <==

    Molecular point group: c1
    Full point group: C1

    Geometry (in Angstrom), charge = 0, multiplicity = 1:

       Center              X                  Y                   Z               Mass
    ------------   -----------------  -----------------  -----------------  -----------------
         C            4.238540524753    -1.031885957756     0.615256173927    12.000000000000
         C            0.801540524753    -1.047885957756    -1.047743826073    12.000000000000
         C            1.618540524753    -0.852885957756     0.103256173927    12.000000000000
         C            2.988540524753    -1.118885957756    -0.272743826073    12.000000000000
         C            2.947540524753    -1.463885957756    -1.591743826073    12.000000000000
         C           -1.183459475247    -0.491885957756     0.174256173927    12.000000000000
         C           -0.583459475247    -0.868885957756    -1.028743826073    12.000000000000
         C           -0.408459475247    -0.295885957756     1.324256173927    12.000000000000
         C            0.989540524753    -0.463885957756     1.300256173927    12.000000000000
         N            1.645540524753    -1.427885957756    -2.061743826073    14.003074004430
         H           -2.252459475247    -0.349885957756     0.224256173927     1.007825032230
         H           -1.144459475247    -1.029885957756    -1.938743826073     1.007825032230
         H           -0.885459475247    -0.009885957756     2.251256173927     1.007825032230
         H            1.555540524753    -0.287885957756     2.210256173927     1.007825032230
         H            1.350540524753    -1.655885957756    -3.005743826073     1.007825032230
         H            3.869540524753    -1.713885957756    -2.103743826073     1.007825032230
         H            4.933540524753    -1.803885957756     0.276256173927     1.007825032230
         H            3.931540524753    -1.267885957756     1.639256173927     1.007825032230
         H            4.729520524753    -0.047785957756     0.593266173927     1.007825032230
         C           -3.606459475247     2.289114042244     0.765256173927    12.000000000000
         C           -4.023459475247     3.049114042244     2.028256173927    12.000000000000
         C           -4.329459475247     2.799114042244    -0.494743826073    12.000000000000
         H           -2.528459475247     2.398114042244     0.641256173927     1.007825032230
         H           -3.841459475247     1.235114042244     0.908256173927     1.007825032230
         H           -5.112459475247     3.062114042244     2.086256173927     1.007825032230
         H           -5.342459475247     2.398114042244    -0.502743826073     1.007825032230
         H           -4.377459475247     3.887114042244    -0.450743826073     1.007825032230
         H           -3.646996475247     4.081914042244     1.989336173927     1.007825032230
         H           -3.737792475247     2.472014042244     2.920056173927     1.007825032230
         H           -3.809602475247     2.502214042244    -1.417583826073     1.007825032230

  Running in c1 symmetry.

  Rotational constants: A =      0.05503  B =      0.00918  C =      0.00834 [cm^-1]
  Rotational constants: A =   1649.68731  B =    275.28846  C =    250.02272 [MHz]
  Nuclear repulsion =  715.538059714285396

  Charge       = 0
  Multiplicity = 1
  Electrons    = 96
  Nalpha       = 48
  Nbeta        = 48

  ==> Algorithm <==

  SCF Algorithm Type is PK.
  DIIS enabled.
  MOM disabled.
  Fractional occupation disabled.
  Guess Type is SAD.
  Energy threshold   = 1.00e-06
  Density threshold  = 1.00e-10
  Integral threshold = 0.00e+00

  ==> Primary Basis <==

  Basis Set: CC-PVDZ
    Blend: CC-PVDZ
    Number of shells: 129
    Number of basis function: 267
    Number of Cartesian functions: 280
    Spherical Harmonics?: true
    Max angular momentum: 2

  ==> Pre-Iterations <==

   -------------------------------------------------------
    Irrep   Nso     Nmo     Nalpha   Nbeta   Ndocc  Nsocc
   -------------------------------------------------------
     A        267     267       0       0       0       0
   -------------------------------------------------------
    Total     267     267      48      48      48       0
   -------------------------------------------------------

  ==> Integral Setup <==

  Using integral reordering PK algorithm.
  Sizing the integral batches needed.
  Building batch lookup table.
   Calculation information:
      Number of atoms:                  30
      Number of AO shells:             129
      Number of primitives:            371
      Number of atomic orbitals:       280
      Number of basis functions:       267

      Integral cutoff                 1.00e-12
      Number of threads:                 1

	Batch   1 pq = [       0,    9405] index = [             0,44231715] size =     44231715
	Batch   2 pq = [    9405,   13301] index = [      44231715,88464951] size =     44233236
	Batch   3 pq = [   13301,   16290] index = [      88464951,132690195] size =     44225244
	Batch   4 pq = [   16290,   18810] index = [     132690195,176917455] size =     44227260
	Batch   5 pq = [   18810,   21030] index = [     176917455,221140965] size =     44223510
	Batch   6 pq = [   21030,   23037] index = [     221140965,265363203] size =     44222238
	Batch   7 pq = [   23037,   24883] index = [     265363203,309594286] size =     44231083
	Batch   8 pq = [   24883,   26601] index = [     309594286,353819901] size =     44225615
	Batch   9 pq = [   26601,   28214] index = [     353819901,398029005] size =     44209104
	Batch  10 pq = [   28214,   29740] index = [     398029005,442248670] size =     44219665
	Batch  11 pq = [   29740,   31191] index = [     442248670,486454836] size =     44206166
	Batch  12 pq = [   31191,   32578] index = [     486454836,530679331] size =     44224495
	Batch  13 pq = [   32578,   33908] index = [     530679331,574893186] size =     44213855
	Batch  14 pq = [   33908,   35188] index = [     574893186,619115266] size =     44222080
	Batch  15 pq = [   35188,   35778] index = [     619115266,640050531] size =     20935265
  Task number: 58
  Buffer size: 11059200
  Buffer per thread: 2
  We computed 26726689 shell quartets total.
  Whereas there are 35158305 unique shell quartets.

  ==> DiskJK: Disk-Based J/K Matrices <==

    J tasked:                  Yes
    K tasked:                  Yes
    wK tasked:                  No
    Memory [MiB]:              375
    Schwarz Cutoff:          1E-12

    OpenMP threads:              1

  Minimum eigenvalue in the overlap matrix is 2.5004701134E-04.
  Using Symmetric Orthogonalization.

  SCF Guess: Superposition of Atomic Densities via on-the-fly atomic UHF.

  ==> Iterations <==

                        Total Energy        Delta E     RMS |[F,P]|

   @RHF iter SAD:  -517.82898043979787   -5.17829e+02   0.00000e+00
   @RHF iter   1:  -518.49308686768984   -6.64106e-01   2.46368e-03 DIIS
   @RHF iter   2:  -518.74731193033688   -2.54225e-01   1.08710e-03 DIIS
   @RHF iter   3:  -518.79220702806174   -4.48951e-02   2.81670e-04 DIIS
   @RHF iter   4:  -518.79630364958052   -4.09662e-03   1.27923e-04 DIIS
   @RHF iter   5:  -518.79695982189105   -6.56172e-04   1.95487e-05 DIIS
   @RHF iter   6:  -518.79699175440669   -3.19325e-05   8.66562e-06 DIIS
   @RHF iter   7:  -518.79699829713684   -6.54273e-06   3.55632e-06 DIIS
   @RHF iter   8:  -518.79700009112537   -1.79399e-06   1.50479e-06 DIIS
   @RHF iter   9:  -518.79700049584733   -4.04722e-07   6.55000e-07 DIIS
   @RHF iter  10:  -518.79700057698005   -8.11327e-08   2.96772e-07 DIIS
   @RHF iter  11:  -518.79700059580284   -1.88228e-08   1.11789e-07 DIIS
   @RHF iter  12:  -518.79700059839820   -2.59536e-09   4.40241e-08 DIIS
   @RHF iter  13:  -518.79700059861830   -2.20098e-10   1.32436e-08 DIIS
   @RHF iter  14:  -518.79700059864615   -2.78533e-11   5.45443e-09 DIIS
   @RHF iter  15:  -518.79700059865138   -5.22959e-12   2.73779e-09 DIIS
   @RHF iter  16:  -518.79700059865161   -2.27374e-13   1.18913e-09 DIIS
   @RHF iter  17:  -518.79700059865047    1.13687e-12   5.65140e-10 DIIS
   @RHF iter  18:  -518.79700059865024    2.27374e-13   1.94646e-10 DIIS
   @RHF iter  19:  -518.79700059865240   -2.16005e-12   7.48996e-11 DIIS
  Energy and wave function converged.

  ==> Post-Iterations <==

    Orbital Energies [Eh]
    ---------------------

    Doubly Occupied:

       1A    -15.603109     2A    -11.265618     3A    -11.265405
       4A    -11.232937     5A    -11.232432     6A    -11.231682
       7A    -11.230028     8A    -11.223248     9A    -11.221729
      10A    -11.220907    11A    -11.216315    12A    -11.215053
      13A    -11.214235    14A     -1.290661    15A     -1.122298
      16A     -1.068199    17A     -1.048816    18A     -0.991175
      19A     -0.985139    20A     -0.929920    21A     -0.920226
      22A     -0.837118    23A     -0.801917    24A     -0.793313
      25A     -0.749778    26A     -0.717218    27A     -0.664599
      28A     -0.638314    29A     -0.625926    30A     -0.598075
      31A     -0.589991    32A     -0.588275    33A     -0.587600
      34A     -0.564108    35A     -0.553214    36A     -0.542183
      37A     -0.532405    38A     -0.531921    39A     -0.527080
      40A     -0.493525    41A     -0.471294    42A     -0.468628
      43A     -0.465288    44A     -0.462145    45A     -0.455605
      46A     -0.371936    47A     -0.293385    48A     -0.274753

    Virtual:

      49A      0.123467    50A      0.168879    51A      0.174138
      52A      0.183213    53A      0.189117    54A      0.207088
      55A      0.213947    56A      0.219943    57A      0.227081
      58A      0.237308    59A      0.244731    60A      0.258827
      61A      0.263639    62A      0.268997    63A      0.273953
      64A      0.291445    65A      0.292642    66A      0.301433
      67A      0.318486    68A      0.355872    69A      0.366287
      70A      0.374101    71A      0.383536    72A      0.393200
      73A      0.417697    74A      0.431165    75A      0.443917
      76A      0.468200    77A      0.477635    78A      0.501563
      79A      0.511285    80A      0.582292    81A      0.596733
      82A      0.609852    83A      0.612519    84A      0.624040
      85A      0.626117    86A      0.633514    87A      0.642278
      88A      0.656445    89A      0.664675    90A      0.692158
      91A      0.711376    92A      0.718154    93A      0.722499
      94A      0.729729    95A      0.740041    96A      0.746868
      97A      0.750223    98A      0.761009    99A      0.763477
     100A      0.770413   101A      0.787925   102A      0.795728
     103A      0.812115   104A      0.817832   105A      0.838948
     106A      0.847719   107A      0.867272   108A      0.875423
     109A      0.879867   110A      0.882824   111A      0.884424
     112A      0.894113   113A      0.895974   114A      0.903624
     115A      0.905452   116A      0.907424   117A      0.917923
     118A      0.926263   119A      0.928740   120A      0.944016
     121A      0.948225   122A      0.952244   123A      0.968380
     124A      0.970997   125A      0.984273   126A      0.987185
     127A      1.000521   128A      1.017844   129A      1.050576
     130A      1.075534   131A      1.096397   132A      1.109788
     133A      1.114307   134A      1.126882   135A      1.143056
     136A      1.149083   137A      1.161868   138A      1.179109
     139A      1.207582   140A      1.213628   141A      1.223897
     142A      1.235818   143A      1.242247   144A      1.244916
     145A      1.274151   146A      1.282753   147A      1.293013
     148A      1.323401   149A      1.335205   150A      1.357057
     151A      1.359262   152A      1.390659   153A      1.415026
     154A      1.444407   155A      1.471278   156A      1.478759
     157A      1.511869   158A      1.536392   159A      1.553480
     160A      1.562673   161A      1.595931   162A      1.607493
     163A      1.631513   164A      1.643298   165A      1.649064
     166A      1.665878   167A      1.685248   168A      1.691107
     169A      1.696445   170A      1.718939   171A      1.738986
     172A      1.760719   173A      1.771837   174A      1.780192
     175A      1.814164   176A      1.825751   177A      1.832103
     178A      1.855638   179A      1.865357   180A      1.873910
     181A      1.884624   182A      1.891005   183A      1.894871
     184A      1.899954   185A      1.906089   186A      1.912748
     187A      1.922334   188A      1.928072   189A      1.930947
     190A      1.940728   191A      1.954130   192A      1.972277
     193A      1.975708   194A      1.984701   195A      1.988418
     196A      1.989787   197A      1.998517   198A      2.008313
     199A      2.011566   200A      2.015937   201A      2.036062
     202A      2.047173   203A      2.063837   204A      2.069764
     205A      2.086592   206A      2.090744   207A      2.107681
     208A      2.118306   209A      2.134785   210A      2.154725
     211A      2.161430   212A      2.169893   213A      2.173351
     214A      2.189195   215A      2.228579   216A      2.256937
     217A      2.260841   218A      2.268507   219A      2.287374
     220A      2.295591   221A      2.306348   222A      2.311004
     223A      2.334514   224A      2.348604   225A      2.365885
     226A      2.386004   227A      2.392161   228A      2.447959
     229A      2.457822   230A      2.489369   231A      2.520997
     232A      2.523861   233A      2.564931   234A      2.575584
     235A      2.582579   236A      2.614077   237A      2.617292
     238A      2.646716   239A      2.653430   240A      2.672217
     241A      2.714189   242A      2.755711   243A      2.763262
     244A      2.768537   245A      2.771601   246A      2.778177
     247A      2.789146   248A      2.799909   249A      2.826315
     250A      2.829480   251A      2.846494   252A      2.864241
     253A      2.896157   254A      2.910422   255A      2.942475
     256A      2.950203   257A      2.961505   258A      2.993400
     259A      3.024136   260A      3.063523   261A      3.069716
     262A      3.100734   263A      3.187324   264A      3.268033
     265A      3.359176   266A      3.725683   267A      3.927075

    Final Occupation by Irrep:
              A
    DOCC [    48 ]

  @RHF Final Energy:  -518.79700059865240

   => Energetics <=

    Nuclear Repulsion Energy =            715.5380597142853958
    One-Electron Energy =               -2120.8126688654824648
    Two-Electron Energy =                 886.4776085525447797
    Total Energy =                       -518.7970005986524029

Computation Completed

Properties will be evaluated at   0.000000,   0.000000,   0.000000 [a0]

Properties computed using the SCF density matrix

  Nuclear Dipole Moment: [e a0]
     X:   -15.2938      Y:    13.0067      Z:     5.9312

  Electronic Dipole Moment: [e a0]
     X:    15.5953      Y:   -13.2577      Z:    -6.6369

  Dipole Moment: [e a0]
     X:     0.3015      Y:    -0.2510      Z:    -0.7057     Total:     0.8074

  Dipole Moment: [D]
     X:     0.7663      Y:    -0.6379      Z:    -1.7937     Total:     2.0521

*** tstop() called on ds3 at Mon Apr 27 23:15:37 2020
Module time:
	user time   =     244.18 seconds =       4.07 minutes
	system time =     119.04 seconds =       1.98 minutes
	total time  =        347 seconds =       5.78 minutes
Total time:
	user time   =     244.18 seconds =       4.07 minutes
	system time =     119.04 seconds =       1.98 minutes
	total time  =        347 seconds =       5.78 minutes
                                     G D M A

                                 by Anthony Stone

                           version 2.2.06, 22 June 2011

               Distributed Multipoles from Gaussian wavefunctions

Starting at 23:15:37 on 27 Apr 2020

Using SCF density matrix from file ./SSI/SSI-112TRP-119ARG-1-dimer.test.1377.fchk

                         Distributed Multipole Analysis

Standard DMA

Positions and radii in angstrom
Multipole moments in atomic units, ea_0^k for rank k

C          x =  4.238541  y = -1.031886  z =  0.615256 angstrom
           Maximum rank =  0   Radius =  0.650 angstrom
                   Q00  =  -0.206683

C          x =  0.801541  y = -1.047886  z = -1.047744 angstrom
           Maximum rank =  0   Radius =  0.650 angstrom
                   Q00  =   0.291857

C          x =  1.618541  y = -0.852886  z =  0.103256 angstrom
           Maximum rank =  0   Radius =  0.650 angstrom
                   Q00  =  -0.044574

C          x =  2.988541  y = -1.118886  z = -0.272744 angstrom
           Maximum rank =  0   Radius =  0.650 angstrom
                   Q00  =  -0.141277

C          x =  2.947541  y = -1.463886  z = -1.591744 angstrom
           Maximum rank =  0   Radius =  0.650 angstrom
                   Q00  =   0.080914

C          x = -1.183459  y = -0.491886  z =  0.174256 angstrom
           Maximum rank =  0   Radius =  0.650 angstrom
                   Q00  =  -0.079895

C          x = -0.583459  y = -0.868886  z = -1.028744 angstrom
           Maximum rank =  0   Radius =  0.650 angstrom
                   Q00  =  -0.127489

C          x = -0.408459  y = -0.295886  z =  1.324256 angstrom
           Maximum rank =  0   Radius =  0.650 angstrom
                   Q00  =  -0.074332

C          x =  0.989541  y = -0.463886  z =  1.300256 angstrom
           Maximum rank =  0   Radius =  0.650 angstrom
                   Q00  =  -0.098284

N          x =  1.645541  y = -1.427886  z = -2.061744 angstrom
           Maximum rank =  0   Radius =  0.650 angstrom
                   Q00  =  -0.506056

H          x = -2.252459  y = -0.349886  z =  0.224256 angstrom
           Maximum rank =  0   Radius =  0.325 angstrom
                   Q00  =   0.069514

H          x = -1.144459  y = -1.029886  z = -1.938744 angstrom
           Maximum rank =  0   Radius =  0.325 angstrom
                   Q00  =   0.072999

H          x = -0.885459  y = -0.009886  z =  2.251256 angstrom
           Maximum rank =  0   Radius =  0.325 angstrom
                   Q00  =   0.060069

H          x =  1.555541  y = -0.287886  z =  2.210256 angstrom
           Maximum rank =  0   Radius =  0.325 angstrom
                   Q00  =   0.069235

H          x =  1.350541  y = -1.655886  z = -3.005744 angstrom
           Maximum rank =  0   Radius =  0.325 angstrom
                   Q00  =   0.217794

H          x =  3.869541  y = -1.713886  z = -2.103744 angstrom
           Maximum rank =  0   Radius =  0.325 angstrom
                   Q00  =   0.102957

H          x =  4.933541  y = -1.803886  z =  0.276256 angstrom
           Maximum rank =  0   Radius =  0.325 angstrom
                   Q00  =   0.103334

H          x =  3.931541  y = -1.267886  z =  1.639256 angstrom
           Maximum rank =  0   Radius =  0.325 angstrom
                   Q00  =   0.105361

H          x =  4.729521  y = -0.047786  z =  0.593266 angstrom
           Maximum rank =  0   Radius =  0.325 angstrom
                   Q00  =   0.103953

C          x = -3.606459  y =  2.289114  z =  0.765256 angstrom
           Maximum rank =  0   Radius =  0.650 angstrom
                   Q00  =  -0.090766

C          x = -4.023459  y =  3.049114  z =  2.028256 angstrom
           Maximum rank =  0   Radius =  0.650 angstrom
                   Q00  =  -0.215107

C          x = -4.329459  y =  2.799114  z = -0.494744 angstrom
           Maximum rank =  0   Radius =  0.650 angstrom
                   Q00  =  -0.236715

H          x = -2.528459  y =  2.398114  z =  0.641256 angstrom
           Maximum rank =  0   Radius =  0.325 angstrom
                   Q00  =   0.057079

H          x = -3.841459  y =  1.235114  z =  0.908256 angstrom
           Maximum rank =  0   Radius =  0.325 angstrom
                   Q00  =   0.039303

H          x = -5.112459  y =  3.062114  z =  2.086256 angstrom
           Maximum rank =  0   Radius =  0.325 angstrom
                   Q00  =   0.069353

H          x = -5.342459  y =  2.398114  z = -0.502744 angstrom
           Maximum rank =  0   Radius =  0.325 angstrom
                   Q00  =   0.077987

H          x = -4.377459  y =  3.887114  z = -0.450744 angstrom
           Maximum rank =  0   Radius =  0.325 angstrom
                   Q00  =   0.074633

H          x = -3.646996  y =  4.081914  z =  1.989336 angstrom
           Maximum rank =  0   Radius =  0.325 angstrom
                   Q00  =   0.070905

H          x = -3.737792  y =  2.472014  z =  2.920056 angstrom
           Maximum rank =  0   Radius =  0.325 angstrom
                   Q00  =   0.069648

H          x = -3.809602  y =  2.502214  z = -1.417584 angstrom
           Maximum rank =  0   Radius =  0.325 angstrom
                   Q00  =   0.084285

Total multipoles referred to origin at
           x =   0.000000,  y =    0.000000,  z =    0.000000 angstrom
                   Q00  =  -0.000000

Finished at 23:15:37 on 27 Apr 2020

  DMA results are available in the Python driver through the
	  variable('DMA DISTRIBUTED MULTIPOLES')
  and
	  variable('DMA TOTAL MULTIPOLES')
  commands.

    Psi4 stopped on: Monday, 27 April 2020 11:15PM
    Psi4 wall time for execution: 0:05:47.94

*** Psi4 exiting successfully. Buy a developer a beer!
