                               Psi4 1.3.2 release

  ==> Input File <==

--------------------------------------------------------------------------
import numpy as np
set {scf_type pk
basis cc-pvdz
d_convergence 10
gdma_switch   0
gdma_limit    0
gdma_origin   [ 0.0,  0.0,  0.0 ]
}
molecule test {
    units Angstrom
    0 1
    --
    0 1
    C                1.327176290927139     1.722883504582619    -0.671159278474437
    C                0.975176290927139     2.770883504582620    -1.670159278474437
    H                2.123176290927139     1.061883504582619    -0.984159278474437
    H                1.639176290927139     2.208883504582620     0.250840721525563
    H                0.448176290927139     1.167883504582619    -0.432159278474437
    H                1.829176290927139     3.429883504582619    -1.725159278474437
    H                0.117176290927139     3.340883504582620    -1.308159278474437
    H                0.735256290927139     2.312073504582619    -2.640689278474437
    C               -0.290823709072861    -1.259116495417381     0.949840721525563
    C               -1.688823709072861    -0.671116495417380     1.072840721525563
    C               -0.342823709072861    -2.648116495417380     0.373840721525563
    H                0.320176290927139    -0.669116495417380     0.288840721525563
    H                0.190176290927139    -1.289116495417381     1.927840721525563
    H               -2.280823709072861    -1.269116495417381     1.768840721525563
    H               -2.168823709072861    -0.714116495417380     0.092840721525563
    H               -0.750823709072861    -3.330116495417381     1.115840721525563
    H               -0.969823709072861    -2.662116495417381    -0.521159278474437
    H               -1.670633709072861     0.378173504582620     1.402470721525563
    H                0.677986290927139    -2.958856495417381     0.106670721525563

}
e, wfn = energy('scf', return_wfn=True)
gdma(wfn)
dmavals = variable('DMA DISTRIBUTED MULTIPOLES')
charges = np.array(dmavals)
print(charges)
np.save('SSI-012ILE-046LYS-2-dimer.npy', np.array(charges))--------------------------------------------------------------------------

*** tstart() called on ds3
*** at Mon Apr 27 03:54:20 2020

   => Loading Basis Set <=

    Name: CC-PVDZ
    Role: ORBITAL
    Keyword: BASIS
    atoms 1-2, 9-11  entry C          line   138 file /theoryfs2/ds/metcalf/miniconda2/envs/tf2gpu/share/psi4/basis/cc-pvdz.gbs
    atoms 3-8, 12-19 entry H          line    22 file /theoryfs2/ds/metcalf/miniconda2/envs/tf2gpu/share/psi4/basis/cc-pvdz.gbs

         ---------------------------------------------------------
                                   SCF
               by Justin Turney, Rob Parrish, Andy Simmonett
                          and Daniel G. A. Smith
                              RHF Reference
                        1 Threads,    500 MiB Core
         ---------------------------------------------------------

  ==> Geometry <==

    Molecular point group: c1
    Full point group: C1

    Geometry (in Angstrom), charge = 0, multiplicity = 1:

       Center              X                  Y                   Z               Mass
    ------------   -----------------  -----------------  -----------------  -----------------
         C            1.327176290927     1.722883504583    -0.671159278474    12.000000000000
         C            0.975176290927     2.770883504583    -1.670159278474    12.000000000000
         H            2.123176290927     1.061883504583    -0.984159278474     1.007825032230
         H            1.639176290927     2.208883504583     0.250840721526     1.007825032230
         H            0.448176290927     1.167883504583    -0.432159278474     1.007825032230
         H            1.829176290927     3.429883504583    -1.725159278474     1.007825032230
         H            0.117176290927     3.340883504583    -1.308159278474     1.007825032230
         H            0.735256290927     2.312073504583    -2.640689278474     1.007825032230
         C           -0.290823709073    -1.259116495417     0.949840721526    12.000000000000
         C           -1.688823709073    -0.671116495417     1.072840721526    12.000000000000
         C           -0.342823709073    -2.648116495417     0.373840721526    12.000000000000
         H            0.320176290927    -0.669116495417     0.288840721526     1.007825032230
         H            0.190176290927    -1.289116495417     1.927840721526     1.007825032230
         H           -2.280823709073    -1.269116495417     1.768840721526     1.007825032230
         H           -2.168823709073    -0.714116495417     0.092840721526     1.007825032230
         H           -0.750823709073    -3.330116495417     1.115840721526     1.007825032230
         H           -0.969823709073    -2.662116495417    -0.521159278474     1.007825032230
         H           -1.670633709073     0.378173504583     1.402470721526     1.007825032230
         H            0.677986290927    -2.958856495417     0.106670721526     1.007825032230

  Running in c1 symmetry.

  Rotational constants: A =      0.23613  B =      0.03878  C =      0.03588 [cm^-1]
  Rotational constants: A =   7078.89223  B =   1162.44803  C =   1075.65564 [MHz]
  Nuclear repulsion =  178.869520095468204

  Charge       = 0
  Multiplicity = 1
  Electrons    = 44
  Nalpha       = 22
  Nbeta        = 22

  ==> Algorithm <==

  SCF Algorithm Type is PK.
  DIIS enabled.
  MOM disabled.
  Fractional occupation disabled.
  Guess Type is SAD.
  Energy threshold   = 1.00e-06
  Density threshold  = 1.00e-10
  Integral threshold = 0.00e+00

  ==> Primary Basis <==

  Basis Set: CC-PVDZ
    Blend: CC-PVDZ
    Number of shells: 72
    Number of basis function: 140
    Number of Cartesian functions: 145
    Spherical Harmonics?: true
    Max angular momentum: 2

  ==> Pre-Iterations <==

   -------------------------------------------------------
    Irrep   Nso     Nmo     Nalpha   Nbeta   Ndocc  Nsocc
   -------------------------------------------------------
     A        140     140       0       0       0       0
   -------------------------------------------------------
    Total     140     140      22      22      22       0
   -------------------------------------------------------

  ==> Integral Setup <==

  Using integral reordering PK algorithm.
  Sizing the integral batches needed.
  Building batch lookup table.
   Calculation information:
      Number of atoms:                  19
      Number of AO shells:              72
      Number of primitives:            180
      Number of atomic orbitals:       145
      Number of basis functions:       140

      Integral cutoff                 1.00e-12
      Number of threads:                 1

	Batch   1 pq = [       0,    9405] index = [             0,44231715] size =     44231715
	Batch   2 pq = [    9405,    9870] index = [      44231715,48713385] size =      4481670
  Task number: 5
  Buffer size: 11059200
  Buffer per thread: 2
  We computed 2844738 shell quartets total.
  Whereas there are 3454506 unique shell quartets.

  ==> DiskJK: Disk-Based J/K Matrices <==

    J tasked:                  Yes
    K tasked:                  Yes
    wK tasked:                  No
    Memory [MiB]:              375
    Schwarz Cutoff:          1E-12

    OpenMP threads:              1

  Minimum eigenvalue in the overlap matrix is 4.9700864955E-03.
  Using Symmetric Orthogonalization.

  SCF Guess: Superposition of Atomic Densities via on-the-fly atomic UHF.

  ==> Iterations <==

                        Total Energy        Delta E     RMS |[F,P]|

   @RHF iter SAD:  -196.54908591587463   -1.96549e+02   0.00000e+00
   @RHF iter   1:  -197.29841729225589   -7.49331e-01   3.90529e-03 DIIS
   @RHF iter   2:  -197.46424339242884   -1.65826e-01   1.69330e-03 DIIS
   @RHF iter   3:  -197.49428794329540   -3.00446e-02   3.31168e-04 DIIS
   @RHF iter   4:  -197.49656572706658   -2.27778e-03   4.83558e-05 DIIS
   @RHF iter   5:  -197.49660543529205   -3.97082e-05   1.48152e-05 DIIS
   @RHF iter   6:  -197.49660880620630   -3.37091e-06   2.58425e-06 DIIS
   @RHF iter   7:  -197.49660892274215   -1.16536e-07   4.59754e-07 DIIS
   @RHF iter   8:  -197.49660892694962   -4.20746e-09   1.10853e-07 DIIS
   @RHF iter   9:  -197.49660892718191   -2.32291e-10   3.50160e-08 DIIS
   @RHF iter  10:  -197.49660892720786   -2.59490e-11   7.53255e-09 DIIS
   @RHF iter  11:  -197.49660892720959   -1.73372e-12   1.48933e-09 DIIS
   @RHF iter  12:  -197.49660892720865    9.37916e-13   2.72911e-10 DIIS
   @RHF iter  13:  -197.49660892720908   -4.26326e-13   5.08839e-11 DIIS
  Energy and wave function converged.

  ==> Post-Iterations <==

    Orbital Energies [Eh]
    ---------------------

    Doubly Occupied:

       1A    -11.215712     2A    -11.214487     3A    -11.212926
       4A    -11.212267     5A    -11.208602     6A     -1.060332
       7A     -1.031489     8A     -0.922858     9A     -0.836976
      10A     -0.796142    11A     -0.633308    12A     -0.609379
      13A     -0.603200    14A     -0.597185    15A     -0.547935
      16A     -0.530255    17A     -0.510007    18A     -0.489040
      19A     -0.482779    20A     -0.472841    21A     -0.467937
      22A     -0.460335

    Virtual:

      23A      0.172393    24A      0.197832    25A      0.216717
      26A      0.228640    27A      0.235587    28A      0.252698
      29A      0.253387    30A      0.267524    31A      0.277187
      32A      0.288736    33A      0.293674    34A      0.308849
      35A      0.310516    36A      0.343454    37A      0.373200
      38A      0.407086    39A      0.428688    40A      0.577481
      41A      0.585890    42A      0.603318    43A      0.607993
      44A      0.616331    45A      0.622198    46A      0.640934
      47A      0.656731    48A      0.698436    49A      0.756350
      50A      0.804310    51A      0.809376    52A      0.864015
      53A      0.876754    54A      0.880428    55A      0.887838
      56A      0.891541    57A      0.895095    58A      0.899939
      59A      0.902270    60A      0.907487    61A      0.915712
      62A      0.919200    63A      0.934811    64A      0.943108
      65A      0.946888    66A      0.968368    67A      1.019888
      68A      1.057010    69A      1.122907    70A      1.130772
      71A      1.140307    72A      1.152370    73A      1.236917
      74A      1.272194    75A      1.383658    76A      1.467744
      77A      1.477147    78A      1.493838    79A      1.515738
      80A      1.546427    81A      1.585444    82A      1.633098
      83A      1.670694    84A      1.677129    85A      1.692647
      86A      1.700412    87A      1.710377    88A      1.842357
      89A      1.860199    90A      1.866700    91A      1.877443
      92A      1.886466    93A      1.922783    94A      1.933439
      95A      1.942162    96A      1.946510    97A      1.957835
      98A      1.961500    99A      1.967446   100A      1.976942
     101A      1.985853   102A      1.990411   103A      1.999482
     104A      2.014611   105A      2.024631   106A      2.056873
     107A      2.069019   108A      2.092457   109A      2.142130
     110A      2.150214   111A      2.181356   112A      2.298536
     113A      2.309605   114A      2.315368   115A      2.316275
     116A      2.342511   117A      2.358332   118A      2.473115
     119A      2.488653   120A      2.498604   121A      2.545098
     122A      2.573993   123A      2.575522   124A      2.603900
     125A      2.622630   126A      2.664222   127A      2.761454
     128A      2.775245   129A      2.785254   130A      2.796605
     131A      2.813381   132A      2.834469   133A      2.864608
     134A      2.882940   135A      2.920082   136A      2.968322
     137A      2.975657   138A      2.984009   139A      3.006718
     140A      3.105589

    Final Occupation by Irrep:
              A
    DOCC [    22 ]

  @RHF Final Energy:  -197.49660892720908

   => Energetics <=

    Nuclear Repulsion Energy =            178.8695200954682036
    One-Electron Energy =                -618.5002726767986587
    Two-Electron Energy =                 242.1341436541213739
    Total Energy =                       -197.4966089272090812

Computation Completed

Properties will be evaluated at   0.000000,   0.000000,   0.000000 [a0]

Properties computed using the SCF density matrix

  Nuclear Dipole Moment: [e a0]
     X:     0.2246      Y:     0.9441      Z:    -0.6162

  Electronic Dipole Moment: [e a0]
     X:    -0.1894      Y:    -0.9176      Z:     0.6329

  Dipole Moment: [e a0]
     X:     0.0351      Y:     0.0265      Z:     0.0167     Total:     0.0471

  Dipole Moment: [D]
     X:     0.0893      Y:     0.0674      Z:     0.0425     Total:     0.1197

*** tstop() called on ds3 at Mon Apr 27 03:55:17 2020
Module time:
	user time   =      14.09 seconds =       0.23 minutes
	system time =       5.23 seconds =       0.09 minutes
	total time  =         57 seconds =       0.95 minutes
Total time:
	user time   =      14.09 seconds =       0.23 minutes
	system time =       5.23 seconds =       0.09 minutes
	total time  =         57 seconds =       0.95 minutes
                                     G D M A

                                 by Anthony Stone

                           version 2.2.06, 22 June 2011

               Distributed Multipoles from Gaussian wavefunctions

Starting at 3:55:17 on 27 Apr 2020

Using SCF density matrix from file ./SSI/SSI-012ILE-046LYS-2-dimer.test.22445.fchk

                         Distributed Multipole Analysis

Standard DMA

Positions and radii in angstrom
Multipole moments in atomic units, ea_0^k for rank k

C          x =  1.327176  y =  1.722884  z = -0.671159 angstrom
           Maximum rank =  0   Radius =  0.650 angstrom
                   Q00  =  -0.236952

C          x =  0.975176  y =  2.770884  z = -1.670159 angstrom
           Maximum rank =  0   Radius =  0.650 angstrom
                   Q00  =  -0.212074

H          x =  2.123176  y =  1.061884  z = -0.984159 angstrom
           Maximum rank =  0   Radius =  0.325 angstrom
                   Q00  =   0.078090

H          x =  1.639176  y =  2.208884  z =  0.250841 angstrom
           Maximum rank =  0   Radius =  0.325 angstrom
                   Q00  =   0.071562

H          x =  0.448176  y =  1.167884  z = -0.432159 angstrom
           Maximum rank =  0   Radius =  0.325 angstrom
                   Q00  =   0.074810

H          x =  1.829176  y =  3.429884  z = -1.725159 angstrom
           Maximum rank =  0   Radius =  0.325 angstrom
                   Q00  =   0.074199

H          x =  0.117176  y =  3.340884  z = -1.308159 angstrom
           Maximum rank =  0   Radius =  0.325 angstrom
                   Q00  =   0.076963

H          x =  0.735256  y =  2.312074  z = -2.640689 angstrom
           Maximum rank =  0   Radius =  0.325 angstrom
                   Q00  =   0.075401

C          x = -0.290824  y = -1.259116  z =  0.949841 angstrom
           Maximum rank =  0   Radius =  0.650 angstrom
                   Q00  =  -0.080003

C          x = -1.688824  y = -0.671116  z =  1.072841 angstrom
           Maximum rank =  0   Radius =  0.650 angstrom
                   Q00  =  -0.236810

C          x = -0.342824  y = -2.648116  z =  0.373841 angstrom
           Maximum rank =  0   Radius =  0.650 angstrom
                   Q00  =  -0.245149

H          x =  0.320176  y = -0.669116  z =  0.288841 angstrom
           Maximum rank =  0   Radius =  0.325 angstrom
                   Q00  =   0.058259

H          x =  0.190176  y = -1.289116  z =  1.927841 angstrom
           Maximum rank =  0   Radius =  0.325 angstrom
                   Q00  =   0.046599

H          x = -2.280824  y = -1.269116  z =  1.768841 angstrom
           Maximum rank =  0   Radius =  0.325 angstrom
                   Q00  =   0.078007

H          x = -2.168824  y = -0.714116  z =  0.092841 angstrom
           Maximum rank =  0   Radius =  0.325 angstrom
                   Q00  =   0.071523

H          x = -0.750824  y = -3.330116  z =  1.115841 angstrom
           Maximum rank =  0   Radius =  0.325 angstrom
                   Q00  =   0.073618

H          x = -0.969824  y = -2.662116  z = -0.521159 angstrom
           Maximum rank =  0   Radius =  0.325 angstrom
                   Q00  =   0.072327

H          x = -1.670634  y =  0.378174  z =  1.402471 angstrom
           Maximum rank =  0   Radius =  0.325 angstrom
                   Q00  =   0.082100

H          x =  0.677986  y = -2.958856  z =  0.106671 angstrom
           Maximum rank =  0   Radius =  0.325 angstrom
                   Q00  =   0.077531

Total multipoles referred to origin at
           x =   0.000000,  y =    0.000000,  z =    0.000000 angstrom
                   Q00  =  -0.000000

Finished at 3:55:17 on 27 Apr 2020

  DMA results are available in the Python driver through the
	  variable('DMA DISTRIBUTED MULTIPOLES')
  and
	  variable('DMA TOTAL MULTIPOLES')
  commands.

    Psi4 stopped on: Monday, 27 April 2020 03:55AM
    Psi4 wall time for execution: 0:00:57.49

*** Psi4 exiting successfully. Buy a developer a beer!
