                               Psi4 1.3.2 release

  ==> Input File <==

--------------------------------------------------------------------------
import numpy as np
set {scf_type pk
basis cc-pvdz
d_convergence 10
gdma_switch   0
gdma_limit    0
gdma_origin   [ 0.0,  0.0,  0.0 ]
}
molecule test {
    units Angstrom
    -1 1
    --
    -1 1
    C                1.869624377437240    -1.230803461299654    -2.293080222358453
    C                0.548624377437240    -0.460803461299654    -2.313080222358453
    O               -0.213375622562760    -0.499803461299654    -1.317080222358453
    O                0.274624377437240     0.207196538700346    -3.332080222358453
    H                2.498624377437241    -0.909803461299654    -3.126080222358453
    H                1.657624377437240    -2.292803461299654    -2.420080222358453
    H                2.417024377437241    -1.098993461299654    -1.348101222358453
    C               -0.483375622562760     1.373196538700346     3.450919777641547
    C               -0.668375622562760     0.437196538700346     2.287919777641547
    O               -1.699375622562760    -0.215803461299654     2.157919777641548
    N                0.311624377437240     0.389196538700346     1.408919777641548
    H                0.136624377437240    -0.092803461299654     0.526919777641547
    H                1.176624377437240     0.880196538700346     1.582919777641548
    H                0.563624377437240     1.669196538700346     3.531919777641547
    H               -0.739375622562760     0.827196538700346     4.360919777641548
    H               -1.122295622562760     2.264656538700346     3.366738777641547

}
e, wfn = energy('scf', return_wfn=True)
gdma(wfn)
dmavals = variable('DMA DISTRIBUTED MULTIPOLES')
charges = np.array(dmavals)
print(charges)
np.save('SSI-084ASP-107ASN-1-dimer.npy', np.array(charges))--------------------------------------------------------------------------

*** tstart() called on ds3
*** at Tue Apr 28 11:30:44 2020

   => Loading Basis Set <=

    Name: CC-PVDZ
    Role: ORBITAL
    Keyword: BASIS
    atoms 1-2, 8-9   entry C          line   138 file /theoryfs2/ds/metcalf/miniconda2/envs/tf2gpu/share/psi4/basis/cc-pvdz.gbs
    atoms 3-4, 10    entry O          line   198 file /theoryfs2/ds/metcalf/miniconda2/envs/tf2gpu/share/psi4/basis/cc-pvdz.gbs
    atoms 5-7, 12-16 entry H          line    22 file /theoryfs2/ds/metcalf/miniconda2/envs/tf2gpu/share/psi4/basis/cc-pvdz.gbs
    atoms 11         entry N          line   168 file /theoryfs2/ds/metcalf/miniconda2/envs/tf2gpu/share/psi4/basis/cc-pvdz.gbs

         ---------------------------------------------------------
                                   SCF
               by Justin Turney, Rob Parrish, Andy Simmonett
                          and Daniel G. A. Smith
                              RHF Reference
                        1 Threads,    500 MiB Core
         ---------------------------------------------------------

  ==> Geometry <==

    Molecular point group: c1
    Full point group: C1

    Geometry (in Angstrom), charge = -1, multiplicity = 1:

       Center              X                  Y                   Z               Mass
    ------------   -----------------  -----------------  -----------------  -----------------
         C            1.869624377437    -1.230803461300    -2.293080222358    12.000000000000
         C            0.548624377437    -0.460803461300    -2.313080222358    12.000000000000
         O           -0.213375622563    -0.499803461300    -1.317080222358    15.994914619570
         O            0.274624377437     0.207196538700    -3.332080222358    15.994914619570
         H            2.498624377437    -0.909803461300    -3.126080222358     1.007825032230
         H            1.657624377437    -2.292803461300    -2.420080222358     1.007825032230
         H            2.417024377437    -1.098993461300    -1.348101222358     1.007825032230
         C           -0.483375622563     1.373196538700     3.450919777642    12.000000000000
         C           -0.668375622563     0.437196538700     2.287919777642    12.000000000000
         O           -1.699375622563    -0.215803461300     2.157919777642    15.994914619570
         N            0.311624377437     0.389196538700     1.408919777642    14.003074004430
         H            0.136624377437    -0.092803461300     0.526919777642     1.007825032230
         H            1.176624377437     0.880196538700     1.582919777642     1.007825032230
         H            0.563624377437     1.669196538700     3.531919777642     1.007825032230
         H           -0.739375622563     0.827196538700     4.360919777642     1.007825032230
         H           -1.122295622563     2.264656538700     3.366738777642     1.007825032230

  Running in c1 symmetry.

  Rotational constants: A =      0.15872  B =      0.02035  C =      0.01967 [cm^-1]
  Rotational constants: A =   4758.29148  B =    609.98405  C =    589.65238 [MHz]
  Nuclear repulsion =  344.594676114696824

  Charge       = -1
  Multiplicity = 1
  Electrons    = 64
  Nalpha       = 32
  Nbeta        = 32

  ==> Algorithm <==

  SCF Algorithm Type is PK.
  DIIS enabled.
  MOM disabled.
  Fractional occupation disabled.
  Guess Type is SAD.
  Energy threshold   = 1.00e-06
  Density threshold  = 1.00e-10
  Integral threshold = 0.00e+00

  ==> Primary Basis <==

  Basis Set: CC-PVDZ
    Blend: CC-PVDZ
    Number of shells: 72
    Number of basis function: 152
    Number of Cartesian functions: 160
    Spherical Harmonics?: true
    Max angular momentum: 2

  ==> Pre-Iterations <==

   -------------------------------------------------------
    Irrep   Nso     Nmo     Nalpha   Nbeta   Ndocc  Nsocc
   -------------------------------------------------------
     A        152     152       0       0       0       0
   -------------------------------------------------------
    Total     152     152      32      32      32       0
   -------------------------------------------------------

  ==> Integral Setup <==

  Using integral reordering PK algorithm.
  Sizing the integral batches needed.
  Building batch lookup table.
   Calculation information:
      Number of atoms:                  16
      Number of AO shells:              72
      Number of primitives:            216
      Number of atomic orbitals:       160
      Number of basis functions:       152

      Integral cutoff                 1.00e-12
      Number of threads:                 1

	Batch   1 pq = [       0,    9405] index = [             0,44231715] size =     44231715
	Batch   2 pq = [    9405,   11628] index = [      44231715,67611006] size =     23379291
  Task number: 7
  Buffer size: 11059200
  Buffer per thread: 2
  We computed 2445413 shell quartets total.
  Whereas there are 3454506 unique shell quartets.

  ==> DiskJK: Disk-Based J/K Matrices <==

    J tasked:                  Yes
    K tasked:                  Yes
    wK tasked:                  No
    Memory [MiB]:              375
    Schwarz Cutoff:          1E-12

    OpenMP threads:              1

  Minimum eigenvalue in the overlap matrix is 4.4159696901E-03.
  Using Symmetric Orthogonalization.

  SCF Guess: Superposition of Atomic Densities via on-the-fly atomic UHF.

  ==> Iterations <==

                        Total Energy        Delta E     RMS |[F,P]|

   @RHF iter SAD:  -433.49706233736720   -4.33497e+02   0.00000e+00
   @RHF iter   1:  -434.92458432224851   -1.42752e+00   5.47898e-03 DIIS
   @RHF iter   2:  -435.15967473454128   -2.35090e-01   3.28168e-03 DIIS
   @RHF iter   3:  -435.24659232764208   -8.69176e-02   4.99483e-04 DIIS
   @RHF iter   4:  -435.25003451017886   -3.44218e-03   1.91383e-04 DIIS
   @RHF iter   5:  -435.25062243324226   -5.87923e-04   4.03235e-05 DIIS
   @RHF iter   6:  -435.25065228623743   -2.98530e-05   1.97200e-05 DIIS
   @RHF iter   7:  -435.25065907033922   -6.78410e-06   5.66152e-06 DIIS
   @RHF iter   8:  -435.25066018298946   -1.11265e-06   2.42558e-06 DIIS
   @RHF iter   9:  -435.25066036766049   -1.84671e-07   9.30588e-07 DIIS
   @RHF iter  10:  -435.25066039265249   -2.49920e-08   2.03142e-07 DIIS
   @RHF iter  11:  -435.25066039384370   -1.19121e-09   5.84972e-08 DIIS
   @RHF iter  12:  -435.25066039389810   -5.43992e-11   2.74219e-08 DIIS
   @RHF iter  13:  -435.25066039391015   -1.20508e-11   6.95581e-09 DIIS
   @RHF iter  14:  -435.25066039391254   -2.38742e-12   2.21229e-09 DIIS
   @RHF iter  15:  -435.25066039391163    9.09495e-13   7.08367e-10 DIIS
   @RHF iter  16:  -435.25066039391265   -1.02318e-12   2.60478e-10 DIIS
   @RHF iter  17:  -435.25066039391197    6.82121e-13   1.17060e-10 DIIS
   @RHF iter  18:  -435.25066039391237   -3.97904e-13   4.88439e-11 DIIS
  Energy and wave function converged.

  ==> Post-Iterations <==

    Orbital Energies [Eh]
    ---------------------

    Doubly Occupied:

       1A    -20.369957     2A    -20.277112     3A    -20.271458
       4A    -15.437063     5A    -11.215992     6A    -11.136222
       7A    -11.131998     8A    -11.064181     9A     -1.236477
      10A     -1.164373    11A     -1.076143    12A     -1.049570
      13A     -0.889298    14A     -0.808690    15A     -0.661001
      16A     -0.587632    17A     -0.532926    18A     -0.513810
      19A     -0.499579    20A     -0.449133    21A     -0.445280
      22A     -0.422936    23A     -0.419656    24A     -0.413972
      25A     -0.394857    26A     -0.355863    27A     -0.319042
      28A     -0.281008    29A     -0.262831    30A     -0.199480
      31A     -0.185449    32A     -0.176170

    Virtual:

      33A      0.276455    34A      0.309252    35A      0.323528
      36A      0.339828    37A      0.368698    38A      0.389645
      39A      0.393374    40A      0.410691    41A      0.468236
      42A      0.484549    43A      0.519672    44A      0.561928
      45A      0.592858    46A      0.685207    47A      0.694950
      48A      0.731822    49A      0.744768    50A      0.787083
      51A      0.806228    52A      0.820495    53A      0.846688
      54A      0.856958    55A      0.863795    56A      0.888913
      57A      0.945548    58A      0.952771    59A      0.955862
      60A      0.956554    61A      0.997807    62A      1.016623
      63A      1.027680    64A      1.030507    65A      1.045799
      66A      1.059998    67A      1.083023    68A      1.120525
      69A      1.149341    70A      1.158456    71A      1.202905
      72A      1.214084    73A      1.240444    74A      1.271501
      75A      1.332431    76A      1.334395    77A      1.422888
      78A      1.467457    79A      1.487827    80A      1.494837
      81A      1.527475    82A      1.538947    83A      1.552548
      84A      1.566396    85A      1.569000    86A      1.586585
      87A      1.623825    88A      1.634378    89A      1.665301
      90A      1.729214    91A      1.734002    92A      1.760921
      93A      1.781899    94A      1.826726    95A      1.832742
      96A      1.859131    97A      1.966241    98A      1.977585
      99A      1.991909   100A      2.029511   101A      2.031373
     102A      2.051861   103A      2.067134   104A      2.067722
     105A      2.087720   106A      2.110657   107A      2.135199
     108A      2.196216   109A      2.214500   110A      2.227383
     111A      2.233288   112A      2.270665   113A      2.331076
     114A      2.364997   115A      2.396112   116A      2.413954
     117A      2.426685   118A      2.546708   119A      2.559712
     120A      2.577924   121A      2.603558   122A      2.641082
     123A      2.689700   124A      2.712026   125A      2.729062
     126A      2.768251   127A      2.799048   128A      2.848369
     129A      2.895957   130A      2.897087   131A      2.905040
     132A      2.946860   133A      2.965169   134A      3.008802
     135A      3.117209   136A      3.220025   137A      3.239774
     138A      3.263633   139A      3.268378   140A      3.279317
     141A      3.344044   142A      3.450082   143A      3.610768
     144A      3.653781   145A      3.672744   146A      3.760264
     147A      3.808356   148A      4.003099   149A      4.044365
     150A      4.048092   151A      4.093927   152A      4.180084

    Final Occupation by Irrep:
              A
    DOCC [    32 ]

  @RHF Final Energy:  -435.25066039391237

   => Energetics <=

    Nuclear Repulsion Energy =            344.5946761146968242
    One-Electron Energy =               -1291.1923547332048656
    Two-Electron Energy =                 511.3470182245957290
    Total Energy =                       -435.2506603939123693

Computation Completed

Properties will be evaluated at   0.000000,   0.000000,   0.000000 [a0]

Properties computed using the SCF density matrix

  Nuclear Dipole Moment: [e a0]
     X:     6.1677      Y:     1.1653      Z:     6.0542

  Electronic Dipole Moment: [e a0]
     X:    -4.4577      Y:    -0.4205      Z:    -2.6352

  Dipole Moment: [e a0]
     X:     1.7100      Y:     0.7448      Z:     3.4190     Total:     3.8947

  Dipole Moment: [D]
     X:     4.3463      Y:     1.8931      Z:     8.6903     Total:     9.8993

*** tstop() called on ds3 at Tue Apr 28 11:31:28 2020
Module time:
	user time   =      20.57 seconds =       0.34 minutes
	system time =       9.81 seconds =       0.16 minutes
	total time  =         44 seconds =       0.73 minutes
Total time:
	user time   =      20.57 seconds =       0.34 minutes
	system time =       9.81 seconds =       0.16 minutes
	total time  =         44 seconds =       0.73 minutes
                                     G D M A

                                 by Anthony Stone

                           version 2.2.06, 22 June 2011

               Distributed Multipoles from Gaussian wavefunctions

Starting at 11:31:28 on 28 Apr 2020

Using SCF density matrix from file ./SSI/SSI-084ASP-107ASN-1-dimer.test.21998.fchk

                         Distributed Multipole Analysis

Standard DMA

Positions and radii in angstrom
Multipole moments in atomic units, ea_0^k for rank k

C          x =  1.869624  y = -1.230803  z = -2.293080 angstrom
           Maximum rank =  0   Radius =  0.650 angstrom
                   Q00  =  -0.288195

C          x =  0.548624  y = -0.460803  z = -2.313080 angstrom
           Maximum rank =  0   Radius =  0.650 angstrom
                   Q00  =   0.957685

O          x = -0.213376  y = -0.499803  z = -1.317080 angstrom
           Maximum rank =  0   Radius =  0.650 angstrom
                   Q00  =  -0.933558

O          x =  0.274624  y =  0.207197  z = -3.332080 angstrom
           Maximum rank =  0   Radius =  0.650 angstrom
                   Q00  =  -0.906836

H          x =  2.498624  y = -0.909803  z = -3.126080 angstrom
           Maximum rank =  0   Radius =  0.325 angstrom
                   Q00  =   0.059423

H          x =  1.657624  y = -2.292803  z = -2.420080 angstrom
           Maximum rank =  0   Radius =  0.325 angstrom
                   Q00  =   0.082837

H          x =  2.417024  y = -1.098993  z = -1.348101 angstrom
           Maximum rank =  0   Radius =  0.325 angstrom
                   Q00  =   0.057033

C          x = -0.483376  y =  1.373197  z =  3.450920 angstrom
           Maximum rank =  0   Radius =  0.650 angstrom
                   Q00  =  -0.262937

C          x = -0.668376  y =  0.437197  z =  2.287920 angstrom
           Maximum rank =  0   Radius =  0.650 angstrom
                   Q00  =   0.844502

O          x = -1.699376  y = -0.215803  z =  2.157920 angstrom
           Maximum rank =  0   Radius =  0.650 angstrom
                   Q00  =  -0.815356

N          x =  0.311624  y =  0.389197  z =  1.408920 angstrom
           Maximum rank =  0   Radius =  0.650 angstrom
                   Q00  =  -0.550022

H          x =  0.136624  y = -0.092803  z =  0.526920 angstrom
           Maximum rank =  0   Radius =  0.325 angstrom
                   Q00  =   0.301726

H          x =  1.176624  y =  0.880197  z =  1.582920 angstrom
           Maximum rank =  0   Radius =  0.325 angstrom
                   Q00  =   0.173246

H          x =  0.563624  y =  1.669197  z =  3.531920 angstrom
           Maximum rank =  0   Radius =  0.325 angstrom
                   Q00  =   0.058639

H          x = -0.739376  y =  0.827197  z =  4.360920 angstrom
           Maximum rank =  0   Radius =  0.325 angstrom
                   Q00  =   0.100830

H          x = -1.122296  y =  2.264657  z =  3.366739 angstrom
           Maximum rank =  0   Radius =  0.325 angstrom
                   Q00  =   0.120984

Total multipoles referred to origin at
           x =   0.000000,  y =    0.000000,  z =    0.000000 angstrom
                   Q00  =  -1.000000

Finished at 11:31:28 on 28 Apr 2020

  DMA results are available in the Python driver through the
	  variable('DMA DISTRIBUTED MULTIPOLES')
  and
	  variable('DMA TOTAL MULTIPOLES')
  commands.

    Psi4 stopped on: Tuesday, 28 April 2020 11:31AM
    Psi4 wall time for execution: 0:00:44.74

*** Psi4 exiting successfully. Buy a developer a beer!
