                               Psi4 1.3.2 release

  ==> Input File <==

--------------------------------------------------------------------------
import numpy as np
set {scf_type pk
basis cc-pvdz
d_convergence 10
gdma_switch   0
gdma_limit    0
gdma_origin   [ 0.0,  0.0,  0.0 ]
}
molecule test {
    units Angstrom
    0 1
    --
    0 1
    C               -0.091256107921408     2.060062567994742    -2.529553885735814
    C                0.749743892078592     0.599062567994742    -0.535553885735814
    C                0.200743892078592     0.772062567994742    -1.851553885735814
    C                0.866743892078592    -0.793937432005258    -0.309553885735814
    C                0.021743892078592    -0.472937432005258    -2.359553885735814
    C                1.141743892078592     1.477062567994741     0.482446114264186
    C                1.359743892078592    -1.317937432005259     0.878446114264186
    C                1.632743892078592     0.953062567994742     1.672446114264186
    C                1.740743892078592    -0.428937432005258     1.865446114264186
    N                0.415743892078592    -1.415937432005258    -1.441553885735814
    H                1.079743892078592     2.544062567994742     0.343446114264186
    H               -0.440256107921408     1.883062567994741    -3.543553885735814
    H                0.853743892078592     2.596062567994742    -2.569553885735814
    H               -0.365256107921408    -0.685937432005258    -3.351553885735814
    H                0.449743892078592    -2.425937432005258    -1.611553885735814
    H                1.437743892078592    -2.386937432005258     1.022446114264186
    H                1.922743892078592     1.626062567994742     2.468446114264186
    H                2.117743892078592    -0.811937432005258     2.806446114264185
    H               -0.805236107921408     2.699762567994742    -1.990103885735814
    C               -2.624256107921408    -0.135937432005258     0.915446114264186
    C               -2.337256107921408    -1.630937432005258     0.851446114264186
    C               -2.114256107921408     0.466062567994742     2.215446114264186
    H               -2.132256107921408     0.357062567994742     0.078446114264186
    H               -3.698256107921408     0.044062567994742     0.848446114264186
    H               -2.695256107921408    -2.132937432005258     1.748446114264186
    H               -1.264256107921408    -1.784937432005259     0.823446114264186
    H               -1.035256107921408     0.309062567994742     2.274446114264186
    H               -2.313256107921408     1.537062567994741     2.201446114264186
    H               -2.794576107921408    -2.112067432005258    -0.025693885735814
    H               -2.606256107921408     0.001062567994742     3.082456114264186

}
e, wfn = energy('scf', return_wfn=True)
gdma(wfn)
dmavals = variable('DMA DISTRIBUTED MULTIPOLES')
charges = np.array(dmavals)
print(charges)
np.save('SSI-075TRP-176ARG-1-dimer.npy', np.array(charges))--------------------------------------------------------------------------

*** tstart() called on ds3
*** at Tue Apr 28 08:00:21 2020

   => Loading Basis Set <=

    Name: CC-PVDZ
    Role: ORBITAL
    Keyword: BASIS
    atoms 1-9, 20-22   entry C          line   138 file /theoryfs2/ds/metcalf/miniconda2/envs/tf2gpu/share/psi4/basis/cc-pvdz.gbs
    atoms 10           entry N          line   168 file /theoryfs2/ds/metcalf/miniconda2/envs/tf2gpu/share/psi4/basis/cc-pvdz.gbs
    atoms 11-19, 23-30 entry H          line    22 file /theoryfs2/ds/metcalf/miniconda2/envs/tf2gpu/share/psi4/basis/cc-pvdz.gbs

         ---------------------------------------------------------
                                   SCF
               by Justin Turney, Rob Parrish, Andy Simmonett
                          and Daniel G. A. Smith
                              RHF Reference
                        1 Threads,    500 MiB Core
         ---------------------------------------------------------

  ==> Geometry <==

    Molecular point group: c1
    Full point group: C1

    Geometry (in Angstrom), charge = 0, multiplicity = 1:

       Center              X                  Y                   Z               Mass
    ------------   -----------------  -----------------  -----------------  -----------------
         C           -0.091256107921     2.060062567995    -2.529553885736    12.000000000000
         C            0.749743892079     0.599062567995    -0.535553885736    12.000000000000
         C            0.200743892079     0.772062567995    -1.851553885736    12.000000000000
         C            0.866743892079    -0.793937432005    -0.309553885736    12.000000000000
         C            0.021743892079    -0.472937432005    -2.359553885736    12.000000000000
         C            1.141743892079     1.477062567995     0.482446114264    12.000000000000
         C            1.359743892079    -1.317937432005     0.878446114264    12.000000000000
         C            1.632743892079     0.953062567995     1.672446114264    12.000000000000
         C            1.740743892079    -0.428937432005     1.865446114264    12.000000000000
         N            0.415743892079    -1.415937432005    -1.441553885736    14.003074004430
         H            1.079743892079     2.544062567995     0.343446114264     1.007825032230
         H           -0.440256107921     1.883062567995    -3.543553885736     1.007825032230
         H            0.853743892079     2.596062567995    -2.569553885736     1.007825032230
         H           -0.365256107921    -0.685937432005    -3.351553885736     1.007825032230
         H            0.449743892079    -2.425937432005    -1.611553885736     1.007825032230
         H            1.437743892079    -2.386937432005     1.022446114264     1.007825032230
         H            1.922743892079     1.626062567995     2.468446114264     1.007825032230
         H            2.117743892079    -0.811937432005     2.806446114264     1.007825032230
         H           -0.805236107921     2.699762567995    -1.990103885736     1.007825032230
         C           -2.624256107921    -0.135937432005     0.915446114264    12.000000000000
         C           -2.337256107921    -1.630937432005     0.851446114264    12.000000000000
         C           -2.114256107921     0.466062567995     2.215446114264    12.000000000000
         H           -2.132256107921     0.357062567995     0.078446114264     1.007825032230
         H           -3.698256107921     0.044062567995     0.848446114264     1.007825032230
         H           -2.695256107921    -2.132937432005     1.748446114264     1.007825032230
         H           -1.264256107921    -1.784937432005     0.823446114264     1.007825032230
         H           -1.035256107921     0.309062567995     2.274446114264     1.007825032230
         H           -2.313256107921     1.537062567995     2.201446114264     1.007825032230
         H           -2.794576107921    -2.112067432005    -0.025693885736     1.007825032230
         H           -2.606256107921     0.001062567995     3.082456114264     1.007825032230

  Running in c1 symmetry.

  Rotational constants: A =      0.02816  B =      0.02306  C =      0.01941 [cm^-1]
  Rotational constants: A =    844.27782  B =    691.40228  C =    581.90622 [MHz]
  Nuclear repulsion =  791.926169494901615

  Charge       = 0
  Multiplicity = 1
  Electrons    = 96
  Nalpha       = 48
  Nbeta        = 48

  ==> Algorithm <==

  SCF Algorithm Type is PK.
  DIIS enabled.
  MOM disabled.
  Fractional occupation disabled.
  Guess Type is SAD.
  Energy threshold   = 1.00e-06
  Density threshold  = 1.00e-10
  Integral threshold = 0.00e+00

  ==> Primary Basis <==

  Basis Set: CC-PVDZ
    Blend: CC-PVDZ
    Number of shells: 129
    Number of basis function: 267
    Number of Cartesian functions: 280
    Spherical Harmonics?: true
    Max angular momentum: 2

  ==> Pre-Iterations <==

   -------------------------------------------------------
    Irrep   Nso     Nmo     Nalpha   Nbeta   Ndocc  Nsocc
   -------------------------------------------------------
     A        267     267       0       0       0       0
   -------------------------------------------------------
    Total     267     267      48      48      48       0
   -------------------------------------------------------

  ==> Integral Setup <==

  Using integral reordering PK algorithm.
  Sizing the integral batches needed.
  Building batch lookup table.
   Calculation information:
      Number of atoms:                  30
      Number of AO shells:             129
      Number of primitives:            371
      Number of atomic orbitals:       280
      Number of basis functions:       267

      Integral cutoff                 1.00e-12
      Number of threads:                 1

	Batch   1 pq = [       0,    9405] index = [             0,44231715] size =     44231715
	Batch   2 pq = [    9405,   13301] index = [      44231715,88464951] size =     44233236
	Batch   3 pq = [   13301,   16290] index = [      88464951,132690195] size =     44225244
	Batch   4 pq = [   16290,   18810] index = [     132690195,176917455] size =     44227260
	Batch   5 pq = [   18810,   21030] index = [     176917455,221140965] size =     44223510
	Batch   6 pq = [   21030,   23037] index = [     221140965,265363203] size =     44222238
	Batch   7 pq = [   23037,   24883] index = [     265363203,309594286] size =     44231083
	Batch   8 pq = [   24883,   26601] index = [     309594286,353819901] size =     44225615
	Batch   9 pq = [   26601,   28214] index = [     353819901,398029005] size =     44209104
	Batch  10 pq = [   28214,   29740] index = [     398029005,442248670] size =     44219665
	Batch  11 pq = [   29740,   31191] index = [     442248670,486454836] size =     44206166
	Batch  12 pq = [   31191,   32578] index = [     486454836,530679331] size =     44224495
	Batch  13 pq = [   32578,   33908] index = [     530679331,574893186] size =     44213855
	Batch  14 pq = [   33908,   35188] index = [     574893186,619115266] size =     44222080
	Batch  15 pq = [   35188,   35778] index = [     619115266,640050531] size =     20935265
  Task number: 58
  Buffer size: 11059200
  Buffer per thread: 2
  We computed 44009286 shell quartets total.
  Whereas there are 35158305 unique shell quartets.
    25.17 percent of shell quartets recomputed by reordering.

  ==> DiskJK: Disk-Based J/K Matrices <==

    J tasked:                  Yes
    K tasked:                  Yes
    wK tasked:                  No
    Memory [MiB]:              375
    Schwarz Cutoff:          1E-12

    OpenMP threads:              1

  Minimum eigenvalue in the overlap matrix is 2.3057904126E-04.
  Using Symmetric Orthogonalization.

  SCF Guess: Superposition of Atomic Densities via on-the-fly atomic UHF.

  ==> Iterations <==

                        Total Energy        Delta E     RMS |[F,P]|

   @RHF iter SAD:  -518.19306593883630   -5.18193e+02   0.00000e+00
   @RHF iter   1:  -518.48756752401209   -2.94502e-01   2.52723e-03 DIIS
   @RHF iter   2:  -518.74744146275020   -2.59874e-01   1.15409e-03 DIIS
   @RHF iter   3:  -518.79722224202601   -4.97808e-02   2.91666e-04 DIIS
   @RHF iter   4:  -518.80152287506496   -4.30063e-03   1.30730e-04 DIIS
   @RHF iter   5:  -518.80220886840084   -6.85993e-04   2.06286e-05 DIIS
   @RHF iter   6:  -518.80224228914619   -3.34207e-05   9.00780e-06 DIIS
   @RHF iter   7:  -518.80224912341373   -6.83427e-06   3.52441e-06 DIIS
   @RHF iter   8:  -518.80225075919930   -1.63579e-06   1.48979e-06 DIIS
   @RHF iter   9:  -518.80225111473328   -3.55534e-07   6.37243e-07 DIIS
   @RHF iter  10:  -518.80225118540864   -7.06754e-08   2.78380e-07 DIIS
   @RHF iter  11:  -518.80225120251725   -1.71086e-08   1.15625e-07 DIIS
   @RHF iter  12:  -518.80225120518708   -2.66982e-09   4.18522e-08 DIIS
   @RHF iter  13:  -518.80225120542207   -2.34991e-10   1.19234e-08 DIIS
   @RHF iter  14:  -518.80225120543798   -1.59162e-11   5.03431e-09 DIIS
   @RHF iter  15:  -518.80225120543832   -3.41061e-13   1.81792e-09 DIIS
   @RHF iter  16:  -518.80225120544526   -6.93490e-12   9.13677e-10 DIIS
   @RHF iter  17:  -518.80225120544469    5.68434e-13   4.47342e-10 DIIS
   @RHF iter  18:  -518.80225120544242    2.27374e-12   1.80395e-10 DIIS
   @RHF iter  19:  -518.80225120544367   -1.25056e-12   7.05652e-11 DIIS
  Energy and wave function converged.

  ==> Post-Iterations <==

    Orbital Energies [Eh]
    ---------------------

    Doubly Occupied:

       1A    -15.603062     2A    -11.265297     3A    -11.265109
       4A    -11.232749     5A    -11.232545     6A    -11.231163
       7A    -11.226563     8A    -11.222671     9A    -11.221952
      10A    -11.218089    11A    -11.202667    12A    -11.200054
      13A    -11.197623    14A     -1.297873    15A     -1.132047
      16A     -1.077906    17A     -1.041205    18A     -1.000651
      19A     -0.991043    20A     -0.934117    21A     -0.909047
      22A     -0.841843    23A     -0.805671    24A     -0.782102
      25A     -0.755198    26A     -0.720642    27A     -0.665453
      28A     -0.644442    29A     -0.619885    30A     -0.605574
      31A     -0.593496    32A     -0.589061    33A     -0.582315
      34A     -0.571379    35A     -0.553863    36A     -0.539405
      37A     -0.534923    38A     -0.531504    39A     -0.515294
      40A     -0.497608    41A     -0.474036    42A     -0.470120
      43A     -0.458371    44A     -0.454705    45A     -0.447118
      46A     -0.372167    47A     -0.297721    48A     -0.278944

    Virtual:

      49A      0.122865    50A      0.166120    51A      0.174766
      52A      0.181209    53A      0.199970    54A      0.206704
      55A      0.222126    56A      0.226668    57A      0.231389
      58A      0.249637    59A      0.250726    60A      0.263356
      61A      0.269822    62A      0.275816    63A      0.278748
      64A      0.284613    65A      0.303014    66A      0.308773
      67A      0.326995    68A      0.356032    69A      0.373798
      70A      0.384160    71A      0.387541    72A      0.412835
      73A      0.421089    74A      0.440009    75A      0.447286
      76A      0.472384    77A      0.485691    78A      0.499568
      79A      0.520524    80A      0.579766    81A      0.588772
      82A      0.597782    83A      0.604032    84A      0.619780
      85A      0.629844    86A      0.632987    87A      0.642250
      88A      0.658221    89A      0.666915    90A      0.697443
      91A      0.714233    92A      0.728126    93A      0.730971
      94A      0.736524    95A      0.749376    96A      0.764322
      97A      0.769304    98A      0.777881    99A      0.794160
     100A      0.800834   101A      0.809051   102A      0.819519
     103A      0.838798   104A      0.854729   105A      0.863385
     106A      0.868213   107A      0.872277   108A      0.876886
     109A      0.882415   110A      0.890848   111A      0.893549
     112A      0.896784   113A      0.909678   114A      0.918204
     115A      0.922813   116A      0.930661   117A      0.943042
     118A      0.950063   119A      0.954295   120A      0.956199
     121A      0.961759   122A      0.970597   123A      0.984932
     124A      0.997706   125A      1.012943   126A      1.022334
     127A      1.050636   128A      1.067871   129A      1.081269
     130A      1.101945   131A      1.114076   132A      1.130827
     133A      1.138307   134A      1.142621   135A      1.152760
     136A      1.165862   137A      1.191727   138A      1.208428
     139A      1.217815   140A      1.228586   141A      1.240378
     142A      1.245210   143A      1.255546   144A      1.283172
     145A      1.290401   146A      1.306895   147A      1.324191
     148A      1.336363   149A      1.357080   150A      1.374237
     151A      1.378032   152A      1.398433   153A      1.404194
     154A      1.445799   155A      1.492340   156A      1.511049
     157A      1.539869   158A      1.554481   159A      1.571103
     160A      1.579882   161A      1.598244   162A      1.636244
     163A      1.645167   164A      1.652906   165A      1.656529
     166A      1.685014   167A      1.694183   168A      1.700005
     169A      1.717747   170A      1.743027   171A      1.762188
     172A      1.776603   173A      1.779771   174A      1.800666
     175A      1.814317   176A      1.827393   177A      1.836867
     178A      1.868194   179A      1.879219   180A      1.886234
     181A      1.891836   182A      1.904335   183A      1.920512
     184A      1.925569   185A      1.934239   186A      1.938609
     187A      1.944028   188A      1.954774   189A      1.956336
     190A      1.970588   191A      1.978355   192A      1.983511
     193A      1.993333   194A      1.994778   195A      2.013519
     196A      2.020708   197A      2.023369   198A      2.031934
     199A      2.035945   200A      2.046817   201A      2.059888
     202A      2.083402   203A      2.089458   204A      2.098857
     205A      2.112278   206A      2.121312   207A      2.125865
     208A      2.132415   209A      2.150340   210A      2.156570
     211A      2.161838   212A      2.174792   213A      2.183646
     214A      2.192840   215A      2.228573   216A      2.232800
     217A      2.292962   218A      2.301312   219A      2.315459
     220A      2.318587   221A      2.331001   222A      2.335135
     223A      2.348536   224A      2.357861   225A      2.393927
     226A      2.409434   227A      2.443927   228A      2.451273
     229A      2.471274   230A      2.521677   231A      2.544745
     232A      2.557371   233A      2.585473   234A      2.612082
     235A      2.617446   236A      2.646195   237A      2.650949
     238A      2.657470   239A      2.671359   240A      2.687258
     241A      2.701735   242A      2.766534   243A      2.777185
     244A      2.781577   245A      2.785215   246A      2.802915
     247A      2.818048   248A      2.831071   249A      2.849440
     250A      2.857377   251A      2.874229   252A      2.887885
     253A      2.919442   254A      2.954354   255A      2.974227
     256A      3.013844   257A      3.022165   258A      3.050097
     259A      3.070338   260A      3.084011   261A      3.113843
     262A      3.141374   263A      3.214172   264A      3.315878
     265A      3.382899   266A      3.742431   267A      3.958820

    Final Occupation by Irrep:
              A
    DOCC [    48 ]

  @RHF Final Energy:  -518.80225120544367

   => Energetics <=

    Nuclear Repulsion Energy =            791.9261694949016146
    One-Electron Energy =               -2273.6442916059768322
    Two-Electron Energy =                 962.9158709056315502
    Total Energy =                       -518.8022512054436675

Computation Completed

Properties will be evaluated at   0.000000,   0.000000,   0.000000 [a0]

Properties computed using the SCF density matrix

  Nuclear Dipole Moment: [e a0]
     X:   -11.5214      Y:     1.1822      Z:     4.3221

  Electronic Dipole Moment: [e a0]
     X:    11.5599      Y:    -1.7088      Z:    -4.9093

  Dipole Moment: [e a0]
     X:     0.0385      Y:    -0.5266      Z:    -0.5873     Total:     0.7898

  Dipole Moment: [D]
     X:     0.0979      Y:    -1.3386      Z:    -1.4927     Total:     2.0074

*** tstop() called on ds3 at Tue Apr 28 08:11:26 2020
Module time:
	user time   =     340.29 seconds =       5.67 minutes
	system time =      99.64 seconds =       1.66 minutes
	total time  =        665 seconds =      11.08 minutes
Total time:
	user time   =     340.29 seconds =       5.67 minutes
	system time =      99.64 seconds =       1.66 minutes
	total time  =        665 seconds =      11.08 minutes
                                     G D M A

                                 by Anthony Stone

                           version 2.2.06, 22 June 2011

               Distributed Multipoles from Gaussian wavefunctions

Starting at 8:11:26 on 28 Apr 2020

Using SCF density matrix from file ./SSI/SSI-075TRP-176ARG-1-dimer.test.8493.fchk

                         Distributed Multipole Analysis

Standard DMA

Positions and radii in angstrom
Multipole moments in atomic units, ea_0^k for rank k

C          x = -0.091256  y =  2.060063  z = -2.529554 angstrom
           Maximum rank =  0   Radius =  0.650 angstrom
                   Q00  =  -0.200869

C          x =  0.749744  y =  0.599063  z = -0.535554 angstrom
           Maximum rank =  0   Radius =  0.650 angstrom
                   Q00  =  -0.055824

C          x =  0.200744  y =  0.772063  z = -1.851554 angstrom
           Maximum rank =  0   Radius =  0.650 angstrom
                   Q00  =  -0.120736

C          x =  0.866744  y = -0.793937  z = -0.309554 angstrom
           Maximum rank =  0   Radius =  0.650 angstrom
                   Q00  =   0.302145

C          x =  0.021744  y = -0.472937  z = -2.359554 angstrom
           Maximum rank =  0   Radius =  0.650 angstrom
                   Q00  =   0.071907

C          x =  1.141744  y =  1.477063  z =  0.482446 angstrom
           Maximum rank =  0   Radius =  0.650 angstrom
                   Q00  =  -0.091212

C          x =  1.359744  y = -1.317937  z =  0.878446 angstrom
           Maximum rank =  0   Radius =  0.650 angstrom
                   Q00  =  -0.124110

C          x =  1.632744  y =  0.953063  z =  1.672446 angstrom
           Maximum rank =  0   Radius =  0.650 angstrom
                   Q00  =  -0.091153

C          x =  1.740744  y = -0.428937  z =  1.865446 angstrom
           Maximum rank =  0   Radius =  0.650 angstrom
                   Q00  =  -0.070897

N          x =  0.415744  y = -1.415937  z = -1.441554 angstrom
           Maximum rank =  0   Radius =  0.650 angstrom
                   Q00  =  -0.498005

H          x =  1.079744  y =  2.544063  z =  0.343446 angstrom
           Maximum rank =  0   Radius =  0.325 angstrom
                   Q00  =   0.070278

H          x = -0.440256  y =  1.883063  z = -3.543554 angstrom
           Maximum rank =  0   Radius =  0.325 angstrom
                   Q00  =   0.106708

H          x =  0.853744  y =  2.596063  z = -2.569554 angstrom
           Maximum rank =  0   Radius =  0.325 angstrom
                   Q00  =   0.095217

H          x = -0.365256  y = -0.685937  z = -3.351554 angstrom
           Maximum rank =  0   Radius =  0.325 angstrom
                   Q00  =   0.102473

H          x =  0.449744  y = -2.425937  z = -1.611554 angstrom
           Maximum rank =  0   Radius =  0.325 angstrom
                   Q00  =   0.220279

H          x =  1.437744  y = -2.386937  z =  1.022446 angstrom
           Maximum rank =  0   Radius =  0.325 angstrom
                   Q00  =   0.073192

H          x =  1.922744  y =  1.626063  z =  2.468446 angstrom
           Maximum rank =  0   Radius =  0.325 angstrom
                   Q00  =   0.061293

H          x =  2.117744  y = -0.811937  z =  2.806446 angstrom
           Maximum rank =  0   Radius =  0.325 angstrom
                   Q00  =   0.065900

H          x = -0.805236  y =  2.699763  z = -1.990104 angstrom
           Maximum rank =  0   Radius =  0.325 angstrom
                   Q00  =   0.095824

C          x = -2.624256  y = -0.135937  z =  0.915446 angstrom
           Maximum rank =  0   Radius =  0.650 angstrom
                   Q00  =  -0.065157

C          x = -2.337256  y = -1.630937  z =  0.851446 angstrom
           Maximum rank =  0   Radius =  0.650 angstrom
                   Q00  =  -0.245282

C          x = -2.114256  y =  0.466063  z =  2.215446 angstrom
           Maximum rank =  0   Radius =  0.650 angstrom
                   Q00  =  -0.259865

H          x = -2.132256  y =  0.357063  z =  0.078446 angstrom
           Maximum rank =  0   Radius =  0.325 angstrom
                   Q00  =   0.059394

H          x = -3.698256  y =  0.044063  z =  0.848446 angstrom
           Maximum rank =  0   Radius =  0.325 angstrom
                   Q00  =   0.036580

H          x = -2.695256  y = -2.132937  z =  1.748446 angstrom
           Maximum rank =  0   Radius =  0.325 angstrom
                   Q00  =   0.066486

H          x = -1.264256  y = -1.784937  z =  0.823446 angstrom
           Maximum rank =  0   Radius =  0.325 angstrom
                   Q00  =   0.084787

H          x = -1.035256  y =  0.309063  z =  2.274446 angstrom
           Maximum rank =  0   Radius =  0.325 angstrom
                   Q00  =   0.097804

H          x = -2.313256  y =  1.537063  z =  2.201446 angstrom
           Maximum rank =  0   Radius =  0.325 angstrom
                   Q00  =   0.074593

H          x = -2.794576  y = -2.112067  z = -0.025694 angstrom
           Maximum rank =  0   Radius =  0.325 angstrom
                   Q00  =   0.071818

H          x = -2.606256  y =  0.001063  z =  3.082456 angstrom
           Maximum rank =  0   Radius =  0.325 angstrom
                   Q00  =   0.066433

Total multipoles referred to origin at
           x =   0.000000,  y =    0.000000,  z =    0.000000 angstrom
                   Q00  =  -0.000000

Finished at 8:11:26 on 28 Apr 2020

  DMA results are available in the Python driver through the
	  variable('DMA DISTRIBUTED MULTIPOLES')
  and
	  variable('DMA TOTAL MULTIPOLES')
  commands.

    Psi4 stopped on: Tuesday, 28 April 2020 08:11AM
    Psi4 wall time for execution: 0:11:04.88

*** Psi4 exiting successfully. Buy a developer a beer!
