                               Psi4 1.3.2 release

  ==> Input File <==

--------------------------------------------------------------------------
import numpy as np
set {scf_type pk
basis cc-pvdz
d_convergence 10
gdma_switch   0
gdma_limit    0
gdma_origin   [ 0.0,  0.0,  0.0 ]
}
molecule test {
    units Angstrom
    0 1
    --
    0 1
    C                1.155065152378073    -0.583800529646475     1.079773608504205
    C                1.196065152378073    -0.407800529646475    -0.436226391495795
    O                0.143065152378073    -0.060800529646475    -1.010226391495795
    O                2.254065152378073    -0.629800529646475    -1.066226391495795
    H                0.509065152378073    -1.433800529646475     1.304773608504205
    H                0.702065152378073     0.303199470353525     1.525773608504205
    H                2.135705152378073    -0.747710529646475     1.550393608504205
    C               -2.202934847621927     1.533199470353525     0.929773608504205
    N               -2.166934847621927     0.102199470353525     0.416773608504205
    H               -2.929934847621926    -0.089800529646475    -0.221226391495795
    H               -1.300934847621927    -0.074800529646475    -0.093226391495795
    H               -2.213934847621926    -0.545800529646475     1.203773608504205
    H               -1.825934847621927     2.210199470353525     0.155773608504205
    H               -1.552934847621927     1.626199470353525     1.807773608504205
    H               -3.223744847621927     1.843939470353525     1.196943608504205

}
e, wfn = energy('scf', return_wfn=True)
gdma(wfn)
dmavals = variable('DMA DISTRIBUTED MULTIPOLES')
charges = np.array(dmavals)
print(charges)
np.save('SSI-023GLU-046LYS-1-dimer.npy', np.array(charges))--------------------------------------------------------------------------

*** tstart() called on ds3
*** at Tue Apr 28 14:48:12 2020

   => Loading Basis Set <=

    Name: CC-PVDZ
    Role: ORBITAL
    Keyword: BASIS
    atoms 1-2, 8     entry C          line   138 file /theoryfs2/ds/metcalf/miniconda2/envs/tf2gpu/share/psi4/basis/cc-pvdz.gbs
    atoms 3-4        entry O          line   198 file /theoryfs2/ds/metcalf/miniconda2/envs/tf2gpu/share/psi4/basis/cc-pvdz.gbs
    atoms 5-7, 10-15 entry H          line    22 file /theoryfs2/ds/metcalf/miniconda2/envs/tf2gpu/share/psi4/basis/cc-pvdz.gbs
    atoms 9          entry N          line   168 file /theoryfs2/ds/metcalf/miniconda2/envs/tf2gpu/share/psi4/basis/cc-pvdz.gbs

         ---------------------------------------------------------
                                   SCF
               by Justin Turney, Rob Parrish, Andy Simmonett
                          and Daniel G. A. Smith
                              RHF Reference
                        1 Threads,    500 MiB Core
         ---------------------------------------------------------

  ==> Geometry <==

    Molecular point group: c1
    Full point group: C1

    Geometry (in Angstrom), charge = 0, multiplicity = 1:

       Center              X                  Y                   Z               Mass
    ------------   -----------------  -----------------  -----------------  -----------------
         C            1.155065152378    -0.583800529646     1.079773608504    12.000000000000
         C            1.196065152378    -0.407800529646    -0.436226391496    12.000000000000
         O            0.143065152378    -0.060800529646    -1.010226391496    15.994914619570
         O            2.254065152378    -0.629800529646    -1.066226391496    15.994914619570
         H            0.509065152378    -1.433800529646     1.304773608504     1.007825032230
         H            0.702065152378     0.303199470354     1.525773608504     1.007825032230
         H            2.135705152378    -0.747710529646     1.550393608504     1.007825032230
         C           -2.202934847622     1.533199470354     0.929773608504    12.000000000000
         N           -2.166934847622     0.102199470354     0.416773608504    14.003074004430
         H           -2.929934847622    -0.089800529646    -0.221226391496     1.007825032230
         H           -1.300934847622    -0.074800529646    -0.093226391496     1.007825032230
         H           -2.213934847622    -0.545800529646     1.203773608504     1.007825032230
         H           -1.825934847622     2.210199470354     0.155773608504     1.007825032230
         H           -1.552934847622     1.626199470354     1.807773608504     1.007825032230
         H           -3.223744847622     1.843939470354     1.196943608504     1.007825032230

  Running in c1 symmetry.

  Rotational constants: A =      0.22950  B =      0.04761  C =      0.04363 [cm^-1]
  Rotational constants: A =   6880.17767  B =   1427.44435  C =   1308.05142 [MHz]
  Nuclear repulsion =  243.462314073004308

  Charge       = 0
  Multiplicity = 1
  Electrons    = 50
  Nalpha       = 25
  Nbeta        = 25

  ==> Algorithm <==

  SCF Algorithm Type is PK.
  DIIS enabled.
  MOM disabled.
  Fractional occupation disabled.
  Guess Type is SAD.
  Energy threshold   = 1.00e-06
  Density threshold  = 1.00e-10
  Integral threshold = 0.00e+00

  ==> Primary Basis <==

  Basis Set: CC-PVDZ
    Blend: CC-PVDZ
    Number of shells: 63
    Number of basis function: 129
    Number of Cartesian functions: 135
    Spherical Harmonics?: true
    Max angular momentum: 2

  ==> Pre-Iterations <==

   -------------------------------------------------------
    Irrep   Nso     Nmo     Nalpha   Nbeta   Ndocc  Nsocc
   -------------------------------------------------------
     A        129     129       0       0       0       0
   -------------------------------------------------------
    Total     129     129      25      25      25       0
   -------------------------------------------------------

  ==> Integral Setup <==

  Using integral reordering PK algorithm.
  Sizing the integral batches needed.
  Building batch lookup table.
   Calculation information:
      Number of atoms:                  15
      Number of AO shells:              63
      Number of primitives:            177
      Number of atomic orbitals:       135
      Number of basis functions:       129

      Integral cutoff                 1.00e-12
      Number of threads:                 1

	Batch   1 pq = [       0,    8385] index = [             0,35158305] size =     35158305
  Task number: 4
  Buffer size: 11059200
  Buffer per thread: 2
  We computed 1906013 shell quartets total.
  Whereas there are 2033136 unique shell quartets.

  ==> DiskJK: Disk-Based J/K Matrices <==

    J tasked:                  Yes
    K tasked:                  Yes
    wK tasked:                  No
    Memory [MiB]:              375
    Schwarz Cutoff:          1E-12

    OpenMP threads:              1

  Minimum eigenvalue in the overlap matrix is 5.3976777942E-03.
  Using Symmetric Orthogonalization.

  SCF Guess: Superposition of Atomic Densities via on-the-fly atomic UHF.

  ==> Iterations <==

                        Total Energy        Delta E     RMS |[F,P]|

   @RHF iter SAD:  -321.71720240539315   -3.21717e+02   0.00000e+00
   @RHF iter   1:  -322.76771000098165   -1.05051e+00   5.25842e-03 DIIS
   @RHF iter   2:  -322.94088384649916   -1.73174e-01   3.03094e-03 DIIS
   @RHF iter   3:  -322.99479768458559   -5.39138e-02   5.09013e-04 DIIS
   @RHF iter   4:  -322.99757508611896   -2.77740e-03   1.85014e-04 DIIS
   @RHF iter   5:  -322.99793819932972   -3.63113e-04   4.32824e-05 DIIS
   @RHF iter   6:  -322.99796141422439   -2.32149e-05   2.20163e-05 DIIS
   @RHF iter   7:  -322.99796662107531   -5.20685e-06   5.57428e-06 DIIS
   @RHF iter   8:  -322.99796753359732   -9.12522e-07   2.43257e-06 DIIS
   @RHF iter   9:  -322.99796770153216   -1.67935e-07   6.27353e-07 DIIS
   @RHF iter  10:  -322.99796771039837   -8.86621e-09   2.05739e-07 DIIS
   @RHF iter  11:  -322.99796771104457   -6.46196e-10   4.27237e-08 DIIS
   @RHF iter  12:  -322.99796771107862   -3.40492e-11   1.09107e-08 DIIS
   @RHF iter  13:  -322.99796771108015   -1.53477e-12   3.51761e-09 DIIS
   @RHF iter  14:  -322.99796771107987    2.84217e-13   1.20655e-09 DIIS
   @RHF iter  15:  -322.99796771108106   -1.19371e-12   3.63406e-10 DIIS
   @RHF iter  16:  -322.99796771108180   -7.38964e-13   1.71473e-10 DIIS
   @RHF iter  17:  -322.99796771108180    0.00000e+00   4.91374e-11 DIIS
  Energy and wave function converged.

  ==> Post-Iterations <==

    Orbital Energies [Eh]
    ---------------------

    Doubly Occupied:

       1A    -20.439375     2A    -20.407966     3A    -15.731393
       4A    -11.355039     5A    -11.274264     6A    -11.201569
       7A     -1.351175     8A     -1.315303     9A     -1.196108
      10A     -1.019177    11A     -0.949066    12A     -0.817376
      13A     -0.808167    14A     -0.703103    15A     -0.659352
      16A     -0.631916    17A     -0.624876    18A     -0.566147
      19A     -0.564505    20A     -0.556456    21A     -0.496613
      22A     -0.465021    23A     -0.355105    24A     -0.323023
      25A     -0.320943

    Virtual:

      26A      0.093033    27A      0.147229    28A      0.150838
      29A      0.199426    30A      0.207912    31A      0.236595
      32A      0.253738    33A      0.279827    34A      0.301590
      35A      0.341876    36A      0.368781    37A      0.437204
      38A      0.505890    39A      0.522472    40A      0.565050
      41A      0.567293    42A      0.603426    43A      0.632227
      44A      0.668343    45A      0.690033    46A      0.765008
      47A      0.777037    48A      0.791785    49A      0.797004
      50A      0.816030    51A      0.827915    52A      0.853265
      53A      0.878410    54A      0.893636    55A      0.915946
      56A      0.918383    57A      0.937172    58A      0.977052
      59A      0.989642    60A      1.000329    61A      1.061915
      62A      1.096607    63A      1.111425    64A      1.178028
      65A      1.194795    66A      1.219670    67A      1.323224
      68A      1.364399    69A      1.406871    70A      1.424100
      71A      1.430796    72A      1.446306    73A      1.503932
      74A      1.537838    75A      1.573252    76A      1.598276
      77A      1.633050    78A      1.666583    79A      1.697926
      80A      1.705942    81A      1.771879    82A      1.819774
      83A      1.826328    84A      1.843408    85A      1.854849
      86A      1.887814    87A      1.908814    88A      1.944832
      89A      1.959265    90A      1.988634    91A      2.062618
      92A      2.067703    93A      2.073568    94A      2.122869
      95A      2.133154    96A      2.139928    97A      2.144939
      98A      2.227249    99A      2.264111   100A      2.291216
     101A      2.320123   102A      2.378101   103A      2.396746
     104A      2.431888   105A      2.501870   106A      2.525809
     107A      2.594113   108A      2.633776   109A      2.649212
     110A      2.660684   111A      2.700998   112A      2.774800
     113A      2.828647   114A      2.832381   115A      2.856255
     116A      2.891259   117A      2.911539   118A      3.085784
     119A      3.116015   120A      3.138478   121A      3.185978
     122A      3.244657   123A      3.445160   124A      3.514224
     125A      3.619407   126A      3.665439   127A      3.911705
     128A      3.957408   129A      4.046058

    Final Occupation by Irrep:
              A
    DOCC [    25 ]

  @RHF Final Energy:  -322.99796771108180

   => Energetics <=

    Nuclear Repulsion Energy =            243.4623140730043076
    One-Electron Energy =                -924.6544867631419038
    Two-Electron Energy =                 358.1942049790557689
    Total Energy =                       -322.9979677110817988

Computation Completed

Properties will be evaluated at   0.000000,   0.000000,   0.000000 [a0]

Properties computed using the SCF density matrix

  Nuclear Dipole Moment: [e a0]
     X:    -9.0762      Y:     2.8947      Z:     7.8924

  Electronic Dipole Moment: [e a0]
     X:     4.0205      Y:    -1.9524      Z:    -5.0952

  Dipole Moment: [e a0]
     X:    -5.0557      Y:     0.9423      Z:     2.7972     Total:     5.8543

  Dipole Moment: [D]
     X:   -12.8504      Y:     2.3950      Z:     7.1097     Total:    14.8801

*** tstop() called on ds3 at Tue Apr 28 14:48:40 2020
Module time:
	user time   =      13.63 seconds =       0.23 minutes
	system time =       4.79 seconds =       0.08 minutes
	total time  =         28 seconds =       0.47 minutes
Total time:
	user time   =      13.63 seconds =       0.23 minutes
	system time =       4.79 seconds =       0.08 minutes
	total time  =         28 seconds =       0.47 minutes
                                     G D M A

                                 by Anthony Stone

                           version 2.2.06, 22 June 2011

               Distributed Multipoles from Gaussian wavefunctions

Starting at 14:48:40 on 28 Apr 2020

Using SCF density matrix from file ./SSI/SSI-023GLU-046LYS-1-dimer.test.13954.fchk

                         Distributed Multipole Analysis

Standard DMA

Positions and radii in angstrom
Multipole moments in atomic units, ea_0^k for rank k

C          x =  1.155065  y = -0.583801  z =  1.079774 angstrom
           Maximum rank =  0   Radius =  0.650 angstrom
                   Q00  =  -0.284502

C          x =  1.196065  y = -0.407801  z = -0.436226 angstrom
           Maximum rank =  0   Radius =  0.650 angstrom
                   Q00  =   0.917156

O          x =  0.143065  y = -0.060801  z = -1.010226 angstrom
           Maximum rank =  0   Radius =  0.650 angstrom
                   Q00  =  -0.968614

O          x =  2.254065  y = -0.629801  z = -1.066226 angstrom
           Maximum rank =  0   Radius =  0.650 angstrom
                   Q00  =  -0.851222

H          x =  0.509065  y = -1.433801  z =  1.304774 angstrom
           Maximum rank =  0   Radius =  0.325 angstrom
                   Q00  =   0.063850

H          x =  0.702065  y =  0.303199  z =  1.525774 angstrom
           Maximum rank =  0   Radius =  0.325 angstrom
                   Q00  =   0.038543

H          x =  2.135705  y = -0.747711  z =  1.550394 angstrom
           Maximum rank =  0   Radius =  0.325 angstrom
                   Q00  =   0.116195

C          x = -2.202935  y =  1.533199  z =  0.929774 angstrom
           Maximum rank =  0   Radius =  0.650 angstrom
                   Q00  =  -0.130519

N          x = -2.166935  y =  0.102199  z =  0.416774 angstrom
           Maximum rank =  0   Radius =  0.650 angstrom
                   Q00  =  -0.147024

H          x = -2.929935  y = -0.089801  z = -0.221226 angstrom
           Maximum rank =  0   Radius =  0.325 angstrom
                   Q00  =   0.227778

H          x = -1.300935  y = -0.074801  z = -0.093226 angstrom
           Maximum rank =  0   Radius =  0.325 angstrom
                   Q00  =   0.355296

H          x = -2.213935  y = -0.545801  z =  1.203774 angstrom
           Maximum rank =  0   Radius =  0.325 angstrom
                   Q00  =   0.225042

H          x = -1.825935  y =  2.210199  z =  0.155774 angstrom
           Maximum rank =  0   Radius =  0.325 angstrom
                   Q00  =   0.163669

H          x = -1.552935  y =  1.626199  z =  1.807774 angstrom
           Maximum rank =  0   Radius =  0.325 angstrom
                   Q00  =   0.148733

H          x = -3.223745  y =  1.843939  z =  1.196944 angstrom
           Maximum rank =  0   Radius =  0.325 angstrom
                   Q00  =   0.125618

Total multipoles referred to origin at
           x =   0.000000,  y =    0.000000,  z =    0.000000 angstrom
                   Q00  =  -0.000000

Finished at 14:48:40 on 28 Apr 2020

  DMA results are available in the Python driver through the
	  variable('DMA DISTRIBUTED MULTIPOLES')
  and
	  variable('DMA TOTAL MULTIPOLES')
  commands.

    Psi4 stopped on: Tuesday, 28 April 2020 02:48PM
    Psi4 wall time for execution: 0:00:27.22

*** Psi4 exiting successfully. Buy a developer a beer!
