                               Psi4 1.3.2 release

  ==> Input File <==

--------------------------------------------------------------------------
import numpy as np
set {scf_type pk
basis cc-pvdz
d_convergence 10
gdma_switch   0
gdma_limit    0
gdma_origin   [ 0.0,  0.0,  0.0 ]
}
molecule test {
    units Angstrom
    0 1
    --
    0 1
    C                1.241027034615845    -2.620454288974952    -0.129325770442197
    C                0.106027034615845    -1.663454288974952     0.358674229557803
    O                0.129027034615845    -1.301454288974952     1.609674229557803
    O               -0.693972965384155    -1.302454288974952    -0.594325770442197
    H                1.337027034615845    -2.555454288974952    -1.216325770442197
    H                0.961027034615845    -3.648454288974952     0.109674229557803
    H                2.231207034615845    -2.424074288974952     0.307684229557803
    C                0.151027034615845     1.856545711025048    -0.161325770442197
    C                0.311027034615845     3.350545711025048     0.005674229557803
    N               -1.089972965384155     1.495545711025048    -0.941325770442197
    H                1.036027034615845     1.467545711025048    -0.679325770442197
    H                0.108027034615845     1.390545711025048     0.828674229557803
    H               -0.493972965384155     3.739545711025048     0.632674229557803
    H                0.231027034615845     3.826545711025048    -0.974325770442197
    H               -1.029972965384155     1.793545711025048    -1.909325770442197
    H               -1.164972965384155     0.470545711025048    -0.954325770442198
    H               -1.926972965384155     1.855545711025048    -0.494325770442197
    H                1.281377034615845     3.638265711025048     0.436544229557803

}
e, wfn = energy('scf', return_wfn=True)
gdma(wfn)
dmavals = variable('DMA DISTRIBUTED MULTIPOLES')
charges = np.array(dmavals)
print(charges)
np.save('SSI-210GLU-213LYS-1-dimer.npy', np.array(charges))--------------------------------------------------------------------------

*** tstart() called on ds3
*** at Tue Apr 28 14:26:27 2020

   => Loading Basis Set <=

    Name: CC-PVDZ
    Role: ORBITAL
    Keyword: BASIS
    atoms 1-2, 8-9   entry C          line   138 file /theoryfs2/ds/metcalf/miniconda2/envs/tf2gpu/share/psi4/basis/cc-pvdz.gbs
    atoms 3-4        entry O          line   198 file /theoryfs2/ds/metcalf/miniconda2/envs/tf2gpu/share/psi4/basis/cc-pvdz.gbs
    atoms 5-7, 11-18 entry H          line    22 file /theoryfs2/ds/metcalf/miniconda2/envs/tf2gpu/share/psi4/basis/cc-pvdz.gbs
    atoms 10         entry N          line   168 file /theoryfs2/ds/metcalf/miniconda2/envs/tf2gpu/share/psi4/basis/cc-pvdz.gbs

         ---------------------------------------------------------
                                   SCF
               by Justin Turney, Rob Parrish, Andy Simmonett
                          and Daniel G. A. Smith
                              RHF Reference
                        1 Threads,    500 MiB Core
         ---------------------------------------------------------

  ==> Geometry <==

    Molecular point group: c1
    Full point group: C1

    Geometry (in Angstrom), charge = 0, multiplicity = 1:

       Center              X                  Y                   Z               Mass
    ------------   -----------------  -----------------  -----------------  -----------------
         C            1.241027034616    -2.620454288975    -0.129325770442    12.000000000000
         C            0.106027034616    -1.663454288975     0.358674229558    12.000000000000
         O            0.129027034616    -1.301454288975     1.609674229558    15.994914619570
         O           -0.693972965384    -1.302454288975    -0.594325770442    15.994914619570
         H            1.337027034616    -2.555454288975    -1.216325770442     1.007825032230
         H            0.961027034616    -3.648454288975     0.109674229558     1.007825032230
         H            2.231207034616    -2.424074288975     0.307684229558     1.007825032230
         C            0.151027034616     1.856545711025    -0.161325770442    12.000000000000
         C            0.311027034616     3.350545711025     0.005674229558    12.000000000000
         N           -1.089972965384     1.495545711025    -0.941325770442    14.003074004430
         H            1.036027034616     1.467545711025    -0.679325770442     1.007825032230
         H            0.108027034616     1.390545711025     0.828674229558     1.007825032230
         H           -0.493972965384     3.739545711025     0.632674229558     1.007825032230
         H            0.231027034616     3.826545711025    -0.974325770442     1.007825032230
         H           -1.029972965384     1.793545711025    -1.909325770442     1.007825032230
         H           -1.164972965384     0.470545711025    -0.954325770442     1.007825032230
         H           -1.926972965384     1.855545711025    -0.494325770442     1.007825032230
         H            1.281377034616     3.638265711025     0.436544229558     1.007825032230

  Running in c1 symmetry.

  Rotational constants: A =      0.14126  B =      0.03306  C =      0.03075 [cm^-1]
  Rotational constants: A =   4234.78461  B =    991.18544  C =    921.80951 [MHz]
  Nuclear repulsion =  306.644116456543657

  Charge       = 0
  Multiplicity = 1
  Electrons    = 58
  Nalpha       = 29
  Nbeta        = 29

  ==> Algorithm <==

  SCF Algorithm Type is PK.
  DIIS enabled.
  MOM disabled.
  Fractional occupation disabled.
  Guess Type is SAD.
  Energy threshold   = 1.00e-06
  Density threshold  = 1.00e-10
  Integral threshold = 0.00e+00

  ==> Primary Basis <==

  Basis Set: CC-PVDZ
    Blend: CC-PVDZ
    Number of shells: 75
    Number of basis function: 153
    Number of Cartesian functions: 160
    Spherical Harmonics?: true
    Max angular momentum: 2

  ==> Pre-Iterations <==

   -------------------------------------------------------
    Irrep   Nso     Nmo     Nalpha   Nbeta   Ndocc  Nsocc
   -------------------------------------------------------
     A        153     153       0       0       0       0
   -------------------------------------------------------
    Total     153     153      29      29      29       0
   -------------------------------------------------------

  ==> Integral Setup <==

  Using integral reordering PK algorithm.
  Sizing the integral batches needed.
  Building batch lookup table.
   Calculation information:
      Number of atoms:                  18
      Number of AO shells:              75
      Number of primitives:            209
      Number of atomic orbitals:       160
      Number of basis functions:       153

      Integral cutoff                 1.00e-12
      Number of threads:                 1

	Batch   1 pq = [       0,    9405] index = [             0,44231715] size =     44231715
	Batch   2 pq = [    9405,   11781] index = [      44231715,69401871] size =     25170156
  Task number: 7
  Buffer size: 11059200
  Buffer per thread: 2
  We computed 3482674 shell quartets total.
  Whereas there are 4062675 unique shell quartets.

  ==> DiskJK: Disk-Based J/K Matrices <==

    J tasked:                  Yes
    K tasked:                  Yes
    wK tasked:                  No
    Memory [MiB]:              375
    Schwarz Cutoff:          1E-12

    OpenMP threads:              1

  Minimum eigenvalue in the overlap matrix is 5.2552557707E-03.
  Using Symmetric Orthogonalization.

  SCF Guess: Superposition of Atomic Densities via on-the-fly atomic UHF.

  ==> Iterations <==

                        Total Energy        Delta E     RMS |[F,P]|

   @RHF iter SAD:  -360.43739578442649   -3.60437e+02   0.00000e+00
   @RHF iter   1:  -361.77514734168568   -1.33775e+00   4.68331e-03 DIIS
   @RHF iter   2:  -361.96884942724830   -1.93702e-01   2.71625e-03 DIIS
   @RHF iter   3:  -362.03183407573084   -6.29846e-02   4.83070e-04 DIIS
   @RHF iter   4:  -362.03522550098137   -3.39143e-03   1.68775e-04 DIIS
   @RHF iter   5:  -362.03566334180772   -4.37841e-04   3.91049e-05 DIIS
   @RHF iter   6:  -362.03568507617598   -2.17344e-05   1.83226e-05 DIIS
   @RHF iter   7:  -362.03568950631598   -4.43014e-06   3.20310e-06 DIIS
   @RHF iter   8:  -362.03568987084816   -3.64532e-07   1.38611e-06 DIIS
   @RHF iter   9:  -362.03568993900950   -6.81613e-08   5.37659e-07 DIIS
   @RHF iter  10:  -362.03568995077450   -1.17650e-08   2.01910e-07 DIIS
   @RHF iter  11:  -362.03568995248082   -1.70633e-09   5.43639e-08 DIIS
   @RHF iter  12:  -362.03568995258411   -1.03284e-10   1.45411e-08 DIIS
   @RHF iter  13:  -362.03568995259047   -6.36646e-12   5.16419e-09 DIIS
   @RHF iter  14:  -362.03568995259013    3.41061e-13   1.74161e-09 DIIS
   @RHF iter  15:  -362.03568995258945    6.82121e-13   4.89991e-10 DIIS
   @RHF iter  16:  -362.03568995259155   -2.10321e-12   2.56563e-10 DIIS
   @RHF iter  17:  -362.03568995259042    1.13687e-12   8.40289e-11 DIIS
  Energy and wave function converged.

  ==> Post-Iterations <==

    Orbital Energies [Eh]
    ---------------------

    Doubly Occupied:

       1A    -20.443664     2A    -20.425871     3A    -15.729373
       4A    -11.331277     5A    -11.289592     6A    -11.281958
       7A    -11.174418     8A     -1.349528     9A     -1.281709
      10A     -1.187268    11A     -1.081829    12A     -0.913537
      13A     -0.910204    14A     -0.820100    15A     -0.788916
      16A     -0.703529    17A     -0.660292    18A     -0.651874
      19A     -0.596197    20A     -0.565250    21A     -0.550792
      22A     -0.540737    23A     -0.539378    24A     -0.530025
      25A     -0.477921    26A     -0.444543    27A     -0.347675
      28A     -0.327967    29A     -0.326733

    Virtual:

      30A      0.100901    31A      0.154044    32A      0.162888
      33A      0.197559    34A      0.220132    35A      0.232917
      36A      0.246770    37A      0.254874    38A      0.273573
      39A      0.293424    40A      0.307421    41A      0.324768
      42A      0.341254    43A      0.349976    44A      0.442233
      45A      0.507464    46A      0.524076    47A      0.541406
      48A      0.563949    49A      0.579161    50A      0.613308
      51A      0.615791    52A      0.694469    53A      0.722809
      54A      0.764261    55A      0.769506    56A      0.778078
      57A      0.800255    58A      0.809135    59A      0.826510
      60A      0.831448    61A      0.835190    62A      0.842669
      63A      0.858999    64A      0.896491    65A      0.906758
      66A      0.915559    67A      0.928170    68A      0.945986
      69A      0.959672    70A      0.970521    71A      0.973713
      72A      1.014775    73A      1.072603    74A      1.076766
      75A      1.086486    76A      1.161797    77A      1.219146
      78A      1.230489    79A      1.314284    80A      1.328464
      81A      1.370298    82A      1.406265    83A      1.422492
      84A      1.429115    85A      1.454042    86A      1.484820
      87A      1.496588    88A      1.531916    89A      1.561562
      90A      1.605323    91A      1.628143    92A      1.652020
      93A      1.669018    94A      1.684576    95A      1.733570
      96A      1.767280    97A      1.807983    98A      1.823411
      99A      1.860230   100A      1.880303   101A      1.895419
     102A      1.903012   103A      1.909033   104A      1.923632
     105A      1.940955   106A      1.965328   107A      1.997316
     108A      2.011586   109A      2.028398   110A      2.029820
     111A      2.071126   112A      2.081903   113A      2.108513
     114A      2.123611   115A      2.167483   116A      2.228315
     117A      2.246084   118A      2.266409   119A      2.295820
     120A      2.311118   121A      2.334507   122A      2.352907
     123A      2.399279   124A      2.435615   125A      2.486078
     126A      2.503076   127A      2.520843   128A      2.539215
     129A      2.570197   130A      2.633001   131A      2.687237
     132A      2.699699   133A      2.708185   134A      2.756594
     135A      2.791482   136A      2.800813   137A      2.845237
     138A      2.861162   139A      2.901691   140A      2.958073
     141A      2.991653   142A      3.086832   143A      3.099697
     144A      3.137488   145A      3.173547   146A      3.241478
     147A      3.332872   148A      3.377010   149A      3.598805
     150A      3.643285   151A      3.760524   152A      3.882276
     153A      3.977572

    Final Occupation by Irrep:
              A
    DOCC [    29 ]

  @RHF Final Energy:  -362.03568995259042

   => Energetics <=

    Nuclear Repulsion Energy =            306.6441164565436566
    One-Electron Energy =               -1102.8153002024441776
    Two-Electron Energy =                 434.1354937933101041
    Total Energy =                       -362.0356899525904169

Computation Completed

Properties will be evaluated at   0.000000,   0.000000,   0.000000 [a0]

Properties computed using the SCF density matrix

  Nuclear Dipole Moment: [e a0]
     X:     2.4096      Y:     8.9398      Z:    -3.6604

  Electronic Dipole Moment: [e a0]
     X:    -3.0031      Y:    -4.7313      Z:     1.5814

  Dipole Moment: [e a0]
     X:    -0.5935      Y:     4.2085      Z:    -2.0790     Total:     4.7314

  Dipole Moment: [D]
     X:    -1.5085      Y:    10.6970      Z:    -5.2844     Total:    12.0260

*** tstop() called on ds3 at Tue Apr 28 14:27:02 2020
Module time:
	user time   =      25.11 seconds =       0.42 minutes
	system time =      11.47 seconds =       0.19 minutes
	total time  =         35 seconds =       0.58 minutes
Total time:
	user time   =      25.11 seconds =       0.42 minutes
	system time =      11.47 seconds =       0.19 minutes
	total time  =         35 seconds =       0.58 minutes
                                     G D M A

                                 by Anthony Stone

                           version 2.2.06, 22 June 2011

               Distributed Multipoles from Gaussian wavefunctions

Starting at 14:27:2 on 28 Apr 2020

Using SCF density matrix from file ./SSI/SSI-210GLU-213LYS-1-dimer.test.24417.fchk

                         Distributed Multipole Analysis

Standard DMA

Positions and radii in angstrom
Multipole moments in atomic units, ea_0^k for rank k

C          x =  1.241027  y = -2.620454  z = -0.129326 angstrom
           Maximum rank =  0   Radius =  0.650 angstrom
                   Q00  =  -0.281645

C          x =  0.106027  y = -1.663454  z =  0.358674 angstrom
           Maximum rank =  0   Radius =  0.650 angstrom
                   Q00  =   0.879595

O          x =  0.129027  y = -1.301454  z =  1.609674 angstrom
           Maximum rank =  0   Radius =  0.650 angstrom
                   Q00  =  -0.867885

O          x = -0.693973  y = -1.302454  z = -0.594326 angstrom
           Maximum rank =  0   Radius =  0.650 angstrom
                   Q00  =  -0.939746

H          x =  1.337027  y = -2.555454  z = -1.216326 angstrom
           Maximum rank =  0   Radius =  0.325 angstrom
                   Q00  =   0.065862

H          x =  0.961027  y = -3.648454  z =  0.109674 angstrom
           Maximum rank =  0   Radius =  0.325 angstrom
                   Q00  =   0.110112

H          x =  2.231207  y = -2.424074  z =  0.307684 angstrom
           Maximum rank =  0   Radius =  0.325 angstrom
                   Q00  =   0.081736

C          x =  0.151027  y =  1.856546  z = -0.161326 angstrom
           Maximum rank =  0   Radius =  0.650 angstrom
                   Q00  =   0.048542

C          x =  0.311027  y =  3.350546  z =  0.005674 angstrom
           Maximum rank =  0   Radius =  0.650 angstrom
                   Q00  =  -0.239568

N          x = -1.089973  y =  1.495546  z = -0.941326 angstrom
           Maximum rank =  0   Radius =  0.650 angstrom
                   Q00  =  -0.156636

H          x =  1.036027  y =  1.467546  z = -0.679326 angstrom
           Maximum rank =  0   Radius =  0.325 angstrom
                   Q00  =   0.112808

H          x =  0.108027  y =  1.390546  z =  0.828674 angstrom
           Maximum rank =  0   Radius =  0.325 angstrom
                   Q00  =   0.127534

H          x = -0.493973  y =  3.739546  z =  0.632674 angstrom
           Maximum rank =  0   Radius =  0.325 angstrom
                   Q00  =   0.092974

H          x =  0.231027  y =  3.826546  z = -0.974326 angstrom
           Maximum rank =  0   Radius =  0.325 angstrom
                   Q00  =   0.073760

H          x = -1.029973  y =  1.793546  z = -1.909326 angstrom
           Maximum rank =  0   Radius =  0.325 angstrom
                   Q00  =   0.221651

H          x = -1.164973  y =  0.470546  z = -0.954326 angstrom
           Maximum rank =  0   Radius =  0.325 angstrom
                   Q00  =   0.305396

H          x = -1.926973  y =  1.855546  z = -0.494326 angstrom
           Maximum rank =  0   Radius =  0.325 angstrom
                   Q00  =   0.231126

H          x =  1.281377  y =  3.638266  z =  0.436544 angstrom
           Maximum rank =  0   Radius =  0.325 angstrom
                   Q00  =   0.134385

Total multipoles referred to origin at
           x =   0.000000,  y =    0.000000,  z =    0.000000 angstrom
                   Q00  =  -0.000000

Finished at 14:27:2 on 28 Apr 2020

  DMA results are available in the Python driver through the
	  variable('DMA DISTRIBUTED MULTIPOLES')
  and
	  variable('DMA TOTAL MULTIPOLES')
  commands.

    Psi4 stopped on: Tuesday, 28 April 2020 02:27PM
    Psi4 wall time for execution: 0:00:35.64

*** Psi4 exiting successfully. Buy a developer a beer!
