                               Psi4 1.3.2 release

  ==> Input File <==

--------------------------------------------------------------------------
import numpy as np
set {scf_type pk
basis cc-pvdz
d_convergence 10
gdma_switch   0
gdma_limit    0
gdma_origin   [ 0.0,  0.0,  0.0 ]
}
molecule test {
    units Angstrom
    0 1
    --
    0 1
    C               -2.211572924152984     0.181385484678093    -3.308238696722154
    C               -2.381572924152984     1.464385484678093    -2.532238696722153
    C               -0.891572924152984     0.367385484678093    -4.050238696722154
    H               -3.049572924152984     0.007385484678093    -3.985238696722154
    H               -2.118572924152984    -0.652614515321907    -2.614238696722154
    H               -2.848572924152984     2.212385484678093    -3.175238696722154
    H               -2.987572924152984     1.312385484678093    -1.638238696722154
    H               -0.382572924152984    -0.593614515321907    -4.127238696722154
    H               -1.364122924152984     1.795055484678093    -2.276418696722154
    H               -0.322842924152984     1.055725484678093    -3.407788696722154
    H               -1.042072924152984     0.771575484678093    -5.062158696722154
    C                2.379427075847016     1.215385484678093     3.001761303277846
    C               -0.324572924152984    -0.374614515321907     0.940761303277846
    C                1.054427075847016    -0.140614515321907     1.196761303277846
    C                1.135427075847016     0.732385484678093     2.337761303277846
    C               -0.144572924152984     0.990385484678093     2.714761303277846
    C               -0.763572924152984    -1.185614515321907    -0.102238696722154
    C                0.196427075847016    -1.776614515321907    -0.907238696722154
    C                1.565427075847016    -1.566614515321907    -0.679238696722154
    C                2.004427075847016    -0.754614515321907     0.367761303277846
    N               -1.022572924152984     0.331385484678093     1.885761303277846
    H               -1.818572924152984    -1.349614515321907    -0.272238696722154
    H               -0.120572924152984    -2.402614515321907    -1.730238696722154
    H               -2.031572924152984     0.356385484678093     1.987761303277846
    H                2.293427075847016    -2.052614515321907    -1.313238696722154
    H               -0.431572924152984     1.613385484678093     3.556761303277847
    H                3.059427075847016    -0.623614515321907     0.556761303277846
    H                2.290427075847016     2.282385484678093     3.209761303277846
    H                3.207427075847016     1.084385484678093     2.304761303277846
    H                2.608737075847016     0.668785484678093     3.928391303277846

}
e, wfn = energy('scf', return_wfn=True)
gdma(wfn)
dmavals = variable('DMA DISTRIBUTED MULTIPOLES')
charges = np.array(dmavals)
print(charges)
np.save('SSI-047PRO-164TRP-1-dimer.npy', np.array(charges))--------------------------------------------------------------------------

*** tstart() called on ds3
*** at Tue Apr 28 08:19:11 2020

   => Loading Basis Set <=

    Name: CC-PVDZ
    Role: ORBITAL
    Keyword: BASIS
    atoms 1-3, 12-20  entry C          line   138 file /theoryfs2/ds/metcalf/miniconda2/envs/tf2gpu/share/psi4/basis/cc-pvdz.gbs
    atoms 4-11, 22-30 entry H          line    22 file /theoryfs2/ds/metcalf/miniconda2/envs/tf2gpu/share/psi4/basis/cc-pvdz.gbs
    atoms 21          entry N          line   168 file /theoryfs2/ds/metcalf/miniconda2/envs/tf2gpu/share/psi4/basis/cc-pvdz.gbs

         ---------------------------------------------------------
                                   SCF
               by Justin Turney, Rob Parrish, Andy Simmonett
                          and Daniel G. A. Smith
                              RHF Reference
                        1 Threads,    500 MiB Core
         ---------------------------------------------------------

  ==> Geometry <==

    Molecular point group: c1
    Full point group: C1

    Geometry (in Angstrom), charge = 0, multiplicity = 1:

       Center              X                  Y                   Z               Mass
    ------------   -----------------  -----------------  -----------------  -----------------
         C           -2.211572924153     0.181385484678    -3.308238696722    12.000000000000
         C           -2.381572924153     1.464385484678    -2.532238696722    12.000000000000
         C           -0.891572924153     0.367385484678    -4.050238696722    12.000000000000
         H           -3.049572924153     0.007385484678    -3.985238696722     1.007825032230
         H           -2.118572924153    -0.652614515322    -2.614238696722     1.007825032230
         H           -2.848572924153     2.212385484678    -3.175238696722     1.007825032230
         H           -2.987572924153     1.312385484678    -1.638238696722     1.007825032230
         H           -0.382572924153    -0.593614515322    -4.127238696722     1.007825032230
         H           -1.364122924153     1.795055484678    -2.276418696722     1.007825032230
         H           -0.322842924153     1.055725484678    -3.407788696722     1.007825032230
         H           -1.042072924153     0.771575484678    -5.062158696722     1.007825032230
         C            2.379427075847     1.215385484678     3.001761303278    12.000000000000
         C           -0.324572924153    -0.374614515322     0.940761303278    12.000000000000
         C            1.054427075847    -0.140614515322     1.196761303278    12.000000000000
         C            1.135427075847     0.732385484678     2.337761303278    12.000000000000
         C           -0.144572924153     0.990385484678     2.714761303278    12.000000000000
         C           -0.763572924153    -1.185614515322    -0.102238696722    12.000000000000
         C            0.196427075847    -1.776614515322    -0.907238696722    12.000000000000
         C            1.565427075847    -1.566614515322    -0.679238696722    12.000000000000
         C            2.004427075847    -0.754614515322     0.367761303278    12.000000000000
         N           -1.022572924153     0.331385484678     1.885761303278    14.003074004430
         H           -1.818572924153    -1.349614515322    -0.272238696722     1.007825032230
         H           -0.120572924153    -2.402614515322    -1.730238696722     1.007825032230
         H           -2.031572924153     0.356385484678     1.987761303278     1.007825032230
         H            2.293427075847    -2.052614515322    -1.313238696722     1.007825032230
         H           -0.431572924153     1.613385484678     3.556761303278     1.007825032230
         H            3.059427075847    -0.623614515322     0.556761303278     1.007825032230
         H            2.290427075847     2.282385484678     3.209761303278     1.007825032230
         H            3.207427075847     1.084385484678     2.304761303278     1.007825032230
         H            2.608737075847     0.668785484678     3.928391303278     1.007825032230

  Running in c1 symmetry.

  Rotational constants: A =      0.04034  B =      0.01381  C =      0.01208 [cm^-1]
  Rotational constants: A =   1209.44160  B =    414.07714  C =    362.14855 [MHz]
  Nuclear repulsion =  749.904395158477882

  Charge       = 0
  Multiplicity = 1
  Electrons    = 96
  Nalpha       = 48
  Nbeta        = 48

  ==> Algorithm <==

  SCF Algorithm Type is PK.
  DIIS enabled.
  MOM disabled.
  Fractional occupation disabled.
  Guess Type is SAD.
  Energy threshold   = 1.00e-06
  Density threshold  = 1.00e-10
  Integral threshold = 0.00e+00

  ==> Primary Basis <==

  Basis Set: CC-PVDZ
    Blend: CC-PVDZ
    Number of shells: 129
    Number of basis function: 267
    Number of Cartesian functions: 280
    Spherical Harmonics?: true
    Max angular momentum: 2

  ==> Pre-Iterations <==

   -------------------------------------------------------
    Irrep   Nso     Nmo     Nalpha   Nbeta   Ndocc  Nsocc
   -------------------------------------------------------
     A        267     267       0       0       0       0
   -------------------------------------------------------
    Total     267     267      48      48      48       0
   -------------------------------------------------------

  ==> Integral Setup <==

  Using integral reordering PK algorithm.
  Sizing the integral batches needed.
  Building batch lookup table.
   Calculation information:
      Number of atoms:                  30
      Number of AO shells:             129
      Number of primitives:            371
      Number of atomic orbitals:       280
      Number of basis functions:       267

      Integral cutoff                 1.00e-12
      Number of threads:                 1

	Batch   1 pq = [       0,    9405] index = [             0,44231715] size =     44231715
	Batch   2 pq = [    9405,   13301] index = [      44231715,88464951] size =     44233236
	Batch   3 pq = [   13301,   16290] index = [      88464951,132690195] size =     44225244
	Batch   4 pq = [   16290,   18810] index = [     132690195,176917455] size =     44227260
	Batch   5 pq = [   18810,   21030] index = [     176917455,221140965] size =     44223510
	Batch   6 pq = [   21030,   23037] index = [     221140965,265363203] size =     44222238
	Batch   7 pq = [   23037,   24883] index = [     265363203,309594286] size =     44231083
	Batch   8 pq = [   24883,   26601] index = [     309594286,353819901] size =     44225615
	Batch   9 pq = [   26601,   28214] index = [     353819901,398029005] size =     44209104
	Batch  10 pq = [   28214,   29740] index = [     398029005,442248670] size =     44219665
	Batch  11 pq = [   29740,   31191] index = [     442248670,486454836] size =     44206166
	Batch  12 pq = [   31191,   32578] index = [     486454836,530679331] size =     44224495
	Batch  13 pq = [   32578,   33908] index = [     530679331,574893186] size =     44213855
	Batch  14 pq = [   33908,   35188] index = [     574893186,619115266] size =     44222080
	Batch  15 pq = [   35188,   35778] index = [     619115266,640050531] size =     20935265
  Task number: 58
  Buffer size: 11059200
  Buffer per thread: 2
  We computed 35755016 shell quartets total.
  Whereas there are 35158305 unique shell quartets.
     1.70 percent of shell quartets recomputed by reordering.

  ==> DiskJK: Disk-Based J/K Matrices <==

    J tasked:                  Yes
    K tasked:                  Yes
    wK tasked:                  No
    Memory [MiB]:              375
    Schwarz Cutoff:          1E-12

    OpenMP threads:              1

  Minimum eigenvalue in the overlap matrix is 2.3944815200E-04.
  Using Symmetric Orthogonalization.

  SCF Guess: Superposition of Atomic Densities via on-the-fly atomic UHF.

  ==> Iterations <==

                        Total Energy        Delta E     RMS |[F,P]|

   @RHF iter SAD:  -518.16312399502544   -5.18163e+02   0.00000e+00
   @RHF iter   1:  -518.47151711781532   -3.08393e-01   2.52995e-03 DIIS
   @RHF iter   2:  -518.73266652263362   -2.61149e-01   1.14625e-03 DIIS
   @RHF iter   3:  -518.78202396002973   -4.93574e-02   2.85229e-04 DIIS
   @RHF iter   4:  -518.78618608387353   -4.16212e-03   1.28032e-04 DIIS
   @RHF iter   5:  -518.78683346132254   -6.47377e-04   1.98015e-05 DIIS
   @RHF iter   6:  -518.78686443805418   -3.09767e-05   8.64686e-06 DIIS
   @RHF iter   7:  -518.78687071197328   -6.27392e-06   3.47905e-06 DIIS
   @RHF iter   8:  -518.78687231726860   -1.60530e-06   1.50175e-06 DIIS
   @RHF iter   9:  -518.78687269806858   -3.80800e-07   6.43032e-07 DIIS
   @RHF iter  10:  -518.78687277435984   -7.62913e-08   2.82405e-07 DIIS
   @RHF iter  11:  -518.78687279174198   -1.73821e-08   1.09682e-07 DIIS
   @RHF iter  12:  -518.78687279429721   -2.55523e-09   4.19563e-08 DIIS
   @RHF iter  13:  -518.78687279451651   -2.19302e-10   1.16598e-08 DIIS
   @RHF iter  14:  -518.78687279453641   -1.98952e-11   4.43734e-09 DIIS
   @RHF iter  15:  -518.78687279453811   -1.70530e-12   2.29401e-09 DIIS
   @RHF iter  16:  -518.78687279454391   -5.79803e-12   1.01103e-09 DIIS
   @RHF iter  17:  -518.78687279454209    1.81899e-12   4.72387e-10 DIIS
   @RHF iter  18:  -518.78687279453936    2.72848e-12   1.71755e-10 DIIS
   @RHF iter  19:  -518.78687279454471   -5.34328e-12   6.64549e-11 DIIS
  Energy and wave function converged.

  ==> Post-Iterations <==

    Orbital Energies [Eh]
    ---------------------

    Doubly Occupied:

       1A    -15.602034     2A    -11.265004     3A    -11.263370
       4A    -11.232053     5A    -11.231765     6A    -11.230209
       7A    -11.226122     8A    -11.222558     9A    -11.222099
      10A    -11.216968    11A    -11.209466    12A    -11.207387
      13A    -11.206909    14A     -1.294924    15A     -1.127825
      16A     -1.074438    17A     -1.059799    18A     -0.997329
      19A     -0.987817    20A     -0.932230    21A     -0.908565
      22A     -0.839927    23A     -0.804179    24A     -0.792991
      25A     -0.752202    26A     -0.720202    27A     -0.663018
      28A     -0.642886    29A     -0.629207    30A     -0.608827
      31A     -0.601859    32A     -0.592390    33A     -0.590846
      34A     -0.568615    35A     -0.553522    36A     -0.539272
      37A     -0.534407    38A     -0.525302    39A     -0.508758
      40A     -0.494994    41A     -0.479374    42A     -0.472646
      43A     -0.463489    44A     -0.458931    45A     -0.451635
      46A     -0.373336    47A     -0.295222    48A     -0.274932

    Virtual:

      49A      0.123279    50A      0.166041    51A      0.169191
      52A      0.185245    53A      0.192483    54A      0.206717
      55A      0.212729    56A      0.224085    57A      0.226292
      58A      0.236694    59A      0.245851    60A      0.255889
      61A      0.268025    62A      0.277119    63A      0.284938
      64A      0.296294    65A      0.310615    66A      0.314357
      67A      0.339804    68A      0.344300    69A      0.372575
      70A      0.379848    71A      0.386990    72A      0.404228
      73A      0.426675    74A      0.446097    75A      0.448134
      76A      0.468597    77A      0.484249    78A      0.507306
      79A      0.521143    80A      0.557581    81A      0.596508
      82A      0.600436    83A      0.622908    84A      0.631813
      85A      0.635415    86A      0.642356    87A      0.647381
      88A      0.661566    89A      0.666763    90A      0.690037
      91A      0.715075    92A      0.716284    93A      0.726219
      94A      0.735982    95A      0.739721    96A      0.745286
      97A      0.756384    98A      0.760017    99A      0.777058
     100A      0.786009   101A      0.793079   102A      0.796017
     103A      0.803059   104A      0.817497   105A      0.840005
     106A      0.853218   107A      0.863999   108A      0.867159
     109A      0.875377   110A      0.877659   111A      0.885844
     112A      0.889669   113A      0.893799   114A      0.904349
     115A      0.908231   116A      0.910284   117A      0.921853
     118A      0.927207   119A      0.943157   120A      0.946099
     121A      0.954448   122A      0.958075   123A      0.969806
     124A      0.985556   125A      0.990098   126A      0.995175
     127A      1.014905   128A      1.022407   129A      1.074893
     130A      1.078791   131A      1.088559   132A      1.098238
     133A      1.112478   134A      1.134893   135A      1.138271
     136A      1.145407   137A      1.157228   138A      1.170579
     139A      1.193731   140A      1.221043   141A      1.231263
     142A      1.233711   143A      1.244916   144A      1.261251
     145A      1.279191   146A      1.285669   147A      1.304744
     148A      1.327741   149A      1.330139   150A      1.359621
     151A      1.368329   152A      1.412077   153A      1.426106
     154A      1.444439   155A      1.474217   156A      1.493086
     157A      1.517705   158A      1.549179   159A      1.562273
     160A      1.597854   161A      1.620323   162A      1.626961
     163A      1.632410   164A      1.634108   165A      1.641592
     166A      1.652990   167A      1.691745   168A      1.698020
     169A      1.723250   170A      1.733750   171A      1.743338
     172A      1.755177   173A      1.778247   174A      1.785388
     175A      1.810609   176A      1.814068   177A      1.829167
     178A      1.848013   179A      1.867833   180A      1.878947
     181A      1.885943   182A      1.896085   183A      1.898456
     184A      1.902599   185A      1.906209   186A      1.914919
     187A      1.924420   188A      1.941366   189A      1.948037
     190A      1.956532   191A      1.960243   192A      1.979109
     193A      1.981988   194A      1.988881   195A      1.999000
     196A      2.005105   197A      2.012988   198A      2.016553
     199A      2.027943   200A      2.034122   201A      2.041397
     202A      2.073280   203A      2.076746   204A      2.087860
     205A      2.098312   206A      2.105852   207A      2.110413
     208A      2.132759   209A      2.139381   210A      2.156781
     211A      2.165628   212A      2.174355   213A      2.189647
     214A      2.220422   215A      2.232432   216A      2.251834
     217A      2.268150   218A      2.279136   219A      2.309392
     220A      2.314028   221A      2.322522   222A      2.340919
     223A      2.359399   224A      2.363913   225A      2.396122
     226A      2.406488   227A      2.435568   228A      2.450563
     229A      2.455768   230A      2.465727   231A      2.510881
     232A      2.541756   233A      2.559167   234A      2.592460
     235A      2.593298   236A      2.625295   237A      2.643834
     238A      2.665172   239A      2.682860   240A      2.708792
     241A      2.728910   242A      2.764910   243A      2.770826
     244A      2.772140   245A      2.782818   246A      2.793717
     247A      2.797949   248A      2.807278   249A      2.822003
     250A      2.847905   251A      2.849892   252A      2.865480
     253A      2.869421   254A      2.914675   255A      2.928661
     256A      2.956780   257A      2.978373   258A      3.026333
     259A      3.048552   260A      3.063539   261A      3.070112
     262A      3.118299   263A      3.205072   264A      3.295856
     265A      3.377428   266A      3.739813   267A      3.944235

    Final Occupation by Irrep:
              A
    DOCC [    48 ]

  @RHF Final Energy:  -518.78687279454471

   => Energetics <=

    Nuclear Repulsion Energy =            749.9043951584778824
    One-Electron Energy =               -2189.4788611199778643
    Two-Electron Energy =                 920.7875931669552756
    Total Energy =                       -518.7868727945447063

Computation Completed

Properties will be evaluated at   0.000000,   0.000000,   0.000000 [a0]

Properties computed using the SCF density matrix

  Nuclear Dipole Moment: [e a0]
     X:    -4.7395      Y:     5.1412      Z:   -13.1845

  Electronic Dipole Moment: [e a0]
     X:     4.1676      Y:    -4.8982      Z:    13.6837

  Dipole Moment: [e a0]
     X:    -0.5718      Y:     0.2430      Z:     0.4992     Total:     0.7970

  Dipole Moment: [D]
     X:    -1.4535      Y:     0.6176      Z:     1.2687     Total:     2.0258

*** tstop() called on ds3 at Tue Apr 28 08:30:20 2020
Module time:
	user time   =     275.51 seconds =       4.59 minutes
	system time =     122.01 seconds =       2.03 minutes
	total time  =        669 seconds =      11.15 minutes
Total time:
	user time   =     275.51 seconds =       4.59 minutes
	system time =     122.01 seconds =       2.03 minutes
	total time  =        669 seconds =      11.15 minutes
                                     G D M A

                                 by Anthony Stone

                           version 2.2.06, 22 June 2011

               Distributed Multipoles from Gaussian wavefunctions

Starting at 8:30:20 on 28 Apr 2020

Using SCF density matrix from file ./SSI/SSI-047PRO-164TRP-1-dimer.test.13374.fchk

                         Distributed Multipole Analysis

Standard DMA

Positions and radii in angstrom
Multipole moments in atomic units, ea_0^k for rank k

C          x = -2.211573  y =  0.181385  z = -3.308239 angstrom
           Maximum rank =  0   Radius =  0.650 angstrom
                   Q00  =  -0.101463

C          x = -2.381573  y =  1.464385  z = -2.532239 angstrom
           Maximum rank =  0   Radius =  0.650 angstrom
                   Q00  =  -0.202738

C          x = -0.891573  y =  0.367385  z = -4.050239 angstrom
           Maximum rank =  0   Radius =  0.650 angstrom
                   Q00  =  -0.232538

H          x = -3.049573  y =  0.007385  z = -3.985239 angstrom
           Maximum rank =  0   Radius =  0.325 angstrom
                   Q00  =   0.050089

H          x = -2.118573  y = -0.652615  z = -2.614239 angstrom
           Maximum rank =  0   Radius =  0.325 angstrom
                   Q00  =   0.052650

H          x = -2.848573  y =  2.212385  z = -3.175239 angstrom
           Maximum rank =  0   Radius =  0.325 angstrom
                   Q00  =   0.072659

H          x = -2.987573  y =  1.312385  z = -1.638239 angstrom
           Maximum rank =  0   Radius =  0.325 angstrom
                   Q00  =   0.069627

H          x = -0.382573  y = -0.593615  z = -4.127239 angstrom
           Maximum rank =  0   Radius =  0.325 angstrom
                   Q00  =   0.084268

H          x = -1.364123  y =  1.795055  z = -2.276419 angstrom
           Maximum rank =  0   Radius =  0.325 angstrom
                   Q00  =   0.061427

H          x = -0.322843  y =  1.055725  z = -3.407789 angstrom
           Maximum rank =  0   Radius =  0.325 angstrom
                   Q00  =   0.070230

H          x = -1.042073  y =  0.771575  z = -5.062159 angstrom
           Maximum rank =  0   Radius =  0.325 angstrom
                   Q00  =   0.075830

C          x =  2.379427  y =  1.215385  z =  3.001761 angstrom
           Maximum rank =  0   Radius =  0.650 angstrom
                   Q00  =  -0.219064

C          x = -0.324573  y = -0.374615  z =  0.940761 angstrom
           Maximum rank =  0   Radius =  0.650 angstrom
                   Q00  =   0.295537

C          x =  1.054427  y = -0.140615  z =  1.196761 angstrom
           Maximum rank =  0   Radius =  0.650 angstrom
                   Q00  =  -0.050446

C          x =  1.135427  y =  0.732385  z =  2.337761 angstrom
           Maximum rank =  0   Radius =  0.650 angstrom
                   Q00  =  -0.117680

C          x = -0.144573  y =  0.990385  z =  2.714761 angstrom
           Maximum rank =  0   Radius =  0.650 angstrom
                   Q00  =   0.074287

C          x = -0.763573  y = -1.185615  z = -0.102239 angstrom
           Maximum rank =  0   Radius =  0.650 angstrom
                   Q00  =  -0.125951

C          x =  0.196427  y = -1.776615  z = -0.907239 angstrom
           Maximum rank =  0   Radius =  0.650 angstrom
                   Q00  =  -0.071355

C          x =  1.565427  y = -1.566615  z = -0.679239 angstrom
           Maximum rank =  0   Radius =  0.650 angstrom
                   Q00  =  -0.086534

C          x =  2.004427  y = -0.754615  z =  0.367761 angstrom
           Maximum rank =  0   Radius =  0.650 angstrom
                   Q00  =  -0.099347

N          x = -1.022573  y =  0.331385  z =  1.885761 angstrom
           Maximum rank =  0   Radius =  0.650 angstrom
                   Q00  =  -0.498885

H          x = -1.818573  y = -1.349615  z = -0.272239 angstrom
           Maximum rank =  0   Radius =  0.325 angstrom
                   Q00  =   0.074127

H          x = -0.120573  y = -2.402615  z = -1.730239 angstrom
           Maximum rank =  0   Radius =  0.325 angstrom
                   Q00  =   0.065202

H          x = -2.031573  y =  0.356385  z =  1.987761 angstrom
           Maximum rank =  0   Radius =  0.325 angstrom
                   Q00  =   0.216535

H          x =  2.293427  y = -2.052615  z = -1.313239 angstrom
           Maximum rank =  0   Radius =  0.325 angstrom
                   Q00  =   0.061421

H          x = -0.431573  y =  1.613385  z =  3.556761 angstrom
           Maximum rank =  0   Radius =  0.325 angstrom
                   Q00  =   0.099195

H          x =  3.059427  y = -0.623615  z =  0.556761 angstrom
           Maximum rank =  0   Radius =  0.325 angstrom
                   Q00  =   0.071170

H          x =  2.290427  y =  2.282385  z =  3.209761 angstrom
           Maximum rank =  0   Radius =  0.325 angstrom
                   Q00  =   0.104707

H          x =  3.207427  y =  1.084385  z =  2.304761 angstrom
           Maximum rank =  0   Radius =  0.325 angstrom
                   Q00  =   0.105899

H          x =  2.608737  y =  0.668785  z =  3.928391 angstrom
           Maximum rank =  0   Radius =  0.325 angstrom
                   Q00  =   0.101139

Total multipoles referred to origin at
           x =   0.000000,  y =    0.000000,  z =    0.000000 angstrom
                   Q00  =  -0.000000

Finished at 8:30:20 on 28 Apr 2020

  DMA results are available in the Python driver through the
	  variable('DMA DISTRIBUTED MULTIPOLES')
  and
	  variable('DMA TOTAL MULTIPOLES')
  commands.

    Psi4 stopped on: Tuesday, 28 April 2020 08:30AM
    Psi4 wall time for execution: 0:11:09.14

*** Psi4 exiting successfully. Buy a developer a beer!
