                               Psi4 1.3.2 release

  ==> Input File <==

--------------------------------------------------------------------------
import numpy as np
set {scf_type pk
basis cc-pvdz
d_convergence 10
gdma_switch   0
gdma_limit    0
gdma_origin   [ 0.0,  0.0,  0.0 ]
}
molecule test {
    units Angstrom
    0 1
    --
    0 1
    C                2.417957003063635    -1.206804778343960    -1.954623994122631
    C                2.801957003063634    -1.589804778343960    -3.387623994122631
    H                3.262957003063635    -1.334804778343960    -1.277623994122631
    H                2.106957003063635    -0.163804778343960    -1.922623994122631
    H                1.577957003063635    -1.800804778343960    -1.597623994122631
    H                1.921957003063635    -1.421804778343960    -4.011623994122631
    H                3.045427003063635    -2.659658778343959    -3.465923994122631
    H                3.614657003063635    -0.964044778343960    -3.785023994122632
    C               -2.520042996936365    -0.748804778343960     2.201376005877369
    C                0.412957003063635     1.359195221656040    -0.147623994122631
    C               -0.911042996936365     1.260195221656040    -0.580623994122631
    C                0.791957003063635     0.778195221656040     1.057376005877369
    C               -1.855042996936365     0.584195221656040     0.183376005877369
    C               -0.163042996936365     0.099195221656040     1.826376005877369
    C               -1.493042996936365     0.005195221656040     1.397376005877369
    H                1.140957003063635     1.892195221656040    -0.745623994122631
    H               -1.205042996936365     1.719195221656040    -1.516623994122631
    H                1.814957003063635     0.859195221656040     1.401376005877369
    H               -2.878042996936365     0.524195221656040    -0.161623994122631
    H                0.134957003063635    -0.337804778343960     2.769376005877369
    H               -3.506042996936365    -0.330804778343960     1.988376005877369
    H               -2.331042996936366    -0.595804778343960     3.265376005877369
    H               -2.540172996936365    -1.824144778343960     1.970676005877369

}
e, wfn = energy('scf', return_wfn=True)
gdma(wfn)
dmavals = variable('DMA DISTRIBUTED MULTIPOLES')
charges = np.array(dmavals)
print(charges)
np.save('SSI-103ILE-132PHE-1-dimer.npy', np.array(charges))--------------------------------------------------------------------------

*** tstart() called on ds3
*** at Mon Apr 27 23:37:23 2020

   => Loading Basis Set <=

    Name: CC-PVDZ
    Role: ORBITAL
    Keyword: BASIS
    atoms 1-2, 9-15  entry C          line   138 file /theoryfs2/ds/metcalf/miniconda2/envs/tf2gpu/share/psi4/basis/cc-pvdz.gbs
    atoms 3-8, 16-23 entry H          line    22 file /theoryfs2/ds/metcalf/miniconda2/envs/tf2gpu/share/psi4/basis/cc-pvdz.gbs

         ---------------------------------------------------------
                                   SCF
               by Justin Turney, Rob Parrish, Andy Simmonett
                          and Daniel G. A. Smith
                              RHF Reference
                        1 Threads,    500 MiB Core
         ---------------------------------------------------------

  ==> Geometry <==

    Molecular point group: c1
    Full point group: C1

    Geometry (in Angstrom), charge = 0, multiplicity = 1:

       Center              X                  Y                   Z               Mass
    ------------   -----------------  -----------------  -----------------  -----------------
         C            2.417957003064    -1.206804778344    -1.954623994123    12.000000000000
         C            2.801957003064    -1.589804778344    -3.387623994123    12.000000000000
         H            3.262957003064    -1.334804778344    -1.277623994123     1.007825032230
         H            2.106957003064    -0.163804778344    -1.922623994123     1.007825032230
         H            1.577957003064    -1.800804778344    -1.597623994123     1.007825032230
         H            1.921957003064    -1.421804778344    -4.011623994123     1.007825032230
         H            3.045427003064    -2.659658778344    -3.465923994123     1.007825032230
         H            3.614657003064    -0.964044778344    -3.785023994123     1.007825032230
         C           -2.520042996936    -0.748804778344     2.201376005877    12.000000000000
         C            0.412957003064     1.359195221656    -0.147623994123    12.000000000000
         C           -0.911042996936     1.260195221656    -0.580623994123    12.000000000000
         C            0.791957003064     0.778195221656     1.057376005877    12.000000000000
         C           -1.855042996936     0.584195221656     0.183376005877    12.000000000000
         C           -0.163042996936     0.099195221656     1.826376005877    12.000000000000
         C           -1.493042996936     0.005195221656     1.397376005877    12.000000000000
         H            1.140957003064     1.892195221656    -0.745623994123     1.007825032230
         H           -1.205042996936     1.719195221656    -1.516623994123     1.007825032230
         H            1.814957003064     0.859195221656     1.401376005877     1.007825032230
         H           -2.878042996936     0.524195221656    -0.161623994123     1.007825032230
         H            0.134957003064    -0.337804778344     2.769376005877     1.007825032230
         H           -3.506042996936    -0.330804778344     1.988376005877     1.007825032230
         H           -2.331042996936    -0.595804778344     3.265376005877     1.007825032230
         H           -2.540172996936    -1.824144778344     1.970676005877     1.007825032230

  Running in c1 symmetry.

  Rotational constants: A =      0.08323  B =      0.02000  C =      0.01971 [cm^-1]
  Rotational constants: A =   2495.18191  B =    599.45197  C =    590.82008 [MHz]
  Nuclear repulsion =  401.273887701217006

  Charge       = 0
  Multiplicity = 1
  Electrons    = 68
  Nalpha       = 34
  Nbeta        = 34

  ==> Algorithm <==

  SCF Algorithm Type is PK.
  DIIS enabled.
  MOM disabled.
  Fractional occupation disabled.
  Guess Type is SAD.
  Energy threshold   = 1.00e-06
  Density threshold  = 1.00e-10
  Integral threshold = 0.00e+00

  ==> Primary Basis <==

  Basis Set: CC-PVDZ
    Blend: CC-PVDZ
    Number of shells: 96
    Number of basis function: 196
    Number of Cartesian functions: 205
    Spherical Harmonics?: true
    Max angular momentum: 2

  ==> Pre-Iterations <==

   -------------------------------------------------------
    Irrep   Nso     Nmo     Nalpha   Nbeta   Ndocc  Nsocc
   -------------------------------------------------------
     A        196     196       0       0       0       0
   -------------------------------------------------------
    Total     196     196      34      34      34       0
   -------------------------------------------------------

  ==> Integral Setup <==

  Using integral reordering PK algorithm.
  Sizing the integral batches needed.
  Building batch lookup table.
   Calculation information:
      Number of atoms:                  23
      Number of AO shells:              96
      Number of primitives:            268
      Number of atomic orbitals:       205
      Number of basis functions:       196

      Integral cutoff                 1.00e-12
      Number of threads:                 1

	Batch   1 pq = [       0,    9405] index = [             0,44231715] size =     44231715
	Batch   2 pq = [    9405,   13301] index = [      44231715,88464951] size =     44233236
	Batch   3 pq = [   13301,   16290] index = [      88464951,132690195] size =     44225244
	Batch   4 pq = [   16290,   18810] index = [     132690195,176917455] size =     44227260
	Batch   5 pq = [   18810,   19306] index = [     176917455,186370471] size =      9453016
  Task number: 17
  Buffer size: 11059200
  Buffer per thread: 2
  We computed 8783229 shell quartets total.
  Whereas there are 10841496 unique shell quartets.

  ==> DiskJK: Disk-Based J/K Matrices <==

    J tasked:                  Yes
    K tasked:                  Yes
    wK tasked:                  No
    Memory [MiB]:              375
    Schwarz Cutoff:          1E-12

    OpenMP threads:              1

  Minimum eigenvalue in the overlap matrix is 3.1785104434E-04.
  Using Symmetric Orthogonalization.

  SCF Guess: Superposition of Atomic Densities via on-the-fly atomic UHF.

  ==> Iterations <==

                        Total Energy        Delta E     RMS |[F,P]|

   @RHF iter SAD:  -347.81373884235694   -3.47814e+02   0.00000e+00
   @RHF iter   1:  -348.76887265392452   -9.55134e-01   2.88439e-03 DIIS
   @RHF iter   2:  -348.96049178717004   -1.91619e-01   1.19552e-03 DIIS
   @RHF iter   3:  -348.99043042746081   -2.99386e-02   2.57573e-04 DIIS
   @RHF iter   4:  -348.99288965674140   -2.45923e-03   5.40328e-05 DIIS
   @RHF iter   5:  -348.99296504238919   -7.53856e-05   1.85664e-05 DIIS
   @RHF iter   6:  -348.99297340047815   -8.35809e-06   4.90698e-06 DIIS
   @RHF iter   7:  -348.99297408452566   -6.84048e-07   1.24190e-06 DIIS
   @RHF iter   8:  -348.99297413763162   -5.31060e-08   3.34586e-07 DIIS
   @RHF iter   9:  -348.99297414524864   -7.61702e-09   1.60588e-07 DIIS
   @RHF iter  10:  -348.99297414716659   -1.91795e-09   7.69481e-08 DIIS
   @RHF iter  11:  -348.99297414788475   -7.18160e-10   2.91212e-08 DIIS
   @RHF iter  12:  -348.99297414797030   -8.55493e-11   1.30973e-08 DIIS
   @RHF iter  13:  -348.99297414797945   -9.15179e-12   4.22320e-09 DIIS
   @RHF iter  14:  -348.99297414797985   -3.97904e-13   1.12194e-09 DIIS
   @RHF iter  15:  -348.99297414797957    2.84217e-13   3.52622e-10 DIIS
   @RHF iter  16:  -348.99297414798144   -1.87583e-12   9.94701e-11 DIIS
  Energy and wave function converged.

  ==> Post-Iterations <==

    Orbital Energies [Eh]
    ---------------------

    Doubly Occupied:

       1A    -11.241372     2A    -11.236801     3A    -11.235691
       4A    -11.232393     5A    -11.231848     6A    -11.230324
       7A    -11.229860     8A    -11.215691     9A    -11.210314
      10A     -1.150885    11A     -1.043544    12A     -1.011277
      13A     -1.010256    14A     -0.930567    15A     -0.833153
      16A     -0.824070    17A     -0.794609    18A     -0.690082
      19A     -0.630671    20A     -0.629416    21A     -0.591524
      22A     -0.589816    23A     -0.581914    24A     -0.577443
      25A     -0.561833    26A     -0.533982    27A     -0.499671
      28A     -0.486946    29A     -0.484345    30A     -0.481556
      31A     -0.480256    32A     -0.475892    33A     -0.331670
      34A     -0.321068

    Virtual:

      35A      0.135278    36A      0.139462    37A      0.177299
      38A      0.193058    39A      0.205765    40A      0.215799
      41A      0.237831    42A      0.243560    43A      0.253029
      44A      0.261409    45A      0.266734    46A      0.273448
      47A      0.279128    48A      0.289958    49A      0.293886
      50A      0.330876    51A      0.368667    52A      0.375916
      53A      0.400178    54A      0.451059    55A      0.461396
      56A      0.480504    57A      0.488587    58A      0.558295
      59A      0.582162    60A      0.596469    61A      0.600326
      62A      0.607694    63A      0.638029    64A      0.660037
      65A      0.677741    66A      0.683511    67A      0.702323
      68A      0.710122    69A      0.727667    70A      0.739528
      71A      0.743018    72A      0.747048    73A      0.757662
      74A      0.763979    75A      0.777796    76A      0.808202
      77A      0.835309    78A      0.853324    79A      0.863652
      80A      0.871491    81A      0.878566    82A      0.893087
      83A      0.894405    84A      0.896458    85A      0.898081
      86A      0.908797    87A      0.912772    88A      0.916902
      89A      0.926069    90A      0.929127    91A      0.941590
      92A      0.955134    93A      0.990734    94A      0.998978
      95A      1.010294    96A      1.057088    97A      1.115638
      98A      1.123256    99A      1.136282   100A      1.148488
     101A      1.152147   102A      1.155509   103A      1.194585
     104A      1.228716   105A      1.236568   106A      1.248348
     107A      1.252566   108A      1.262605   109A      1.294956
     110A      1.306962   111A      1.319921   112A      1.326222
     113A      1.411341   114A      1.470424   115A      1.479474
     116A      1.505953   117A      1.518843   118A      1.557751
     119A      1.591181   120A      1.598433   121A      1.673116
     122A      1.687365   123A      1.699019   124A      1.704345
     125A      1.734709   126A      1.744948   127A      1.760356
     128A      1.786291   129A      1.808117   130A      1.850543
     131A      1.868811   132A      1.873117   133A      1.889426
     134A      1.892114   135A      1.901998   136A      1.907867
     137A      1.913491   138A      1.918797   139A      1.937411
     140A      1.943921   141A      1.946215   142A      1.954013
     143A      1.962078   144A      1.962775   145A      1.974464
     146A      1.984469   147A      1.993077   148A      2.010113
     149A      2.042913   150A      2.063460   151A      2.067543
     152A      2.083104   153A      2.111558   154A      2.125144
     155A      2.145264   156A      2.153532   157A      2.159846
     158A      2.172256   159A      2.173726   160A      2.256955
     161A      2.274650   162A      2.288312   163A      2.296321
     164A      2.303922   165A      2.315029   166A      2.319757
     167A      2.346585   168A      2.452689   169A      2.461918
     170A      2.472003   171A      2.480228   172A      2.489276
     173A      2.535732   174A      2.551711   175A      2.578854
     176A      2.618644   177A      2.734937   178A      2.747064
     179A      2.761838   180A      2.764704   181A      2.777702
     182A      2.798769   183A      2.803843   184A      2.843618
     185A      2.858120   186A      2.871174   187A      2.883211
     188A      2.950809   189A      2.968251   190A      2.977173
     191A      3.004927   192A      3.018503   193A      3.146178
     194A      3.193285   195A      3.288869   196A      3.956499

    Final Occupation by Irrep:
              A
    DOCC [    34 ]

  @RHF Final Energy:  -348.99297414798144

   => Energetics <=

    Nuclear Repulsion Energy =            401.2738877012170065
    One-Electron Energy =               -1265.3122387445682762
    Two-Electron Energy =                 515.0453768953697136
    Total Energy =                       -348.9929741479814993

Computation Completed

Properties will be evaluated at   0.000000,   0.000000,   0.000000 [a0]

Properties computed using the SCF density matrix

  Nuclear Dipole Moment: [e a0]
     X:     5.7752      Y:    -6.0361      Z:    -6.6458

  Electronic Dipole Moment: [e a0]
     X:    -5.9148      Y:     6.0018      Z:     6.7544

  Dipole Moment: [e a0]
     X:    -0.1396      Y:    -0.0343      Z:     0.1085     Total:     0.1801

  Dipole Moment: [D]
     X:    -0.3548      Y:    -0.0872      Z:     0.2758     Total:     0.4578

*** tstop() called on ds3 at Mon Apr 27 23:39:17 2020
Module time:
	user time   =      74.25 seconds =       1.24 minutes
	system time =      33.29 seconds =       0.55 minutes
	total time  =        114 seconds =       1.90 minutes
Total time:
	user time   =      74.25 seconds =       1.24 minutes
	system time =      33.29 seconds =       0.55 minutes
	total time  =        114 seconds =       1.90 minutes
                                     G D M A

                                 by Anthony Stone

                           version 2.2.06, 22 June 2011

               Distributed Multipoles from Gaussian wavefunctions

Starting at 23:39:17 on 27 Apr 2020

Using SCF density matrix from file ./SSI/SSI-103ILE-132PHE-1-dimer.test.3459.fchk

                         Distributed Multipole Analysis

Standard DMA

Positions and radii in angstrom
Multipole moments in atomic units, ea_0^k for rank k

C          x =  2.417957  y = -1.206805  z = -1.954624 angstrom
           Maximum rank =  0   Radius =  0.650 angstrom
                   Q00  =  -0.230606

C          x =  2.801957  y = -1.589805  z = -3.387624 angstrom
           Maximum rank =  0   Radius =  0.650 angstrom
                   Q00  =  -0.241247

H          x =  3.262957  y = -1.334805  z = -1.277624 angstrom
           Maximum rank =  0   Radius =  0.325 angstrom
                   Q00  =   0.073831

H          x =  2.106957  y = -0.163805  z = -1.922624 angstrom
           Maximum rank =  0   Radius =  0.325 angstrom
                   Q00  =   0.079505

H          x =  1.577957  y = -1.800805  z = -1.597624 angstrom
           Maximum rank =  0   Radius =  0.325 angstrom
                   Q00  =   0.086024

H          x =  1.921957  y = -1.421805  z = -4.011624 angstrom
           Maximum rank =  0   Radius =  0.325 angstrom
                   Q00  =   0.074036

H          x =  3.045427  y = -2.659659  z = -3.465924 angstrom
           Maximum rank =  0   Radius =  0.325 angstrom
                   Q00  =   0.079017

H          x =  3.614657  y = -0.964045  z = -3.785024 angstrom
           Maximum rank =  0   Radius =  0.325 angstrom
                   Q00  =   0.079791

C          x = -2.520043  y = -0.748805  z =  2.201376 angstrom
           Maximum rank =  0   Radius =  0.650 angstrom
                   Q00  =  -0.203030

C          x =  0.412957  y =  1.359195  z = -0.147624 angstrom
           Maximum rank =  0   Radius =  0.650 angstrom
                   Q00  =  -0.090184

C          x = -0.911043  y =  1.260195  z = -0.580624 angstrom
           Maximum rank =  0   Radius =  0.650 angstrom
                   Q00  =   0.011306

C          x =  0.791957  y =  0.778195  z =  1.057376 angstrom
           Maximum rank =  0   Radius =  0.650 angstrom
                   Q00  =  -0.069350

C          x = -1.855043  y =  0.584195  z =  0.183376 angstrom
           Maximum rank =  0   Radius =  0.650 angstrom
                   Q00  =  -0.085598

C          x = -0.163043  y =  0.099195  z =  1.826376 angstrom
           Maximum rank =  0   Radius =  0.650 angstrom
                   Q00  =  -0.078712

C          x = -1.493043  y =  0.005195  z =  1.397376 angstrom
           Maximum rank =  0   Radius =  0.650 angstrom
                   Q00  =  -0.095586

H          x =  1.140957  y =  1.892195  z = -0.745624 angstrom
           Maximum rank =  0   Radius =  0.325 angstrom
                   Q00  =   0.062995

H          x = -1.205043  y =  1.719195  z = -1.516624 angstrom
           Maximum rank =  0   Radius =  0.325 angstrom
                   Q00  =   0.064496

H          x =  1.814957  y =  0.859195  z =  1.401376 angstrom
           Maximum rank =  0   Radius =  0.325 angstrom
                   Q00  =   0.067504

H          x = -2.878043  y =  0.524195  z = -0.161624 angstrom
           Maximum rank =  0   Radius =  0.325 angstrom
                   Q00  =   0.057209

H          x =  0.134957  y = -0.337805  z =  2.769376 angstrom
           Maximum rank =  0   Radius =  0.325 angstrom
                   Q00  =   0.057633

H          x = -3.506043  y = -0.330805  z =  1.988376 angstrom
           Maximum rank =  0   Radius =  0.325 angstrom
                   Q00  =   0.095978

H          x = -2.331043  y = -0.595805  z =  3.265376 angstrom
           Maximum rank =  0   Radius =  0.325 angstrom
                   Q00  =   0.099304

H          x = -2.540173  y = -1.824145  z =  1.970676 angstrom
           Maximum rank =  0   Radius =  0.325 angstrom
                   Q00  =   0.105683

Total multipoles referred to origin at
           x =   0.000000,  y =    0.000000,  z =    0.000000 angstrom
                   Q00  =  -0.000000

Finished at 23:39:17 on 27 Apr 2020

  DMA results are available in the Python driver through the
	  variable('DMA DISTRIBUTED MULTIPOLES')
  and
	  variable('DMA TOTAL MULTIPOLES')
  commands.

    Psi4 stopped on: Monday, 27 April 2020 11:39PM
    Psi4 wall time for execution: 0:01:53.77

*** Psi4 exiting successfully. Buy a developer a beer!
