                               Psi4 1.3.2 release

  ==> Input File <==

--------------------------------------------------------------------------
import numpy as np
set {scf_type pk
basis cc-pvdz
d_convergence 10
gdma_switch   0
gdma_limit    0
gdma_origin   [ 0.0,  0.0,  0.0 ]
}
molecule test {
    units Angstrom
    0 1
    --
    0 1
    C               -0.335506277638437    -0.901224087788913     0.179982934251169
    C               -0.670506277638437    -2.309224087788913     0.657982934251169
    C               -0.778506277638437    -0.170224087788913    -2.454017065748832
    S                0.498493722361563    -0.866224087788913    -1.415017065748831
    H               -1.214506277638437    -0.290224087788913     0.137982934251169
    H                0.351493722361563    -0.480224087788913     0.907982934251169
    H               -1.063506277638437    -2.252224087788913     1.673982934251169
    H                0.261493722361563    -2.873224087788913     0.698982934251169
    H               -1.042506277638437     0.824775912211087    -2.094017065748831
    H               -0.412506277638437    -0.095224087788913    -3.478017065748832
    H               -1.662506277638437    -0.808224087788913    -2.434017065748832
    H               -1.384102277638437    -2.854492087788913     0.022795934251169
    C                0.417493722361563     1.991775912211087     1.806982934251169
    C                0.360493722361563     3.145775912211087     2.800982934251169
    H                1.185493722361563     2.175775912211086     1.053982934251169
    H                0.660493722361563     1.077775912211087     2.349982934251169
    H               -0.544506277638437     1.875775912211087     1.307982934251169
    H               -0.376506277638437     2.913775912211087     3.566982934251169
    H                0.068300722361563     4.066974912211086     2.275611934251168
    H                1.343836722361563     3.280064912211087     3.275326934251169

}
e, wfn = energy('scf', return_wfn=True)
gdma(wfn)
dmavals = variable('DMA DISTRIBUTED MULTIPOLES')
charges = np.array(dmavals)
print(charges)
np.save('SSI-008MET-158LEU-1-dimer.npy', np.array(charges))--------------------------------------------------------------------------

*** tstart() called on ds3
*** at Tue Apr 28 14:31:13 2020

   => Loading Basis Set <=

    Name: CC-PVDZ
    Role: ORBITAL
    Keyword: BASIS
    atoms 1-3, 13-14  entry C          line   138 file /theoryfs2/ds/metcalf/miniconda2/envs/tf2gpu/share/psi4/basis/cc-pvdz.gbs
    atoms 4           entry S          line   598 file /theoryfs2/ds/metcalf/miniconda2/envs/tf2gpu/share/psi4/basis/cc-pvdz.gbs
    atoms 5-12, 15-20 entry H          line    22 file /theoryfs2/ds/metcalf/miniconda2/envs/tf2gpu/share/psi4/basis/cc-pvdz.gbs

         ---------------------------------------------------------
                                   SCF
               by Justin Turney, Rob Parrish, Andy Simmonett
                          and Daniel G. A. Smith
                              RHF Reference
                        1 Threads,    500 MiB Core
         ---------------------------------------------------------

  ==> Geometry <==

    Molecular point group: c1
    Full point group: C1

    Geometry (in Angstrom), charge = 0, multiplicity = 1:

       Center              X                  Y                   Z               Mass
    ------------   -----------------  -----------------  -----------------  -----------------
         C           -0.335506277638    -0.901224087789     0.179982934251    12.000000000000
         C           -0.670506277638    -2.309224087789     0.657982934251    12.000000000000
         C           -0.778506277638    -0.170224087789    -2.454017065749    12.000000000000
         S            0.498493722362    -0.866224087789    -1.415017065749    31.972071174400
         H           -1.214506277638    -0.290224087789     0.137982934251     1.007825032230
         H            0.351493722362    -0.480224087789     0.907982934251     1.007825032230
         H           -1.063506277638    -2.252224087789     1.673982934251     1.007825032230
         H            0.261493722362    -2.873224087789     0.698982934251     1.007825032230
         H           -1.042506277638     0.824775912211    -2.094017065749     1.007825032230
         H           -0.412506277638    -0.095224087789    -3.478017065749     1.007825032230
         H           -1.662506277638    -0.808224087789    -2.434017065749     1.007825032230
         H           -1.384102277638    -2.854492087789     0.022795934251     1.007825032230
         C            0.417493722362     1.991775912211     1.806982934251    12.000000000000
         C            0.360493722362     3.145775912211     2.800982934251    12.000000000000
         H            1.185493722362     2.175775912211     1.053982934251     1.007825032230
         H            0.660493722362     1.077775912211     2.349982934251     1.007825032230
         H           -0.544506277638     1.875775912211     1.307982934251     1.007825032230
         H           -0.376506277638     2.913775912211     3.566982934251     1.007825032230
         H            0.068300722362     4.066974912211     2.275611934251     1.007825032230
         H            1.343836722362     3.280064912211     3.275326934251     1.007825032230

  Running in c1 symmetry.

  Rotational constants: A =      0.10252  B =      0.02916  C =      0.02481 [cm^-1]
  Rotational constants: A =   3073.44227  B =    874.21021  C =    743.67714 [MHz]
  Nuclear repulsion =  295.237990089639254

  Charge       = 0
  Multiplicity = 1
  Electrons    = 60
  Nalpha       = 30
  Nbeta        = 30

  ==> Algorithm <==

  SCF Algorithm Type is PK.
  DIIS enabled.
  MOM disabled.
  Fractional occupation disabled.
  Guess Type is SAD.
  Energy threshold   = 1.00e-06
  Density threshold  = 1.00e-10
  Integral threshold = 0.00e+00

  ==> Primary Basis <==

  Basis Set: CC-PVDZ
    Blend: CC-PVDZ
    Number of shells: 80
    Number of basis function: 158
    Number of Cartesian functions: 164
    Spherical Harmonics?: true
    Max angular momentum: 2

  ==> Pre-Iterations <==

   -------------------------------------------------------
    Irrep   Nso     Nmo     Nalpha   Nbeta   Ndocc  Nsocc
   -------------------------------------------------------
     A        158     158       0       0       0       0
   -------------------------------------------------------
    Total     158     158      30      30      30       0
   -------------------------------------------------------

  ==> Integral Setup <==

  Using integral reordering PK algorithm.
  Sizing the integral batches needed.
  Building batch lookup table.
   Calculation information:
      Number of atoms:                  20
      Number of AO shells:              80
      Number of primitives:            230
      Number of atomic orbitals:       164
      Number of basis functions:       158

      Integral cutoff                 1.00e-12
      Number of threads:                 1

	Batch   1 pq = [       0,    9405] index = [             0,44231715] size =     44231715
	Batch   2 pq = [    9405,   12561] index = [      44231715,78895641] size =     34663926
  Task number: 8
  Buffer size: 11059200
  Buffer per thread: 2
  We computed 4371441 shell quartets total.
  Whereas there are 5250420 unique shell quartets.

  ==> DiskJK: Disk-Based J/K Matrices <==

    J tasked:                  Yes
    K tasked:                  Yes
    wK tasked:                  No
    Memory [MiB]:              375
    Schwarz Cutoff:          1E-12

    OpenMP threads:              1

  Minimum eigenvalue in the overlap matrix is 5.3965801501E-03.
  Using Symmetric Orthogonalization.

  SCF Guess: Superposition of Atomic Densities via on-the-fly atomic UHF.

  ==> Iterations <==

                        Total Energy        Delta E     RMS |[F,P]|

   @RHF iter SAD:  -593.97964914604506   -5.93980e+02   0.00000e+00
   @RHF iter   1:  -594.84373010161869   -8.64081e-01   3.20080e-03 DIIS
   @RHF iter   2:  -594.99656831062487   -1.52838e-01   1.28973e-03 DIIS
   @RHF iter   3:  -595.01963095162637   -2.30626e-02   2.97866e-04 DIIS
   @RHF iter   4:  -595.02193178126674   -2.30083e-03   5.11544e-05 DIIS
   @RHF iter   5:  -595.02198557864483   -5.37974e-05   1.52780e-05 DIIS
   @RHF iter   6:  -595.02199007534182   -4.49670e-06   3.45877e-06 DIIS
   @RHF iter   7:  -595.02199034037164   -2.65030e-07   8.27916e-07 DIIS
   @RHF iter   8:  -595.02199035976764   -1.93960e-08   2.55042e-07 DIIS
   @RHF iter   9:  -595.02199036186789   -2.10025e-09   7.61352e-08 DIIS
   @RHF iter  10:  -595.02199036206684   -1.98952e-10   2.28804e-08 DIIS
   @RHF iter  11:  -595.02199036208754   -2.06910e-11   5.19549e-09 DIIS
   @RHF iter  12:  -595.02199036208754    0.00000e+00   1.85211e-09 DIIS
   @RHF iter  13:  -595.02199036208935   -1.81899e-12   6.79592e-10 DIIS
   @RHF iter  14:  -595.02199036208640    2.95586e-12   1.93085e-10 DIIS
   @RHF iter  15:  -595.02199036208833   -1.93268e-12   5.43059e-11 DIIS
  Energy and wave function converged.

  ==> Post-Iterations <==

    Orbital Energies [Eh]
    ---------------------

    Doubly Occupied:

       1A    -91.928152     2A    -11.253054     3A    -11.250027
       4A    -11.224827     5A    -11.220160     6A    -11.218582
       7A     -8.932913     8A     -6.615024     9A     -6.613390
      10A     -6.611222    11A     -1.080786    12A     -1.022102
      13A     -0.998417    14A     -0.879814    15A     -0.838324
      16A     -0.785566    17A     -0.633255    18A     -0.602369
      19A     -0.601572    20A     -0.596971    21A     -0.585657
      22A     -0.566743    23A     -0.526570    24A     -0.510922
      25A     -0.498875    26A     -0.489548    27A     -0.487359
      28A     -0.471374    29A     -0.419360    30A     -0.325754

    Virtual:

      31A      0.167720    32A      0.183629    33A      0.191111
      34A      0.209058    35A      0.226641    36A      0.244314
      37A      0.249061    38A      0.254188    39A      0.263553
      40A      0.270339    41A      0.274524    42A      0.282971
      43A      0.289518    44A      0.304079    45A      0.324056
      46A      0.335534    47A      0.372343    48A      0.408319
      49A      0.546043    50A      0.567299    51A      0.570235
      52A      0.587507    53A      0.600004    54A      0.600857
      55A      0.607784    56A      0.632174    57A      0.641749
      58A      0.680156    59A      0.696996    60A      0.706473
      61A      0.749968    62A      0.779536    63A      0.807273
      64A      0.814124    65A      0.838388    66A      0.841180
      67A      0.864934    68A      0.868472    69A      0.881593
      70A      0.889878    71A      0.891104    72A      0.894411
      73A      0.897744    74A      0.906699    75A      0.908288
      76A      0.915047    77A      0.927220    78A      0.937538
      79A      0.956576    80A      0.969336    81A      0.975812
      82A      0.980733    83A      1.006825    84A      1.061934
      85A      1.127440    86A      1.138558    87A      1.170629
      88A      1.236874    89A      1.250926    90A      1.278691
      91A      1.324069    92A      1.326000    93A      1.353132
      94A      1.405576    95A      1.471952    96A      1.482497
      97A      1.489182    98A      1.541006    99A      1.585977
     100A      1.647228   101A      1.651039   102A      1.675700
     103A      1.683142   104A      1.689215   105A      1.689384
     106A      1.842213   107A      1.845748   108A      1.867545
     109A      1.877568   110A      1.891465   111A      1.894533
     112A      1.910950   113A      1.929122   114A      1.932479
     115A      1.942365   116A      1.943055   117A      1.954345
     118A      1.955809   119A      1.969966   120A      1.982004
     121A      2.005812   122A      2.008873   123A      2.028008
     124A      2.044367   125A      2.049880   126A      2.101050
     127A      2.101884   128A      2.116580   129A      2.127410
     130A      2.216361   131A      2.244830   132A      2.295083
     133A      2.318328   134A      2.349442   135A      2.363555
     136A      2.423062   137A      2.445803   138A      2.457006
     139A      2.466133   140A      2.488412   141A      2.548312
     142A      2.565132   143A      2.573872   144A      2.580647
     145A      2.749925   146A      2.761408   147A      2.767612
     148A      2.785542   149A      2.793302   150A      2.801804
     151A      2.826565   152A      2.842926   153A      2.848168
     154A      2.850039   155A      2.922413   156A      2.949496
     157A      2.955192   158A      3.005885

    Final Occupation by Irrep:
              A
    DOCC [    30 ]

  @RHF Final Energy:  -595.02199036208833

   => Energetics <=

    Nuclear Repulsion Energy =            295.2379900896392542
    One-Electron Energy =               -1400.9425842822870436
    Two-Electron Energy =                 510.6826038305595148
    Total Energy =                       -595.0219903620883315

Computation Completed

Properties will be evaluated at   0.000000,   0.000000,   0.000000 [a0]

Properties computed using the SCF density matrix

  Nuclear Dipole Moment: [e a0]
     X:    -3.5769      Y:     6.1280      Z:     8.6488

  Electronic Dipole Moment: [e a0]
     X:     2.9760      Y:    -5.9199      Z:    -8.4457

  Dipole Moment: [e a0]
     X:    -0.6009      Y:     0.2081      Z:     0.2032     Total:     0.6676

  Dipole Moment: [D]
     X:    -1.5273      Y:     0.5289      Z:     0.5164     Total:     1.6968

*** tstop() called on ds3 at Tue Apr 28 14:31:56 2020
Module time:
	user time   =      31.86 seconds =       0.53 minutes
	system time =       9.80 seconds =       0.16 minutes
	total time  =         43 seconds =       0.72 minutes
Total time:
	user time   =      31.86 seconds =       0.53 minutes
	system time =       9.80 seconds =       0.16 minutes
	total time  =         43 seconds =       0.72 minutes
                                     G D M A

                                 by Anthony Stone

                           version 2.2.06, 22 June 2011

               Distributed Multipoles from Gaussian wavefunctions

Starting at 14:31:56 on 28 Apr 2020

Using SCF density matrix from file ./SSI/SSI-008MET-158LEU-1-dimer.test.26424.fchk

                         Distributed Multipole Analysis

Standard DMA

Positions and radii in angstrom
Multipole moments in atomic units, ea_0^k for rank k

C          x = -0.335506  y = -0.901224  z =  0.179983 angstrom
           Maximum rank =  0   Radius =  0.650 angstrom
                   Q00  =  -0.208657

C          x = -0.670506  y = -2.309224  z =  0.657983 angstrom
           Maximum rank =  0   Radius =  0.650 angstrom
                   Q00  =  -0.226991

C          x = -0.778506  y = -0.170224  z = -2.454017 angstrom
           Maximum rank =  0   Radius =  0.650 angstrom
                   Q00  =  -0.346202

S          x =  0.498494  y = -0.866224  z = -1.415017 angstrom
           Maximum rank =  0   Radius =  0.650 angstrom
                   Q00  =   0.087260

H          x = -1.214506  y = -0.290224  z =  0.137983 angstrom
           Maximum rank =  0   Radius =  0.325 angstrom
                   Q00  =   0.072943

H          x =  0.351494  y = -0.480224  z =  0.907983 angstrom
           Maximum rank =  0   Radius =  0.325 angstrom
                   Q00  =   0.078497

H          x = -1.063506  y = -2.252224  z =  1.673983 angstrom
           Maximum rank =  0   Radius =  0.325 angstrom
                   Q00  =   0.079177

H          x =  0.261494  y = -2.873224  z =  0.698983 angstrom
           Maximum rank =  0   Radius =  0.325 angstrom
                   Q00  =   0.085836

H          x = -1.042506  y =  0.824776  z = -2.094017 angstrom
           Maximum rank =  0   Radius =  0.325 angstrom
                   Q00  =   0.083316

H          x = -0.412506  y = -0.095224  z = -3.478017 angstrom
           Maximum rank =  0   Radius =  0.325 angstrom
                   Q00  =   0.119925

H          x = -1.662506  y = -0.808224  z = -2.434017 angstrom
           Maximum rank =  0   Radius =  0.325 angstrom
                   Q00  =   0.082699

H          x = -1.384102  y = -2.854492  z =  0.022796 angstrom
           Maximum rank =  0   Radius =  0.325 angstrom
                   Q00  =   0.087108

C          x =  0.417494  y =  1.991776  z =  1.806983 angstrom
           Maximum rank =  0   Radius =  0.650 angstrom
                   Q00  =  -0.237368

C          x =  0.360494  y =  3.145776  z =  2.800983 angstrom
           Maximum rank =  0   Radius =  0.650 angstrom
                   Q00  =  -0.227854

H          x =  1.185494  y =  2.175776  z =  1.053983 angstrom
           Maximum rank =  0   Radius =  0.325 angstrom
                   Q00  =   0.086390

H          x =  0.660494  y =  1.077776  z =  2.349983 angstrom
           Maximum rank =  0   Radius =  0.325 angstrom
                   Q00  =   0.069997

H          x = -0.544506  y =  1.875776  z =  1.307983 angstrom
           Maximum rank =  0   Radius =  0.325 angstrom
                   Q00  =   0.075938

H          x = -0.376506  y =  2.913776  z =  3.566983 angstrom
           Maximum rank =  0   Radius =  0.325 angstrom
                   Q00  =   0.078610

H          x =  0.068301  y =  4.066975  z =  2.275612 angstrom
           Maximum rank =  0   Radius =  0.325 angstrom
                   Q00  =   0.078825

H          x =  1.343837  y =  3.280065  z =  3.275327 angstrom
           Maximum rank =  0   Radius =  0.325 angstrom
                   Q00  =   0.080551

Total multipoles referred to origin at
           x =   0.000000,  y =    0.000000,  z =    0.000000 angstrom
                   Q00  =  -0.000000

Finished at 14:31:56 on 28 Apr 2020

  DMA results are available in the Python driver through the
	  variable('DMA DISTRIBUTED MULTIPOLES')
  and
	  variable('DMA TOTAL MULTIPOLES')
  commands.

    Psi4 stopped on: Tuesday, 28 April 2020 02:31PM
    Psi4 wall time for execution: 0:00:43.19

*** Psi4 exiting successfully. Buy a developer a beer!
