                               Psi4 1.3.2 release

  ==> Input File <==

--------------------------------------------------------------------------
import numpy as np
set {scf_type pk
basis cc-pvdz
d_convergence 10
gdma_switch   0
gdma_limit    0
gdma_origin   [ 0.0,  0.0,  0.0 ]
}
molecule test {
    units Angstrom
    0 1
    --
    0 1
    C                1.041345285426641     0.155708172175752    -0.510685095963125
    C                0.805345285426642     0.124708172175752    -2.009685095963125
    O                2.364345285426642     0.433708172175752    -0.177685095963125
    H                0.402345285427642     0.919708172175752    -0.067685095963125
    H                0.766345285426641    -0.810291827824248    -0.085685095963125
    H               -0.270654714573358     0.004708172175752    -2.155685095963126
    H                2.384345285426642     1.384708172175752     0.048314904036875
    H                1.305945285426642    -0.733997827824248    -2.480885095963125
    H                1.079985285426641     1.083068172175752    -2.474565095963125
    C               -2.097654714573359    -1.122291827824248     1.107314904036875
    C               -2.281654714573358     0.306708172175752     1.586314904036875
    H               -2.910654714573358    -1.753291827824248     1.466314904036875
    H               -2.098654714573359    -1.133291827824248     0.018314904036875
    H               -1.145654714573358    -1.521291827824248     1.453314904036875
    H               -1.453654714573358     0.882708172175752     1.175314904036875
    H               -2.230064714572358     0.407028172175752     2.680514904036875
    H               -3.198044714573358     0.759118172175752     1.179434904036875

}
e, wfn = energy('scf', return_wfn=True)
gdma(wfn)
dmavals = variable('DMA DISTRIBUTED MULTIPOLES')
charges = np.array(dmavals)
print(charges)
np.save('SSI-138SER-169VAL-1-dimer.npy', np.array(charges))--------------------------------------------------------------------------

*** tstart() called on ds3
*** at Mon Apr 27 22:59:22 2020

   => Loading Basis Set <=

    Name: CC-PVDZ
    Role: ORBITAL
    Keyword: BASIS
    atoms 1-2, 10-11 entry C          line   138 file /theoryfs2/ds/metcalf/miniconda2/envs/tf2gpu/share/psi4/basis/cc-pvdz.gbs
    atoms 3          entry O          line   198 file /theoryfs2/ds/metcalf/miniconda2/envs/tf2gpu/share/psi4/basis/cc-pvdz.gbs
    atoms 4-9, 12-17 entry H          line    22 file /theoryfs2/ds/metcalf/miniconda2/envs/tf2gpu/share/psi4/basis/cc-pvdz.gbs

         ---------------------------------------------------------
                                   SCF
               by Justin Turney, Rob Parrish, Andy Simmonett
                          and Daniel G. A. Smith
                              RHF Reference
                        1 Threads,    500 MiB Core
         ---------------------------------------------------------

  ==> Geometry <==

    Molecular point group: c1
    Full point group: C1

    Geometry (in Angstrom), charge = 0, multiplicity = 1:

       Center              X                  Y                   Z               Mass
    ------------   -----------------  -----------------  -----------------  -----------------
         C            1.041345285427     0.155708172176    -0.510685095963    12.000000000000
         C            0.805345285427     0.124708172176    -2.009685095963    12.000000000000
         O            2.364345285427     0.433708172176    -0.177685095963    15.994914619570
         H            0.402345285428     0.919708172176    -0.067685095963     1.007825032230
         H            0.766345285427    -0.810291827824    -0.085685095963     1.007825032230
         H           -0.270654714573     0.004708172176    -2.155685095963     1.007825032230
         H            2.384345285427     1.384708172176     0.048314904037     1.007825032230
         H            1.305945285427    -0.733997827824    -2.480885095963     1.007825032230
         H            1.079985285427     1.083068172176    -2.474565095963     1.007825032230
         C           -2.097654714573    -1.122291827824     1.107314904037    12.000000000000
         C           -2.281654714573     0.306708172176     1.586314904037    12.000000000000
         H           -2.910654714573    -1.753291827824     1.466314904037     1.007825032230
         H           -2.098654714573    -1.133291827824     0.018314904037     1.007825032230
         H           -1.145654714573    -1.521291827824     1.453314904037     1.007825032230
         H           -1.453654714573     0.882708172176     1.175314904037     1.007825032230
         H           -2.230064714572     0.407028172176     2.680514904037     1.007825032230
         H           -3.198044714573     0.759118172176     1.179434904037     1.007825032230

  Running in c1 symmetry.

  Rotational constants: A =      0.21435  B =      0.04530  C =      0.04155 [cm^-1]
  Rotational constants: A =   6426.08871  B =   1358.11677  C =   1245.52947 [MHz]
  Nuclear repulsion =  180.776996882052941

  Charge       = 0
  Multiplicity = 1
  Electrons    = 44
  Nalpha       = 22
  Nbeta        = 22

  ==> Algorithm <==

  SCF Algorithm Type is PK.
  DIIS enabled.
  MOM disabled.
  Fractional occupation disabled.
  Guess Type is SAD.
  Energy threshold   = 1.00e-06
  Density threshold  = 1.00e-10
  Integral threshold = 0.00e+00

  ==> Primary Basis <==

  Basis Set: CC-PVDZ
    Blend: CC-PVDZ
    Number of shells: 66
    Number of basis function: 130
    Number of Cartesian functions: 135
    Spherical Harmonics?: true
    Max angular momentum: 2

  ==> Pre-Iterations <==

   -------------------------------------------------------
    Irrep   Nso     Nmo     Nalpha   Nbeta   Ndocc  Nsocc
   -------------------------------------------------------
     A        130     130       0       0       0       0
   -------------------------------------------------------
    Total     130     130      22      22      22       0
   -------------------------------------------------------

  ==> Integral Setup <==

  Using integral reordering PK algorithm.
  Sizing the integral batches needed.
  Building batch lookup table.
   Calculation information:
      Number of atoms:                  17
      Number of AO shells:              66
      Number of primitives:            170
      Number of atomic orbitals:       135
      Number of basis functions:       130

      Integral cutoff                 1.00e-12
      Number of threads:                 1

	Batch   1 pq = [       0,    8515] index = [             0,36256870] size =     36256870
  Task number: 4
  Buffer size: 11059200
  Buffer per thread: 2
  We computed 2094477 shell quartets total.
  Whereas there are 2445366 unique shell quartets.

  ==> DiskJK: Disk-Based J/K Matrices <==

    J tasked:                  Yes
    K tasked:                  Yes
    wK tasked:                  No
    Memory [MiB]:              375
    Schwarz Cutoff:          1E-12

    OpenMP threads:              1

  Minimum eigenvalue in the overlap matrix is 5.8535853185E-03.
  Using Symmetric Orthogonalization.

  SCF Guess: Superposition of Atomic Densities via on-the-fly atomic UHF.

  ==> Iterations <==

                        Total Energy        Delta E     RMS |[F,P]|

   @RHF iter SAD:  -232.16514079584095   -2.32165e+02   0.00000e+00
   @RHF iter   1:  -233.13440131467792   -9.69261e-01   4.25852e-03 DIIS
   @RHF iter   2:  -233.28715585287179   -1.52755e-01   1.98267e-03 DIIS
   @RHF iter   3:  -233.31676018878244   -2.96043e-02   3.80505e-04 DIIS
   @RHF iter   4:  -233.31885695087806   -2.09676e-03   1.21721e-04 DIIS
   @RHF iter   5:  -233.31899291894538   -1.35968e-04   2.46748e-05 DIIS
   @RHF iter   6:  -233.31900119476705   -8.27582e-06   4.46405e-06 DIIS
   @RHF iter   7:  -233.31900157238752   -3.77620e-07   1.13376e-06 DIIS
   @RHF iter   8:  -233.31900159643877   -2.40512e-08   3.85937e-07 DIIS
   @RHF iter   9:  -233.31900159952181   -3.08304e-09   9.98620e-08 DIIS
   @RHF iter  10:  -233.31900159977346   -2.51646e-10   2.08952e-08 DIIS
   @RHF iter  11:  -233.31900159978306   -9.60654e-12   5.64201e-09 DIIS
   @RHF iter  12:  -233.31900159978372   -6.53699e-13   1.63375e-09 DIIS
   @RHF iter  13:  -233.31900159978409   -3.69482e-13   4.48570e-10 DIIS
   @RHF iter  14:  -233.31900159978437   -2.84217e-13   1.57680e-10 DIIS
   @RHF iter  15:  -233.31900159978397    3.97904e-13   4.66457e-11 DIIS
  Energy and wave function converged.

  ==> Post-Iterations <==

    Orbital Energies [Eh]
    ---------------------

    Doubly Occupied:

       1A    -20.548577     2A    -11.271875     3A    -11.222162
       4A    -11.220107     5A    -11.219246     6A     -1.359817
       7A     -1.025043     8A     -1.008008     9A     -0.841053
      10A     -0.834447    11A     -0.696956    12A     -0.630139
      13A     -0.603704    14A     -0.600082    15A     -0.577165
      16A     -0.555047    17A     -0.517143    18A     -0.508952
      19A     -0.491461    20A     -0.488896    21A     -0.468069
      22A     -0.429821

    Virtual:

      23A      0.163639    24A      0.188681    25A      0.207660
      26A      0.222452    27A      0.241689    28A      0.243243
      29A      0.262178    30A      0.267692    31A      0.276389
      32A      0.317592    33A      0.327724    34A      0.365938
      35A      0.396073    36A      0.408346    37A      0.425641
      38A      0.577993    39A      0.598444    40A      0.600306
      41A      0.611628    42A      0.656229    43A      0.668712
      44A      0.692898    45A      0.701760    46A      0.748826
      47A      0.799894    48A      0.813977    49A      0.842104
      50A      0.851627    51A      0.886848    52A      0.889542
      53A      0.892948    54A      0.895191    55A      0.900183
      56A      0.916844    57A      0.926671    58A      0.942695
      59A      0.972563    60A      0.974026    61A      0.997887
      62A      1.122000    63A      1.128133    64A      1.150957
      65A      1.160255    66A      1.177267    67A      1.244932
      68A      1.292933    69A      1.336428    70A      1.361425
      71A      1.458966    72A      1.464286    73A      1.480705
      74A      1.534730    75A      1.573381    76A      1.618009
      77A      1.660634    78A      1.678130    79A      1.684417
      80A      1.694605    81A      1.755802    82A      1.844560
      83A      1.858279    84A      1.870926    85A      1.872430
      86A      1.888837    87A      1.912032    88A      1.933389
      89A      1.942871    90A      1.946459    91A      1.952040
      92A      1.960945    93A      1.966724    94A      1.981460
      95A      1.997872    96A      2.037209    97A      2.061607
      98A      2.074502    99A      2.113639   100A      2.123005
     101A      2.159275   102A      2.283110   103A      2.302138
     104A      2.309653   105A      2.317756   106A      2.401273
     107A      2.438964   108A      2.446959   109A      2.466122
     110A      2.505972   111A      2.544230   112A      2.549339
     113A      2.553632   114A      2.578855   115A      2.752893
     116A      2.759049   117A      2.771507   118A      2.798208
     119A      2.818212   120A      2.851737   121A      2.877573
     122A      2.900527   123A      2.922813   124A      2.945608
     125A      2.976842   126A      3.336885   127A      3.419409
     128A      3.500838   129A      3.646589   130A      4.086683

    Final Occupation by Irrep:
              A
    DOCC [    22 ]

  @RHF Final Energy:  -233.31900159978397

   => Energetics <=

    Nuclear Repulsion Energy =            180.7769968820529414
    One-Electron Energy =                -673.9564575157457966
    Two-Electron Energy =                 259.8604590339089100
    Total Energy =                       -233.3190015997839737

Computation Completed

Properties will be evaluated at   0.000000,   0.000000,   0.000000 [a0]

Properties computed using the SCF density matrix

  Nuclear Dipole Moment: [e a0]
     X:    -6.8963      Y:    -0.4771      Z:     0.7088

  Electronic Dipole Moment: [e a0]
     X:     6.3951      Y:     0.9440      Z:    -0.6891

  Dipole Moment: [e a0]
     X:    -0.5012      Y:     0.4669      Z:     0.0197     Total:     0.6853

  Dipole Moment: [D]
     X:    -1.2740      Y:     1.1868      Z:     0.0502     Total:     1.7419

*** tstop() called on ds3 at Mon Apr 27 22:59:41 2020
Module time:
	user time   =      13.61 seconds =       0.23 minutes
	system time =       5.98 seconds =       0.10 minutes
	total time  =         19 seconds =       0.32 minutes
Total time:
	user time   =      13.61 seconds =       0.23 minutes
	system time =       5.98 seconds =       0.10 minutes
	total time  =         19 seconds =       0.32 minutes
                                     G D M A

                                 by Anthony Stone

                           version 2.2.06, 22 June 2011

               Distributed Multipoles from Gaussian wavefunctions

Starting at 22:59:41 on 27 Apr 2020

Using SCF density matrix from file ./SSI/SSI-138SER-169VAL-1-dimer.test.13515.fchk

                         Distributed Multipole Analysis

Standard DMA

Positions and radii in angstrom
Multipole moments in atomic units, ea_0^k for rank k

C          x =  1.041345  y =  0.155708  z = -0.510685 angstrom
           Maximum rank =  0   Radius =  0.650 angstrom
                   Q00  =   0.168360

C          x =  0.805345  y =  0.124708  z = -2.009685 angstrom
           Maximum rank =  0   Radius =  0.650 angstrom
                   Q00  =  -0.271406

O          x =  2.364345  y =  0.433708  z = -0.177685 angstrom
           Maximum rank =  0   Radius =  0.650 angstrom
                   Q00  =  -0.636071

H          x =  0.402345  y =  0.919708  z = -0.067685 angstrom
           Maximum rank =  0   Radius =  0.325 angstrom
                   Q00  =   0.025160

H          x =  0.766345  y = -0.810292  z = -0.085685 angstrom
           Maximum rank =  0   Radius =  0.325 angstrom
                   Q00  =   0.068455

H          x = -0.270655  y =  0.004708  z = -2.155685 angstrom
           Maximum rank =  0   Radius =  0.325 angstrom
                   Q00  =   0.073897

H          x =  2.384345  y =  1.384708  z =  0.048315 angstrom
           Maximum rank =  0   Radius =  0.325 angstrom
                   Q00  =   0.395686

H          x =  1.305945  y = -0.733998  z = -2.480885 angstrom
           Maximum rank =  0   Radius =  0.325 angstrom
                   Q00  =   0.094395

H          x =  1.079985  y =  1.083068  z = -2.474565 angstrom
           Maximum rank =  0   Radius =  0.325 angstrom
                   Q00  =   0.081822

C          x = -2.097655  y = -1.122292  z =  1.107315 angstrom
           Maximum rank =  0   Radius =  0.650 angstrom
                   Q00  =  -0.235610

C          x = -2.281655  y =  0.306708  z =  1.586315 angstrom
           Maximum rank =  0   Radius =  0.650 angstrom
                   Q00  =  -0.237264

H          x = -2.910655  y = -1.753292  z =  1.466315 angstrom
           Maximum rank =  0   Radius =  0.325 angstrom
                   Q00  =   0.081018

H          x = -2.098655  y = -1.133292  z =  0.018315 angstrom
           Maximum rank =  0   Radius =  0.325 angstrom
                   Q00  =   0.076189

H          x = -1.145655  y = -1.521292  z =  1.453315 angstrom
           Maximum rank =  0   Radius =  0.325 angstrom
                   Q00  =   0.082830

H          x = -1.453655  y =  0.882708  z =  1.175315 angstrom
           Maximum rank =  0   Radius =  0.325 angstrom
                   Q00  =   0.069439

H          x = -2.230065  y =  0.407028  z =  2.680515 angstrom
           Maximum rank =  0   Radius =  0.325 angstrom
                   Q00  =   0.083178

H          x = -3.198045  y =  0.759118  z =  1.179435 angstrom
           Maximum rank =  0   Radius =  0.325 angstrom
                   Q00  =   0.079923

Total multipoles referred to origin at
           x =   0.000000,  y =    0.000000,  z =    0.000000 angstrom
                   Q00  =  -0.000000

Finished at 22:59:41 on 27 Apr 2020

  DMA results are available in the Python driver through the
	  variable('DMA DISTRIBUTED MULTIPOLES')
  and
	  variable('DMA TOTAL MULTIPOLES')
  commands.

    Psi4 stopped on: Monday, 27 April 2020 10:59PM
    Psi4 wall time for execution: 0:00:19.45

*** Psi4 exiting successfully. Buy a developer a beer!
