                               Psi4 1.3.2 release

  ==> Input File <==

--------------------------------------------------------------------------
import numpy as np
set {scf_type pk
basis cc-pvdz
d_convergence 10
gdma_switch   0
gdma_limit    0
gdma_origin   [ 0.0,  0.0,  0.0 ]
}
molecule test {
    units Angstrom
    1 1
    --
    1 1
    C                0.422100760483133    -1.009695894955276    -1.132243832412483
    C                1.162100760483133    -2.275695894955276    -1.455243832412483
    C               -0.497899239516867    -1.149695894955276     0.030756167587517
    C               -1.790899239516867    -1.552695894955276     0.051756167587517
    C               -1.221899239516867    -0.973695894955276     2.091756167587517
    N               -0.159899239516867    -0.767695894955276     1.312756167587517
    N               -2.235899239516867    -1.408695894955276     1.336756167587517
    H                1.133100760483133    -0.210695894955276    -0.928243832412483
    H               -0.163899239516867    -0.706695894955276    -2.000243832412483
    H                1.818100760483133    -2.072695894955276    -2.305243832412483
    H               -2.364899239516867    -1.868695894955276    -0.806243832412483
    H               -1.286899239516867    -0.728695894955276     3.144756167587517
    H               -3.190899239516867    -1.510695894955276     1.659756167587517
    H                0.451690760483133    -3.070755894955277    -1.725803832412483
    H                1.808470760483133    -2.632945894955276    -0.640033832412483
    C                1.168100760483133     2.752304105044723    -1.238243832412483
    C                0.018100760483133     2.759304105044723    -0.257243832412483
    N                2.458100760483133     2.751304105044724    -0.434243832412483
    H                1.102100760483133     1.864304105044724    -1.876243832412483
    H                1.109100760483133     3.641304105044723    -1.876243832412483
    H                0.106100760483133     3.643304105044723     0.378756167587517
    H                0.081100760483133     1.875304105044724     0.378756167587517
    H                2.493100760483133     1.984304105044724     0.225756167587517
    H                3.266100760483133     2.683304105044724    -1.043243832412483
    H                2.559100760483133     3.609304105044723     0.095756167587517
    H               -0.972559239516867     2.776084105044724    -0.735063832412483

}
e, wfn = energy('scf', return_wfn=True)
gdma(wfn)
dmavals = variable('DMA DISTRIBUTED MULTIPOLES')
charges = np.array(dmavals)
print(charges)
np.save('SSI-068HIE-075LYS-1-dimer.npy', np.array(charges))--------------------------------------------------------------------------

*** tstart() called on ds3
*** at Tue Apr 28 20:54:25 2020

   => Loading Basis Set <=

    Name: CC-PVDZ
    Role: ORBITAL
    Keyword: BASIS
    atoms 1-5, 16-17  entry C          line   138 file /theoryfs2/ds/metcalf/miniconda2/envs/tf2gpu/share/psi4/basis/cc-pvdz.gbs
    atoms 6-7, 18     entry N          line   168 file /theoryfs2/ds/metcalf/miniconda2/envs/tf2gpu/share/psi4/basis/cc-pvdz.gbs
    atoms 8-15, 19-26 entry H          line    22 file /theoryfs2/ds/metcalf/miniconda2/envs/tf2gpu/share/psi4/basis/cc-pvdz.gbs

         ---------------------------------------------------------
                                   SCF
               by Justin Turney, Rob Parrish, Andy Simmonett
                          and Daniel G. A. Smith
                              RHF Reference
                        1 Threads,    500 MiB Core
         ---------------------------------------------------------

  ==> Geometry <==

    Molecular point group: c1
    Full point group: C1

    Geometry (in Angstrom), charge = 1, multiplicity = 1:

       Center              X                  Y                   Z               Mass
    ------------   -----------------  -----------------  -----------------  -----------------
         C            0.422100760483    -1.009695894955    -1.132243832412    12.000000000000
         C            1.162100760483    -2.275695894955    -1.455243832412    12.000000000000
         C           -0.497899239517    -1.149695894955     0.030756167588    12.000000000000
         C           -1.790899239517    -1.552695894955     0.051756167588    12.000000000000
         C           -1.221899239517    -0.973695894955     2.091756167588    12.000000000000
         N           -0.159899239517    -0.767695894955     1.312756167588    14.003074004430
         N           -2.235899239517    -1.408695894955     1.336756167588    14.003074004430
         H            1.133100760483    -0.210695894955    -0.928243832412     1.007825032230
         H           -0.163899239517    -0.706695894955    -2.000243832412     1.007825032230
         H            1.818100760483    -2.072695894955    -2.305243832412     1.007825032230
         H           -2.364899239517    -1.868695894955    -0.806243832412     1.007825032230
         H           -1.286899239517    -0.728695894955     3.144756167588     1.007825032230
         H           -3.190899239517    -1.510695894955     1.659756167588     1.007825032230
         H            0.451690760483    -3.070755894955    -1.725803832412     1.007825032230
         H            1.808470760483    -2.632945894955    -0.640033832412     1.007825032230
         C            1.168100760483     2.752304105045    -1.238243832412    12.000000000000
         C            0.018100760483     2.759304105045    -0.257243832412    12.000000000000
         N            2.458100760483     2.751304105045    -0.434243832412    14.003074004430
         H            1.102100760483     1.864304105045    -1.876243832412     1.007825032230
         H            1.109100760483     3.641304105045    -1.876243832412     1.007825032230
         H            0.106100760483     3.643304105045     0.378756167588     1.007825032230
         H            0.081100760483     1.875304105045     0.378756167588     1.007825032230
         H            2.493100760483     1.984304105045     0.225756167588     1.007825032230
         H            3.266100760483     2.683304105045    -1.043243832412     1.007825032230
         H            2.559100760483     3.609304105045     0.095756167588     1.007825032230
         H           -0.972559239517     2.776084105045    -0.735063832412     1.007825032230

  Running in c1 symmetry.

  Rotational constants: A =      0.05175  B =      0.02110  C =      0.01726 [cm^-1]
  Rotational constants: A =   1551.40518  B =    632.56904  C =    517.30106 [MHz]
  Nuclear repulsion =  534.372430524461606

  Charge       = 1
  Multiplicity = 1
  Electrons    = 78
  Nalpha       = 39
  Nbeta        = 39

  ==> Algorithm <==

  SCF Algorithm Type is PK.
  DIIS enabled.
  MOM disabled.
  Fractional occupation disabled.
  Guess Type is SAD.
  Energy threshold   = 1.00e-06
  Density threshold  = 1.00e-10
  Integral threshold = 0.00e+00

  ==> Primary Basis <==

  Basis Set: CC-PVDZ
    Blend: CC-PVDZ
    Number of shells: 108
    Number of basis function: 220
    Number of Cartesian functions: 230
    Spherical Harmonics?: true
    Max angular momentum: 2

  ==> Pre-Iterations <==

   -------------------------------------------------------
    Irrep   Nso     Nmo     Nalpha   Nbeta   Ndocc  Nsocc
   -------------------------------------------------------
     A        220     220       0       0       0       0
   -------------------------------------------------------
    Total     220     220      39      39      39       0
   -------------------------------------------------------

  ==> Integral Setup <==

  Using integral reordering PK algorithm.
  Sizing the integral batches needed.
  Building batch lookup table.
   Calculation information:
      Number of atoms:                  26
      Number of AO shells:             108
      Number of primitives:            300
      Number of atomic orbitals:       230
      Number of basis functions:       220

      Integral cutoff                 1.00e-12
      Number of threads:                 1

	Batch   1 pq = [       0,    9405] index = [             0,44231715] size =     44231715
	Batch   2 pq = [    9405,   13301] index = [      44231715,88464951] size =     44233236
	Batch   3 pq = [   13301,   16290] index = [      88464951,132690195] size =     44225244
	Batch   4 pq = [   16290,   18810] index = [     132690195,176917455] size =     44227260
	Batch   5 pq = [   18810,   21030] index = [     176917455,221140965] size =     44223510
	Batch   6 pq = [   21030,   23037] index = [     221140965,265363203] size =     44222238
	Batch   7 pq = [   23037,   24310] index = [     265363203,295500205] size =     30137002
  Task number: 27
  Buffer size: 11059200
  Buffer per thread: 2
  We computed 15556057 shell quartets total.
  Whereas there are 17325441 unique shell quartets.

  ==> DiskJK: Disk-Based J/K Matrices <==

    J tasked:                  Yes
    K tasked:                  Yes
    wK tasked:                  No
    Memory [MiB]:              375
    Schwarz Cutoff:          1E-12

    OpenMP threads:              1

  Minimum eigenvalue in the overlap matrix is 1.1592130930E-03.
  Using Symmetric Orthogonalization.

  SCF Guess: Superposition of Atomic Densities via on-the-fly atomic UHF.

  ==> Iterations <==

                        Total Energy        Delta E     RMS |[F,P]|

   @RHF iter SAD:  -437.08882715298074   -4.37089e+02   0.00000e+00
   @RHF iter   1:  -437.29355070932002   -2.04724e-01   2.80352e-03 DIIS
   @RHF iter   2:  -437.50450310158305   -2.10952e-01   1.30885e-03 DIIS
   @RHF iter   3:  -437.54438214824819   -3.98790e-02   4.03818e-04 DIIS
   @RHF iter   4:  -437.54914397146291   -4.76182e-03   1.51460e-04 DIIS
   @RHF iter   5:  -437.54975223785959   -6.08266e-04   2.39352e-05 DIIS
   @RHF iter   6:  -437.54977912108552   -2.68832e-05   9.51651e-06 DIIS
   @RHF iter   7:  -437.54978251656968   -3.39548e-06   3.04611e-06 DIIS
   @RHF iter   8:  -437.54978318927118   -6.72702e-07   1.21241e-06 DIIS
   @RHF iter   9:  -437.54978332061347   -1.31342e-07   4.75810e-07 DIIS
   @RHF iter  10:  -437.54978333870304   -1.80896e-08   1.76872e-07 DIIS
   @RHF iter  11:  -437.54978334169948   -2.99644e-09   5.63097e-08 DIIS
   @RHF iter  12:  -437.54978334197091   -2.71427e-10   2.15247e-08 DIIS
   @RHF iter  13:  -437.54978334200257   -3.16618e-11   7.25485e-09 DIIS
   @RHF iter  14:  -437.54978334200632   -3.75167e-12   3.08230e-09 DIIS
   @RHF iter  15:  -437.54978334200712   -7.95808e-13   1.12111e-09 DIIS
   @RHF iter  16:  -437.54978334200825   -1.13687e-12   3.93290e-10 DIIS
   @RHF iter  17:  -437.54978334200803    2.27374e-13   1.25874e-10 DIIS
   @RHF iter  18:  -437.54978334200609    1.93268e-12   4.44636e-11 DIIS
  Energy and wave function converged.

  ==> Post-Iterations <==

    Orbital Energies [Eh]
    ---------------------

    Doubly Occupied:

       1A    -15.892371     2A    -15.717340     3A    -15.634659
       4A    -11.473322     5A    -11.392435     6A    -11.387954
       7A    -11.347510     8A    -11.337304     9A    -11.335761
      10A    -11.312683    11A     -1.507128    12A     -1.439377
      13A     -1.256091    14A     -1.210448    15A     -1.162305
      16A     -1.086269    17A     -1.040762    18A     -0.966450
      19A     -0.961796    20A     -0.952749    21A     -0.916125
      22A     -0.857930    23A     -0.848746    24A     -0.838119
      25A     -0.788166    26A     -0.729521    27A     -0.711039
      28A     -0.707276    29A     -0.694740    30A     -0.688343
      31A     -0.683959    32A     -0.671110    33A     -0.665998
      34A     -0.625342    35A     -0.593212    36A     -0.581416
      37A     -0.518862    38A     -0.481130    39A     -0.406932

    Virtual:

      40A     -0.037049    41A      0.026399    42A      0.033612
      43A      0.043248    44A      0.081166    45A      0.088032
      46A      0.094037    47A      0.096223    48A      0.111584
      49A      0.124036    50A      0.132724    51A      0.140622
      52A      0.144782    53A      0.151488    54A      0.163081
      55A      0.180687    56A      0.190166    57A      0.194056
      58A      0.201596    59A      0.219099    60A      0.286805
      61A      0.299752    62A      0.311244    63A      0.341331
      64A      0.379388    65A      0.389486    66A      0.399779
      67A      0.422792    68A      0.430438    69A      0.446651
      70A      0.473928    71A      0.499775    72A      0.528532
      73A      0.531620    74A      0.556112    75A      0.579969
      76A      0.593660    77A      0.605462    78A      0.610240
      79A      0.617815    80A      0.648597    81A      0.659577
      82A      0.669644    83A      0.671656    84A      0.677655
      85A      0.701469    86A      0.713432    87A      0.720235
      88A      0.727025    89A      0.745097    90A      0.767015
      91A      0.769459    92A      0.790251    93A      0.793208
      94A      0.796617    95A      0.798035    96A      0.819253
      97A      0.823530    98A      0.840620    99A      0.850965
     100A      0.853811   101A      0.856883   102A      0.870520
     103A      0.885826   104A      0.904580   105A      0.922912
     106A      0.943749   107A      0.951146   108A      0.962969
     109A      0.974250   110A      0.996609   111A      1.003564
     112A      1.030029   113A      1.036960   114A      1.050933
     115A      1.128171   116A      1.167885   117A      1.184737
     118A      1.191506   119A      1.200090   120A      1.222329
     121A      1.237452   122A      1.264488   123A      1.286788
     124A      1.303802   125A      1.312287   126A      1.349942
     127A      1.364195   128A      1.403868   129A      1.421933
     130A      1.453205   131A      1.456526   132A      1.476779
     133A      1.481952   134A      1.508385   135A      1.536254
     136A      1.567542   137A      1.597904   138A      1.605420
     139A      1.646360   140A      1.657172   141A      1.670822
     142A      1.682289   143A      1.707404   144A      1.722896
     145A      1.734491   146A      1.743629   147A      1.756138
     148A      1.769963   149A      1.787719   150A      1.790544
     151A      1.794634   152A      1.798752   153A      1.810765
     154A      1.829996   155A      1.836506   156A      1.853749
     157A      1.871792   158A      1.881736   159A      1.892765
     160A      1.899625   161A      1.913919   162A      1.921645
     163A      1.931918   164A      1.935177   165A      1.945050
     166A      1.959794   167A      1.971672   168A      1.981367
     169A      2.007957   170A      2.015279   171A      2.038940
     172A      2.051300   173A      2.092346   174A      2.123723
     175A      2.149628   176A      2.162354   177A      2.170932
     178A      2.186922   179A      2.197449   180A      2.223155
     181A      2.256792   182A      2.296308   183A      2.315566
     184A      2.343924   185A      2.347479   186A      2.361061
     187A      2.380860   188A      2.399094   189A      2.413893
     190A      2.434881   191A      2.462178   192A      2.497240
     193A      2.510575   194A      2.523340   195A      2.553572
     196A      2.573367   197A      2.620557   198A      2.640804
     199A      2.663688   200A      2.667456   201A      2.671543
     202A      2.693412   203A      2.711678   204A      2.738811
     205A      2.762897   206A      2.775958   207A      2.789109
     208A      2.807548   209A      2.827378   210A      2.853672
     211A      2.857715   212A      2.870738   213A      2.920785
     214A      2.989580   215A      3.069453   216A      3.104353
     217A      3.136699   218A      3.167068   219A      3.367450
     220A      3.692527

    Final Occupation by Irrep:
              A
    DOCC [    39 ]

  @RHF Final Energy:  -437.54978334200609

   => Energetics <=

    Nuclear Repulsion Energy =            534.3724305244616062
    One-Electron Energy =               -1640.9990667745364590
    Two-Electron Energy =                 669.0768529080687586
    Total Energy =                       -437.5497833420060942

Computation Completed

Properties will be evaluated at   0.000000,   0.000000,   0.000000 [a0]

Properties computed using the SCF density matrix

  Nuclear Dipole Moment: [e a0]
     X:     7.4517      Y:     8.6937      Z:    -7.5559

  Electronic Dipole Moment: [e a0]
     X:    -5.2438      Y:    -4.3570      Z:     6.7703

  Dipole Moment: [e a0]
     X:     2.2079      Y:     4.3367      Z:    -0.7856     Total:     4.9293

  Dipole Moment: [D]
     X:     5.6118      Y:    11.0227      Z:    -1.9968     Total:    12.5291

*** tstop() called on ds3 at Tue Apr 28 20:58:36 2020
Module time:
	user time   =     106.45 seconds =       1.77 minutes
	system time =      43.94 seconds =       0.73 minutes
	total time  =        251 seconds =       4.18 minutes
Total time:
	user time   =     106.45 seconds =       1.77 minutes
	system time =      43.94 seconds =       0.73 minutes
	total time  =        251 seconds =       4.18 minutes
                                     G D M A

                                 by Anthony Stone

                           version 2.2.06, 22 June 2011

               Distributed Multipoles from Gaussian wavefunctions

Starting at 20:58:36 on 28 Apr 2020

Using SCF density matrix from file ./SSI/SSI-068HIE-075LYS-1-dimer.test.3443.fchk

                         Distributed Multipole Analysis

Standard DMA

Positions and radii in angstrom
Multipole moments in atomic units, ea_0^k for rank k

C          x =  0.422101  y = -1.009696  z = -1.132244 angstrom
           Maximum rank =  0   Radius =  0.650 angstrom
                   Q00  =   0.005612

C          x =  1.162101  y = -2.275696  z = -1.455244 angstrom
           Maximum rank =  0   Radius =  0.650 angstrom
                   Q00  =  -0.239969

C          x = -0.497899  y = -1.149696  z =  0.030756 angstrom
           Maximum rank =  0   Radius =  0.650 angstrom
                   Q00  =   0.181981

C          x = -1.790899  y = -1.552696  z =  0.051756 angstrom
           Maximum rank =  0   Radius =  0.650 angstrom
                   Q00  =   0.034631

C          x = -1.221899  y = -0.973696  z =  2.091756 angstrom
           Maximum rank =  0   Radius =  0.650 angstrom
                   Q00  =   0.466278

N          x = -0.159899  y = -0.767696  z =  1.312756 angstrom
           Maximum rank =  0   Radius =  0.650 angstrom
                   Q00  =  -0.793356

N          x = -2.235899  y = -1.408696  z =  1.336756 angstrom
           Maximum rank =  0   Radius =  0.650 angstrom
                   Q00  =  -0.483413

H          x =  1.133101  y = -0.210696  z = -0.928244 angstrom
           Maximum rank =  0   Radius =  0.325 angstrom
                   Q00  =   0.014753

H          x = -0.163899  y = -0.706696  z = -2.000244 angstrom
           Maximum rank =  0   Radius =  0.325 angstrom
                   Q00  =   0.065027

H          x =  1.818101  y = -2.072696  z = -2.305244 angstrom
           Maximum rank =  0   Radius =  0.325 angstrom
                   Q00  =   0.075473

H          x = -2.364899  y = -1.868696  z = -0.806244 angstrom
           Maximum rank =  0   Radius =  0.325 angstrom
                   Q00  =   0.112147

H          x = -1.286899  y = -0.728696  z =  3.144756 angstrom
           Maximum rank =  0   Radius =  0.325 angstrom
                   Q00  =   0.134720

H          x = -3.190899  y = -1.510696  z =  1.659756 angstrom
           Maximum rank =  0   Radius =  0.325 angstrom
                   Q00  =   0.240124

H          x =  0.451691  y = -3.070756  z = -1.725804 angstrom
           Maximum rank =  0   Radius =  0.325 angstrom
                   Q00  =   0.097983

H          x =  1.808471  y = -2.632946  z = -0.640034 angstrom
           Maximum rank =  0   Radius =  0.325 angstrom
                   Q00  =   0.095756

C          x =  1.168101  y =  2.752304  z = -1.238244 angstrom
           Maximum rank =  0   Radius =  0.650 angstrom
                   Q00  =  -0.020367

C          x =  0.018101  y =  2.759304  z = -0.257244 angstrom
           Maximum rank =  0   Radius =  0.650 angstrom
                   Q00  =  -0.213951

N          x =  2.458101  y =  2.751304  z = -0.434244 angstrom
           Maximum rank =  0   Radius =  0.650 angstrom
                   Q00  =  -0.173491

H          x =  1.102101  y =  1.864304  z = -1.876244 angstrom
           Maximum rank =  0   Radius =  0.325 angstrom
                   Q00  =   0.140396

H          x =  1.109101  y =  3.641304  z = -1.876244 angstrom
           Maximum rank =  0   Radius =  0.325 angstrom
                   Q00  =   0.129313

H          x =  0.106101  y =  3.643304  z =  0.378756 angstrom
           Maximum rank =  0   Radius =  0.325 angstrom
                   Q00  =   0.089096

H          x =  0.081101  y =  1.875304  z =  0.378756 angstrom
           Maximum rank =  0   Radius =  0.325 angstrom
                   Q00  =   0.110783

H          x =  2.493101  y =  1.984304  z =  0.225756 angstrom
           Maximum rank =  0   Radius =  0.325 angstrom
                   Q00  =   0.270428

H          x =  3.266101  y =  2.683304  z = -1.043244 angstrom
           Maximum rank =  0   Radius =  0.325 angstrom
                   Q00  =   0.254776

H          x =  2.559101  y =  3.609304  z =  0.095756 angstrom
           Maximum rank =  0   Radius =  0.325 angstrom
                   Q00  =   0.255638

H          x = -0.972559  y =  2.776084  z = -0.735064 angstrom
           Maximum rank =  0   Radius =  0.325 angstrom
                   Q00  =   0.149631

Total multipoles referred to origin at
           x =   0.000000,  y =    0.000000,  z =    0.000000 angstrom
                   Q00  =   1.000000

Finished at 20:58:36 on 28 Apr 2020

  DMA results are available in the Python driver through the
	  variable('DMA DISTRIBUTED MULTIPOLES')
  and
	  variable('DMA TOTAL MULTIPOLES')
  commands.

    Psi4 stopped on: Tuesday, 28 April 2020 08:58PM
    Psi4 wall time for execution: 0:04:10.93

*** Psi4 exiting successfully. Buy a developer a beer!
