                               Psi4 1.3.2 release

  ==> Input File <==

--------------------------------------------------------------------------
import numpy as np
set {scf_type pk
basis cc-pvdz
d_convergence 10
gdma_switch   0
gdma_limit    0
gdma_origin   [ 0.0,  0.0,  0.0 ]
}
molecule test {
    units Angstrom
    0 1
    --
    0 1
    C               -0.183741061006828    -1.333139435534349    -1.439327853080289
    C                0.903258938993172    -2.339139435534348    -1.867327853080289
    C               -1.133741061006828    -0.924139435534349    -2.565327853080289
    H               -0.758741061006828    -1.773139435534349    -0.624327853080289
    H                0.295258938993172    -0.436139435534349    -1.058327853080289
    H                1.604258938993172    -2.479139435534349    -1.052327853080289
    H               -0.535741061006828    -0.494139435534349    -3.369327853080289
    H               -1.617741061006829    -1.822139435534349    -2.952327853080289
    H                1.475717938993172    -1.972314435534349    -2.732037853080289
    H                0.464416938993172    -3.317481035534349    -2.112817853080289
    H               -1.903729061006828    -0.200795435534349    -2.258907853080289
    C                0.880258938993172     1.184860564465651     2.689672146919711
    C                0.105258938993172     1.171860564465652     1.395672146919711
    O                0.554258938993172     1.721860564465651     0.388672146919711
    N               -1.060741061006828     0.543860564465651     1.398672146919711
    H                0.378258938993172     0.563860564465651     3.432672146919711
    H                0.901258938993172     2.205860564465651     3.072672146919711
    H               -1.582741061006828     0.472860564465651     0.522672146919711
    H               -1.492741061006828     0.208860564465651     2.249672146919711
    H                1.911771938993172     0.827770564465651     2.553772146919711

}
e, wfn = energy('scf', return_wfn=True)
gdma(wfn)
dmavals = variable('DMA DISTRIBUTED MULTIPOLES')
charges = np.array(dmavals)
print(charges)
np.save('SSI-081GLU-103GLN-1-dimer.npy', np.array(charges))--------------------------------------------------------------------------

*** tstart() called on ds3
*** at Tue Apr 28 08:53:46 2020

   => Loading Basis Set <=

    Name: CC-PVDZ
    Role: ORBITAL
    Keyword: BASIS
    atoms 1-3, 12-13  entry C          line   138 file /theoryfs2/ds/metcalf/miniconda2/envs/tf2gpu/share/psi4/basis/cc-pvdz.gbs
    atoms 4-11, 16-20 entry H          line    22 file /theoryfs2/ds/metcalf/miniconda2/envs/tf2gpu/share/psi4/basis/cc-pvdz.gbs
    atoms 14          entry O          line   198 file /theoryfs2/ds/metcalf/miniconda2/envs/tf2gpu/share/psi4/basis/cc-pvdz.gbs
    atoms 15          entry N          line   168 file /theoryfs2/ds/metcalf/miniconda2/envs/tf2gpu/share/psi4/basis/cc-pvdz.gbs

         ---------------------------------------------------------
                                   SCF
               by Justin Turney, Rob Parrish, Andy Simmonett
                          and Daniel G. A. Smith
                              RHF Reference
                        1 Threads,    500 MiB Core
         ---------------------------------------------------------

  ==> Geometry <==

    Molecular point group: c1
    Full point group: C1

    Geometry (in Angstrom), charge = 0, multiplicity = 1:

       Center              X                  Y                   Z               Mass
    ------------   -----------------  -----------------  -----------------  -----------------
         C           -0.183741061007    -1.333139435534    -1.439327853080    12.000000000000
         C            0.903258938993    -2.339139435534    -1.867327853080    12.000000000000
         C           -1.133741061007    -0.924139435534    -2.565327853080    12.000000000000
         H           -0.758741061007    -1.773139435534    -0.624327853080     1.007825032230
         H            0.295258938993    -0.436139435534    -1.058327853080     1.007825032230
         H            1.604258938993    -2.479139435534    -1.052327853080     1.007825032230
         H           -0.535741061007    -0.494139435534    -3.369327853080     1.007825032230
         H           -1.617741061007    -1.822139435534    -2.952327853080     1.007825032230
         H            1.475717938993    -1.972314435534    -2.732037853080     1.007825032230
         H            0.464416938993    -3.317481035534    -2.112817853080     1.007825032230
         H           -1.903729061007    -0.200795435534    -2.258907853080     1.007825032230
         C            0.880258938993     1.184860564466     2.689672146920    12.000000000000
         C            0.105258938993     1.171860564466     1.395672146920    12.000000000000
         O            0.554258938993     1.721860564466     0.388672146920    15.994914619570
         N           -1.060741061007     0.543860564466     1.398672146920    14.003074004430
         H            0.378258938993     0.563860564466     3.432672146920     1.007825032230
         H            0.901258938993     2.205860564466     3.072672146920     1.007825032230
         H           -1.582741061007     0.472860564466     0.522672146920     1.007825032230
         H           -1.492741061007     0.208860564466     2.249672146920     1.007825032230
         H            1.911771938993     0.827770564466     2.553772146920     1.007825032230

  Running in c1 symmetry.

  Rotational constants: A =      0.12817  B =      0.02957  C =      0.02790 [cm^-1]
  Rotational constants: A =   3842.38523  B =    886.47769  C =    836.37758 [MHz]
  Nuclear repulsion =  301.492221952741431

  Charge       = 0
  Multiplicity = 1
  Electrons    = 58
  Nalpha       = 29
  Nbeta        = 29

  ==> Algorithm <==

  SCF Algorithm Type is PK.
  DIIS enabled.
  MOM disabled.
  Fractional occupation disabled.
  Guess Type is SAD.
  Energy threshold   = 1.00e-06
  Density threshold  = 1.00e-10
  Integral threshold = 0.00e+00

  ==> Primary Basis <==

  Basis Set: CC-PVDZ
    Blend: CC-PVDZ
    Number of shells: 81
    Number of basis function: 163
    Number of Cartesian functions: 170
    Spherical Harmonics?: true
    Max angular momentum: 2

  ==> Pre-Iterations <==

   -------------------------------------------------------
    Irrep   Nso     Nmo     Nalpha   Nbeta   Ndocc  Nsocc
   -------------------------------------------------------
     A        163     163       0       0       0       0
   -------------------------------------------------------
    Total     163     163      29      29      29       0
   -------------------------------------------------------

  ==> Integral Setup <==

  Using integral reordering PK algorithm.
  Sizing the integral batches needed.
  Building batch lookup table.
   Calculation information:
      Number of atoms:                  20
      Number of AO shells:              81
      Number of primitives:            219
      Number of atomic orbitals:       170
      Number of basis functions:       163

      Integral cutoff                 1.00e-12
      Number of threads:                 1

	Batch   1 pq = [       0,    9405] index = [             0,44231715] size =     44231715
	Batch   2 pq = [    9405,   13366] index = [      44231715,89331661] size =     45099946
  Task number: 9
  Buffer size: 11059200
  Buffer per thread: 2
  We computed 4757930 shell quartets total.
  Whereas there are 5516181 unique shell quartets.

  ==> DiskJK: Disk-Based J/K Matrices <==

    J tasked:                  Yes
    K tasked:                  Yes
    wK tasked:                  No
    Memory [MiB]:              375
    Schwarz Cutoff:          1E-12

    OpenMP threads:              1

  Minimum eigenvalue in the overlap matrix is 4.4537872493E-03.
  Using Symmetric Orthogonalization.

  SCF Guess: Superposition of Atomic Densities via on-the-fly atomic UHF.

  ==> Iterations <==

                        Total Energy        Delta E     RMS |[F,P]|

   @RHF iter SAD:  -324.92434233766863   -3.24924e+02   0.00000e+00
   @RHF iter   1:  -326.00326491217561   -1.07892e+00   4.14053e-03 DIIS
   @RHF iter   2:  -326.20402491651953   -2.00760e-01   2.28354e-03 DIIS
   @RHF iter   3:  -326.25858236297046   -5.45574e-02   4.90023e-04 DIIS
   @RHF iter   4:  -326.26237416857333   -3.79181e-03   2.01121e-04 DIIS
   @RHF iter   5:  -326.26303839852778   -6.64230e-04   3.05409e-05 DIIS
   @RHF iter   6:  -326.26306936021115   -3.09617e-05   1.34171e-05 DIIS
   @RHF iter   7:  -326.26307445082534   -5.09061e-06   5.23566e-06 DIIS
   @RHF iter   8:  -326.26307553363512   -1.08281e-06   1.86239e-06 DIIS
   @RHF iter   9:  -326.26307567461981   -1.40985e-07   4.97903e-07 DIIS
   @RHF iter  10:  -326.26307568175542   -7.13561e-09   1.60413e-07 DIIS
   @RHF iter  11:  -326.26307568259091   -8.35485e-10   3.88785e-08 DIIS
   @RHF iter  12:  -326.26307568263780   -4.68958e-11   9.81330e-09 DIIS
   @RHF iter  13:  -326.26307568263877   -9.66338e-13   2.33608e-09 DIIS
   @RHF iter  14:  -326.26307568263826    5.11591e-13   8.32192e-10 DIIS
   @RHF iter  15:  -326.26307568263991   -1.64846e-12   2.41064e-10 DIIS
   @RHF iter  16:  -326.26307568263917    7.38964e-13   8.67543e-11 DIIS
  Energy and wave function converged.

  ==> Post-Iterations <==

    Orbital Energies [Eh]
    ---------------------

    Doubly Occupied:

       1A    -20.503532     2A    -15.592774     3A    -11.349630
       4A    -11.243661     5A    -11.212589     6A    -11.212030
       7A    -11.210892     8A     -1.366768     9A     -1.217207
      10A     -1.044100    11A     -1.002284    12A     -0.919311
      13A     -0.803369    14A     -0.791679    15A     -0.724684
      16A     -0.656591    17A     -0.618082    18A     -0.612570
      19A     -0.589874    20A     -0.570290    21A     -0.559115
      22A     -0.540818    23A     -0.525524    24A     -0.522101
      25A     -0.469978    26A     -0.463177    27A     -0.458340
      28A     -0.410336    29A     -0.403639

    Virtual:

      30A      0.158023    31A      0.186939    32A      0.195902
      33A      0.204859    34A      0.218397    35A      0.238958
      36A      0.247013    37A      0.265762    38A      0.274484
      39A      0.280017    40A      0.289091    41A      0.309364
      42A      0.315182    43A      0.324271    44A      0.376077
      45A      0.392451    46A      0.432836    47A      0.486183
      48A      0.550873    49A      0.581994    50A      0.613722
      51A      0.618885    52A      0.628528    53A      0.636988
      54A      0.644051    55A      0.679270    56A      0.697731
      57A      0.720639    58A      0.740218    59A      0.797175
      60A      0.809307    61A      0.812410    62A      0.845444
      63A      0.852921    64A      0.868115    65A      0.880734
      66A      0.888736    67A      0.897543    68A      0.901676
      69A      0.908031    70A      0.914412    71A      0.915610
      72A      0.927199    73A      0.931981    74A      0.942971
      75A      0.972615    76A      1.002359    77A      1.019441
      78A      1.051875    79A      1.062007    80A      1.113887
      81A      1.126598    82A      1.141395    83A      1.167386
      84A      1.219769    85A      1.318489    86A      1.362820
      87A      1.375266    88A      1.412310    89A      1.417803
      90A      1.426710    91A      1.444253    92A      1.474829
      93A      1.494608    94A      1.511636    95A      1.558793
      96A      1.620377    97A      1.640383    98A      1.662280
      99A      1.686735   100A      1.692759   101A      1.705309
     102A      1.728867   103A      1.828588   104A      1.854549
     105A      1.870559   106A      1.877965   107A      1.881150
     108A      1.887252   109A      1.904031   110A      1.910461
     111A      1.917570   112A      1.935731   113A      1.947651
     114A      1.967794   115A      1.976905   116A      1.985492
     117A      1.988051   118A      1.994797   119A      2.000785
     120A      2.032053   121A      2.040733   122A      2.052657
     123A      2.086068   124A      2.125093   125A      2.136294
     126A      2.160435   127A      2.234603   128A      2.297880
     129A      2.311190   130A      2.316204   131A      2.329759
     132A      2.350090   133A      2.405482   134A      2.424031
     135A      2.465522   136A      2.507183   137A      2.528934
     138A      2.544723   139A      2.575421   140A      2.593998
     141A      2.620879   142A      2.627197   143A      2.642734
     144A      2.737266   145A      2.758544   146A      2.767084
     147A      2.771891   148A      2.787412   149A      2.801657
     150A      2.827701   151A      2.850228   152A      2.926426
     153A      2.971674   154A      2.976007   155A      2.998853
     156A      3.079830   157A      3.092021   158A      3.142830
     159A      3.249716   160A      3.505015   161A      3.525200
     162A      3.866528   163A      3.910890

    Final Occupation by Irrep:
              A
    DOCC [    29 ]

  @RHF Final Energy:  -326.26307568263917

   => Energetics <=

    Nuclear Repulsion Energy =            301.4922219527414313
    One-Electron Energy =               -1040.3207027367734554
    Two-Electron Energy =                 412.5654051013929120
    Total Energy =                       -326.2630756826391689

Computation Completed

Properties will be evaluated at   0.000000,   0.000000,   0.000000 [a0]

Properties computed using the SCF density matrix

  Nuclear Dipole Moment: [e a0]
     X:    -0.8009      Y:    -7.6956      Z:    -4.0604

  Electronic Dipole Moment: [e a0]
     X:    -0.0177      Y:     7.0308      Z:     5.3595

  Dipole Moment: [e a0]
     X:    -0.8186      Y:    -0.6648      Z:     1.2991     Total:     1.6732

  Dipole Moment: [D]
     X:    -2.0807      Y:    -1.6898      Z:     3.3020     Total:     4.2530

*** tstop() called on ds3 at Tue Apr 28 08:54:33 2020
Module time:
	user time   =      33.51 seconds =       0.56 minutes
	system time =      15.43 seconds =       0.26 minutes
	total time  =         47 seconds =       0.78 minutes
Total time:
	user time   =      33.51 seconds =       0.56 minutes
	system time =      15.43 seconds =       0.26 minutes
	total time  =         47 seconds =       0.78 minutes
                                     G D M A

                                 by Anthony Stone

                           version 2.2.06, 22 June 2011

               Distributed Multipoles from Gaussian wavefunctions

Starting at 8:54:33 on 28 Apr 2020

Using SCF density matrix from file ./SSI/SSI-081GLU-103GLN-1-dimer.test.23012.fchk

                         Distributed Multipole Analysis

Standard DMA

Positions and radii in angstrom
Multipole moments in atomic units, ea_0^k for rank k

C          x = -0.183741  y = -1.333139  z = -1.439328 angstrom
           Maximum rank =  0   Radius =  0.650 angstrom
                   Q00  =  -0.074480

C          x =  0.903259  y = -2.339139  z = -1.867328 angstrom
           Maximum rank =  0   Radius =  0.650 angstrom
                   Q00  =  -0.251431

C          x = -1.133741  y = -0.924139  z = -2.565328 angstrom
           Maximum rank =  0   Radius =  0.650 angstrom
                   Q00  =  -0.242441

H          x = -0.758741  y = -1.773139  z = -0.624328 angstrom
           Maximum rank =  0   Radius =  0.325 angstrom
                   Q00  =   0.027286

H          x =  0.295259  y = -0.436139  z = -1.058328 angstrom
           Maximum rank =  0   Radius =  0.325 angstrom
                   Q00  =   0.069999

H          x =  1.604259  y = -2.479139  z = -1.052328 angstrom
           Maximum rank =  0   Radius =  0.325 angstrom
                   Q00  =   0.085897

H          x = -0.535741  y = -0.494139  z = -3.369328 angstrom
           Maximum rank =  0   Radius =  0.325 angstrom
                   Q00  =   0.082952

H          x = -1.617741  y = -1.822139  z = -2.952328 angstrom
           Maximum rank =  0   Radius =  0.325 angstrom
                   Q00  =   0.067719

H          x =  1.475718  y = -1.972314  z = -2.732038 angstrom
           Maximum rank =  0   Radius =  0.325 angstrom
                   Q00  =   0.080176

H          x =  0.464417  y = -3.317481  z = -2.112818 angstrom
           Maximum rank =  0   Radius =  0.325 angstrom
                   Q00  =   0.071305

H          x = -1.903729  y = -0.200795  z = -2.258908 angstrom
           Maximum rank =  0   Radius =  0.325 angstrom
                   Q00  =   0.077240

C          x =  0.880259  y =  1.184861  z =  2.689672 angstrom
           Maximum rank =  0   Radius =  0.650 angstrom
                   Q00  =  -0.256435

C          x =  0.105259  y =  1.171861  z =  1.395672 angstrom
           Maximum rank =  0   Radius =  0.650 angstrom
                   Q00  =   0.804081

O          x =  0.554259  y =  1.721861  z =  0.388672 angstrom
           Maximum rank =  0   Radius =  0.650 angstrom
                   Q00  =  -0.788060

N          x = -1.060741  y =  0.543861  z =  1.398672 angstrom
           Maximum rank =  0   Radius =  0.650 angstrom
                   Q00  =  -0.526896

H          x =  0.378259  y =  0.563861  z =  3.432672 angstrom
           Maximum rank =  0   Radius =  0.325 angstrom
                   Q00  =   0.069825

H          x =  0.901259  y =  2.205861  z =  3.072672 angstrom
           Maximum rank =  0   Radius =  0.325 angstrom
                   Q00  =   0.133735

H          x = -1.582741  y =  0.472861  z =  0.522672 angstrom
           Maximum rank =  0   Radius =  0.325 angstrom
                   Q00  =   0.227359

H          x = -1.492741  y =  0.208861  z =  2.249672 angstrom
           Maximum rank =  0   Radius =  0.325 angstrom
                   Q00  =   0.207353

H          x =  1.911772  y =  0.827771  z =  2.553772 angstrom
           Maximum rank =  0   Radius =  0.325 angstrom
                   Q00  =   0.134818

Total multipoles referred to origin at
           x =   0.000000,  y =    0.000000,  z =    0.000000 angstrom
                   Q00  =  -0.000000

Finished at 8:54:33 on 28 Apr 2020

  DMA results are available in the Python driver through the
	  variable('DMA DISTRIBUTED MULTIPOLES')
  and
	  variable('DMA TOTAL MULTIPOLES')
  commands.

    Psi4 stopped on: Tuesday, 28 April 2020 08:54AM
    Psi4 wall time for execution: 0:00:46.77

*** Psi4 exiting successfully. Buy a developer a beer!
