                               Psi4 1.3.2 release

  ==> Input File <==

--------------------------------------------------------------------------
import numpy as np
set {scf_type pk
basis cc-pvdz
d_convergence 10
gdma_switch   0
gdma_limit    0
gdma_origin   [ 0.0,  0.0,  0.0 ]
}
molecule test {
    units Angstrom
    0 1
    --
    0 1
    C               -1.298884273070539     1.003701364571535    -0.814361632440046
    C               -2.755884273070539     1.447701364571535    -1.014361632440046
    H               -1.013884273070538     0.300701364571535    -1.595361632440046
    H               -0.644884273070539     1.874701364571535    -0.866361632440046
    H               -1.172884273070538     0.527701364571535     0.156638367559954
    H               -2.957884273070539     2.253701364571535    -0.309361632440046
    H               -3.417394273070539     0.598521364571535    -0.787866632440046
    H               -2.887394273070538     1.834381364571535    -2.035726632440046
    C                1.360115726929461    -0.848298635428465     0.922638367559954
    C                2.692115726929461    -1.603298635428466     0.903638367559954
    H                1.395115726929461     0.017701364571535     0.265638367559954
    H                0.558115726929462    -1.506298635428465     0.590638367559954
    H                1.144115726929462    -0.513298635428465     1.934638367559954
    H                2.851115726929461    -1.994298635428465    -0.102361632440046
    H                3.524975726929461    -0.938738635428465     1.176943367559954
    H                2.651095726929461    -2.452458635428465     1.601673367559954

}
e, wfn = energy('scf', return_wfn=True)
gdma(wfn)
dmavals = variable('DMA DISTRIBUTED MULTIPOLES')
charges = np.array(dmavals)
print(charges)
np.save('SSI-060LEU-098VAL-1-dimer.npy', np.array(charges))--------------------------------------------------------------------------

*** tstart() called on ds3
*** at Sun Apr 26 23:27:25 2020

   => Loading Basis Set <=

    Name: CC-PVDZ
    Role: ORBITAL
    Keyword: BASIS
    atoms 1-2, 9-10  entry C          line   138 file /theoryfs2/ds/metcalf/miniconda2/envs/tf2gpu/share/psi4/basis/cc-pvdz.gbs
    atoms 3-8, 11-16 entry H          line    22 file /theoryfs2/ds/metcalf/miniconda2/envs/tf2gpu/share/psi4/basis/cc-pvdz.gbs

         ---------------------------------------------------------
                                   SCF
               by Justin Turney, Rob Parrish, Andy Simmonett
                          and Daniel G. A. Smith
                              RHF Reference
                        1 Threads,    500 MiB Core
         ---------------------------------------------------------

  ==> Geometry <==

    Molecular point group: c1
    Full point group: C1

    Geometry (in Angstrom), charge = 0, multiplicity = 1:

       Center              X                  Y                   Z               Mass
    ------------   -----------------  -----------------  -----------------  -----------------
         C           -1.298884273071     1.003701364572    -0.814361632440    12.000000000000
         C           -2.755884273071     1.447701364572    -1.014361632440    12.000000000000
         H           -1.013884273071     0.300701364572    -1.595361632440     1.007825032230
         H           -0.644884273071     1.874701364572    -0.866361632440     1.007825032230
         H           -1.172884273071     0.527701364572     0.156638367560     1.007825032230
         H           -2.957884273071     2.253701364572    -0.309361632440     1.007825032230
         H           -3.417394273071     0.598521364572    -0.787866632440     1.007825032230
         H           -2.887394273071     1.834381364572    -2.035726632440     1.007825032230
         C            1.360115726929    -0.848298635428     0.922638367560    12.000000000000
         C            2.692115726929    -1.603298635428     0.903638367560    12.000000000000
         H            1.395115726929     0.017701364572     0.265638367560     1.007825032230
         H            0.558115726929    -1.506298635428     0.590638367560     1.007825032230
         H            1.144115726929    -0.513298635428     1.934638367560     1.007825032230
         H            2.851115726929    -1.994298635428    -0.102361632440     1.007825032230
         H            3.524975726929    -0.938738635428     1.176943367560     1.007825032230
         H            2.651095726929    -2.452458635428     1.601673367560     1.007825032230

  Running in c1 symmetry.

  Rotational constants: A =      0.98493  B =      0.03889  C =      0.03862 [cm^-1]
  Rotational constants: A =  29527.38056  B =   1166.01854  C =   1157.66028 [MHz]
  Nuclear repulsion =  119.704101699501535

  Charge       = 0
  Multiplicity = 1
  Electrons    = 36
  Nalpha       = 18
  Nbeta        = 18

  ==> Algorithm <==

  SCF Algorithm Type is PK.
  DIIS enabled.
  MOM disabled.
  Fractional occupation disabled.
  Guess Type is SAD.
  Energy threshold   = 1.00e-06
  Density threshold  = 1.00e-10
  Integral threshold = 0.00e+00

  ==> Primary Basis <==

  Basis Set: CC-PVDZ
    Blend: CC-PVDZ
    Number of shells: 60
    Number of basis function: 116
    Number of Cartesian functions: 120
    Spherical Harmonics?: true
    Max angular momentum: 2

  ==> Pre-Iterations <==

   -------------------------------------------------------
    Irrep   Nso     Nmo     Nalpha   Nbeta   Ndocc  Nsocc
   -------------------------------------------------------
     A        116     116       0       0       0       0
   -------------------------------------------------------
    Total     116     116      18      18      18       0
   -------------------------------------------------------

  ==> Integral Setup <==

  Using integral reordering PK algorithm.
  Sizing the integral batches needed.
  Building batch lookup table.
   Calculation information:
      Number of atoms:                  16
      Number of AO shells:              60
      Number of primitives:            148
      Number of atomic orbitals:       120
      Number of basis functions:       116

      Integral cutoff                 1.00e-12
      Number of threads:                 1

	Batch   1 pq = [       0,    6786] index = [             0,23028291] size =     23028291
  Task number: 3
  Buffer size: 11059200
  Buffer per thread: 2
  We computed 1323456 shell quartets total.
  Whereas there are 1675365 unique shell quartets.

  ==> DiskJK: Disk-Based J/K Matrices <==

    J tasked:                  Yes
    K tasked:                  Yes
    wK tasked:                  No
    Memory [MiB]:              375
    Schwarz Cutoff:          1E-12

    OpenMP threads:              1

  Minimum eigenvalue in the overlap matrix is 6.0185714632E-03.
  Using Symmetric Orthogonalization.

  SCF Guess: Superposition of Atomic Densities via on-the-fly atomic UHF.

  ==> Iterations <==

                        Total Energy        Delta E     RMS |[F,P]|

   @RHF iter SAD:  -157.33544888453508   -1.57335e+02   0.00000e+00
   @RHF iter   1:  -158.30818346683839   -9.72735e-01   4.20026e-03 DIIS
   @RHF iter   2:  -158.44111732205897   -1.32934e-01   1.78281e-03 DIIS
   @RHF iter   3:  -158.46422586228368   -2.31085e-02   3.49807e-04 DIIS
   @RHF iter   4:  -158.46606087936405   -1.83502e-03   3.93877e-05 DIIS
   @RHF iter   5:  -158.46608537759948   -2.44982e-05   7.06119e-06 DIIS
   @RHF iter   6:  -158.46608609407573   -7.16476e-07   1.34035e-06 DIIS
   @RHF iter   7:  -158.46608611118947   -1.71137e-08   3.38256e-07 DIIS
   @RHF iter   8:  -158.46608611231426   -1.12479e-09   4.41952e-08 DIIS
   @RHF iter   9:  -158.46608611234856   -3.43050e-11   8.93044e-09 DIIS
   @RHF iter  10:  -158.46608611234956   -9.94760e-13   2.43454e-09 DIIS
   @RHF iter  11:  -158.46608611234984   -2.84217e-13   7.02240e-10 DIIS
   @RHF iter  12:  -158.46608611234987   -2.84217e-14   1.64673e-10 DIIS
   @RHF iter  13:  -158.46608611234967    1.98952e-13   2.57267e-11 DIIS
  Energy and wave function converged.

  ==> Post-Iterations <==

    Orbital Energies [Eh]
    ---------------------

    Doubly Occupied:

       1A    -11.219266     2A    -11.218990     3A    -11.215422
       4A    -11.215383     5A     -1.017771     6A     -1.015640
       7A     -0.839382     8A     -0.832406     9A     -0.600290
      10A     -0.597499    11A     -0.596614    12A     -0.595661
      13A     -0.505050    14A     -0.491647    15A     -0.487924
      16A     -0.485697    17A     -0.483504    18A     -0.483019

    Virtual:

      19A      0.177998    20A      0.192338    21A      0.222176
      22A      0.234847    23A      0.246188    24A      0.260561
      25A      0.265175    26A      0.277793    27A      0.285880
      28A      0.287324    29A      0.296062    30A      0.309276
      31A      0.398722    32A      0.413655    33A      0.575511
      34A      0.596126    35A      0.598164    36A      0.604322
      37A      0.605179    38A      0.649236    39A      0.668626
      40A      0.691516    41A      0.705103    42A      0.745195
      43A      0.849700    44A      0.883643    45A      0.888521
      46A      0.893327    47A      0.894493    48A      0.895739
      49A      0.904078    50A      0.905605    51A      0.913227
      52A      0.917601    53A      0.936833    54A      0.942976
      55A      0.960353    56A      1.005181    57A      1.123810
      58A      1.125017    59A      1.128729    60A      1.139365
      61A      1.237266    62A      1.237359    63A      1.471232
      64A      1.475119    65A      1.483574    66A      1.486660
      67A      1.576945    68A      1.587992    69A      1.673320
      70A      1.681061    71A      1.694050    72A      1.696258
      73A      1.845283    74A      1.854352    75A      1.864681
      76A      1.881906    77A      1.893271    78A      1.919294
      79A      1.927033    80A      1.936611    81A      1.942157
      82A      1.942559    83A      1.948726    84A      1.956485
      85A      1.962959    86A      1.965864    87A      2.012277
      88A      2.051448    89A      2.092378    90A      2.104800
      91A      2.120123    92A      2.134511    93A      2.287060
      94A      2.301962    95A      2.319860    96A      2.332455
      97A      2.441319    98A      2.458986    99A      2.466007
     100A      2.476502   101A      2.558596   102A      2.573145
     103A      2.576252   104A      2.577564   105A      2.755967
     106A      2.765413   107A      2.780301   108A      2.806652
     109A      2.829802   110A      2.849536   111A      2.851901
     112A      2.858989   113A      2.936838   114A      2.949746
     115A      2.956169   116A      2.966940

    Final Occupation by Irrep:
              A
    DOCC [    18 ]

  @RHF Final Energy:  -158.46608611234967

   => Energetics <=

    Nuclear Repulsion Energy =            119.7041016995015354
    One-Electron Energy =                -448.5380415400079528
    Two-Electron Energy =                 170.3678537281567742
    Total Energy =                       -158.4660861123496716

Computation Completed

Properties will be evaluated at   0.000000,   0.000000,   0.000000 [a0]

Properties computed using the SCF density matrix

  Nuclear Dipole Moment: [e a0]
     X:     0.0283      Y:     0.0022      Z:     0.0273

  Electronic Dipole Moment: [e a0]
     X:    -0.0270      Y:     0.0047      Z:    -0.0219

  Dipole Moment: [e a0]
     X:     0.0013      Y:     0.0069      Z:     0.0055     Total:     0.0089

  Dipole Moment: [D]
     X:     0.0033      Y:     0.0175      Z:     0.0139     Total:     0.0225

*** tstop() called on ds3 at Sun Apr 26 23:27:44 2020
Module time:
	user time   =       6.83 seconds =       0.11 minutes
	system time =       2.49 seconds =       0.04 minutes
	total time  =         19 seconds =       0.32 minutes
Total time:
	user time   =       6.83 seconds =       0.11 minutes
	system time =       2.49 seconds =       0.04 minutes
	total time  =         19 seconds =       0.32 minutes
                                     G D M A

                                 by Anthony Stone

                           version 2.2.06, 22 June 2011

               Distributed Multipoles from Gaussian wavefunctions

Starting at 23:27:44 on 26 Apr 2020

Using SCF density matrix from file ./SSI/SSI-060LEU-098VAL-1-dimer.test.32071.fchk

                         Distributed Multipole Analysis

Standard DMA

Positions and radii in angstrom
Multipole moments in atomic units, ea_0^k for rank k

C          x = -1.298884  y =  1.003701  z = -0.814362 angstrom
           Maximum rank =  0   Radius =  0.650 angstrom
                   Q00  =  -0.247092

C          x = -2.755884  y =  1.447701  z = -1.014362 angstrom
           Maximum rank =  0   Radius =  0.650 angstrom
                   Q00  =  -0.231057

H          x = -1.013884  y =  0.300701  z = -1.595362 angstrom
           Maximum rank =  0   Radius =  0.325 angstrom
                   Q00  =   0.077711

H          x = -0.644884  y =  1.874701  z = -0.866362 angstrom
           Maximum rank =  0   Radius =  0.325 angstrom
                   Q00  =   0.076511

H          x = -1.172884  y =  0.527701  z =  0.156638 angstrom
           Maximum rank =  0   Radius =  0.325 angstrom
                   Q00  =   0.083190

H          x = -2.957884  y =  2.253701  z = -0.309362 angstrom
           Maximum rank =  0   Radius =  0.325 angstrom
                   Q00  =   0.078362

H          x = -3.417394  y =  0.598521  z = -0.787867 angstrom
           Maximum rank =  0   Radius =  0.325 angstrom
                   Q00  =   0.080019

H          x = -2.887394  y =  1.834381  z = -2.035727 angstrom
           Maximum rank =  0   Radius =  0.325 angstrom
                   Q00  =   0.080896

C          x =  1.360116  y = -0.848299  z =  0.922638 angstrom
           Maximum rank =  0   Radius =  0.650 angstrom
                   Q00  =  -0.250223

C          x =  2.692116  y = -1.603299  z =  0.903638 angstrom
           Maximum rank =  0   Radius =  0.650 angstrom
                   Q00  =  -0.224796

H          x =  1.395116  y =  0.017701  z =  0.265638 angstrom
           Maximum rank =  0   Radius =  0.325 angstrom
                   Q00  =   0.083084

H          x =  0.558116  y = -1.506299  z =  0.590638 angstrom
           Maximum rank =  0   Radius =  0.325 angstrom
                   Q00  =   0.077937

H          x =  1.144116  y = -0.513299  z =  1.934638 angstrom
           Maximum rank =  0   Radius =  0.325 angstrom
                   Q00  =   0.077434

H          x =  2.851116  y = -1.994299  z = -0.102362 angstrom
           Maximum rank =  0   Radius =  0.325 angstrom
                   Q00  =   0.078645

H          x =  3.524976  y = -0.938739  z =  1.176943 angstrom
           Maximum rank =  0   Radius =  0.325 angstrom
                   Q00  =   0.080677

H          x =  2.651096  y = -2.452459  z =  1.601673 angstrom
           Maximum rank =  0   Radius =  0.325 angstrom
                   Q00  =   0.078701

Total multipoles referred to origin at
           x =   0.000000,  y =    0.000000,  z =    0.000000 angstrom
                   Q00  =  -0.000000

Finished at 23:27:44 on 26 Apr 2020

  DMA results are available in the Python driver through the
	  variable('DMA DISTRIBUTED MULTIPOLES')
  and
	  variable('DMA TOTAL MULTIPOLES')
  commands.

    Psi4 stopped on: Sunday, 26 April 2020 11:27PM
    Psi4 wall time for execution: 0:00:19.40

*** Psi4 exiting successfully. Buy a developer a beer!
