                               Psi4 1.3.2 release

  ==> Input File <==

--------------------------------------------------------------------------
import numpy as np
set {scf_type pk
basis cc-pvdz
d_convergence 10
gdma_switch   0
gdma_limit    0
gdma_origin   [ 0.0,  0.0,  0.0 ]
}
molecule test {
    units Angstrom
    0 1
    --
    0 1
    C                1.005147137148298    -2.985147138827311    -1.731235845518423
    C               -0.564852862851702     0.464852861172690    -0.987235845518423
    C               -0.432852862851702    -0.904147138827310    -1.345235845518423
    C                0.596147137148298     1.213852861172690    -0.654235845518423
    C                0.837147137148298    -1.519147138827310    -1.405235845518423
    C                1.844147137148298     0.616852861172690    -0.754235845518423
    C                1.963147137148298    -0.746147138827310    -1.126235845518423
    O                0.558147137148298     2.539852861172690    -0.273235845518423
    H               -1.540852862851702     0.924852861172690    -0.946235845518423
    H               -1.321852862851702    -1.476147138827310    -1.564235845518423
    H               -0.340852862851702     2.877852861172689    -0.227235845518423
    H                2.725147137148298     1.195852861172690    -0.518235845518423
    H                0.574147137148298    -3.552147138827310    -0.904235845518423
    H                2.067147137148298    -3.214147138827310    -1.745235845518423
    H                2.950147137148298    -1.189147138827310    -1.174235845518423
    H                0.542879137148298    -3.333648138827310    -2.666575845518422
    C               -2.238852862851702     0.490852861172690     2.229764154481577
    C               -1.835852862851702    -0.986147138827310     2.327764154481577
    C               -1.243852862851702     1.429852861172690     2.927764154481578
    H               -2.322852862851702     0.782852861172690     1.185764154481577
    H               -3.220852862851702     0.602852861172690     2.691764154481578
    H               -0.792852862851702    -1.079147138827310     2.015764154481577
    H               -0.854852862851702     0.947852861172690     3.824764154481577
    H               -0.397852862851702     1.608852861172690     2.262764154481577
    H               -2.462482862851702    -1.627644138827310     1.690724154481577
    H               -1.918572862851702    -1.342923138827310     3.365004154481578
    H               -1.704016862851702     2.385852861172690     3.218134154481578

}
e, wfn = energy('scf', return_wfn=True)
gdma(wfn)
dmavals = variable('DMA DISTRIBUTED MULTIPOLES')
charges = np.array(dmavals)
print(charges)
np.save('SSI-112TYR-125GLU-1-dimer.npy', np.array(charges))--------------------------------------------------------------------------

*** tstart() called on ds3
*** at Mon Apr 27 07:40:59 2020

   => Loading Basis Set <=

    Name: CC-PVDZ
    Role: ORBITAL
    Keyword: BASIS
    atoms 1-7, 17-19  entry C          line   138 file /theoryfs2/ds/metcalf/miniconda2/envs/tf2gpu/share/psi4/basis/cc-pvdz.gbs
    atoms 8           entry O          line   198 file /theoryfs2/ds/metcalf/miniconda2/envs/tf2gpu/share/psi4/basis/cc-pvdz.gbs
    atoms 9-16, 20-27 entry H          line    22 file /theoryfs2/ds/metcalf/miniconda2/envs/tf2gpu/share/psi4/basis/cc-pvdz.gbs

         ---------------------------------------------------------
                                   SCF
               by Justin Turney, Rob Parrish, Andy Simmonett
                          and Daniel G. A. Smith
                              RHF Reference
                        1 Threads,    500 MiB Core
         ---------------------------------------------------------

  ==> Geometry <==

    Molecular point group: c1
    Full point group: C1

    Geometry (in Angstrom), charge = 0, multiplicity = 1:

       Center              X                  Y                   Z               Mass
    ------------   -----------------  -----------------  -----------------  -----------------
         C            1.005147137148    -2.985147138827    -1.731235845518    12.000000000000
         C           -0.564852862852     0.464852861173    -0.987235845518    12.000000000000
         C           -0.432852862852    -0.904147138827    -1.345235845518    12.000000000000
         C            0.596147137148     1.213852861173    -0.654235845518    12.000000000000
         C            0.837147137148    -1.519147138827    -1.405235845518    12.000000000000
         C            1.844147137148     0.616852861173    -0.754235845518    12.000000000000
         C            1.963147137148    -0.746147138827    -1.126235845518    12.000000000000
         O            0.558147137148     2.539852861173    -0.273235845518    15.994914619570
         H           -1.540852862852     0.924852861173    -0.946235845518     1.007825032230
         H           -1.321852862852    -1.476147138827    -1.564235845518     1.007825032230
         H           -0.340852862852     2.877852861173    -0.227235845518     1.007825032230
         H            2.725147137148     1.195852861173    -0.518235845518     1.007825032230
         H            0.574147137148    -3.552147138827    -0.904235845518     1.007825032230
         H            2.067147137148    -3.214147138827    -1.745235845518     1.007825032230
         H            2.950147137148    -1.189147138827    -1.174235845518     1.007825032230
         H            0.542879137148    -3.333648138827    -2.666575845518     1.007825032230
         C           -2.238852862852     0.490852861173     2.229764154482    12.000000000000
         C           -1.835852862852    -0.986147138827     2.327764154482    12.000000000000
         C           -1.243852862852     1.429852861173     2.927764154482    12.000000000000
         H           -2.322852862852     0.782852861173     1.185764154482     1.007825032230
         H           -3.220852862852     0.602852861173     2.691764154482     1.007825032230
         H           -0.792852862852    -1.079147138827     2.015764154482     1.007825032230
         H           -0.854852862852     0.947852861173     3.824764154482     1.007825032230
         H           -0.397852862852     1.608852861173     2.262764154482     1.007825032230
         H           -2.462482862852    -1.627644138827     1.690724154482     1.007825032230
         H           -1.918572862852    -1.342923138827     3.365004154482     1.007825032230
         H           -1.704016862852     2.385852861173     3.218134154482     1.007825032230

  Running in c1 symmetry.

  Rotational constants: A =      0.04178  B =      0.02173  C =      0.01642 [cm^-1]
  Rotational constants: A =   1252.62202  B =    651.57505  C =    492.10967 [MHz]
  Nuclear repulsion =  590.683664800303745

  Charge       = 0
  Multiplicity = 1
  Electrons    = 84
  Nalpha       = 42
  Nbeta        = 42

  ==> Algorithm <==

  SCF Algorithm Type is PK.
  DIIS enabled.
  MOM disabled.
  Fractional occupation disabled.
  Guess Type is SAD.
  Energy threshold   = 1.00e-06
  Density threshold  = 1.00e-10
  Integral threshold = 0.00e+00

  ==> Primary Basis <==

  Basis Set: CC-PVDZ
    Blend: CC-PVDZ
    Number of shells: 114
    Number of basis function: 234
    Number of Cartesian functions: 245
    Spherical Harmonics?: true
    Max angular momentum: 2

  ==> Pre-Iterations <==

   -------------------------------------------------------
    Irrep   Nso     Nmo     Nalpha   Nbeta   Ndocc  Nsocc
   -------------------------------------------------------
     A        234     234       0       0       0       0
   -------------------------------------------------------
    Total     234     234      42      42      42       0
   -------------------------------------------------------

  ==> Integral Setup <==

  Using integral reordering PK algorithm.
  Sizing the integral batches needed.
  Building batch lookup table.
   Calculation information:
      Number of atoms:                  27
      Number of AO shells:             114
      Number of primitives:            322
      Number of atomic orbitals:       245
      Number of basis functions:       234

      Integral cutoff                 1.00e-12
      Number of threads:                 1

	Batch   1 pq = [       0,    9405] index = [             0,44231715] size =     44231715
	Batch   2 pq = [    9405,   13301] index = [      44231715,88464951] size =     44233236
	Batch   3 pq = [   13301,   16290] index = [      88464951,132690195] size =     44225244
	Batch   4 pq = [   16290,   18810] index = [     132690195,176917455] size =     44227260
	Batch   5 pq = [   18810,   21030] index = [     176917455,221140965] size =     44223510
	Batch   6 pq = [   21030,   23037] index = [     221140965,265363203] size =     44222238
	Batch   7 pq = [   23037,   24883] index = [     265363203,309594286] size =     44231083
	Batch   8 pq = [   24883,   26601] index = [     309594286,353819901] size =     44225615
	Batch   9 pq = [   26601,   27495] index = [     353819901,378001260] size =     24181359
  Task number: 35
  Buffer size: 11059200
  Buffer per thread: 2
  We computed 21317458 shell quartets total.
  Whereas there are 21487290 unique shell quartets.

  ==> DiskJK: Disk-Based J/K Matrices <==

    J tasked:                  Yes
    K tasked:                  Yes
    wK tasked:                  No
    Memory [MiB]:              375
    Schwarz Cutoff:          1E-12

    OpenMP threads:              1

  Minimum eigenvalue in the overlap matrix is 3.4792627713E-04.
  Using Symmetric Orthogonalization.

  SCF Guess: Superposition of Atomic Densities via on-the-fly atomic UHF.

  ==> Iterations <==

                        Total Energy        Delta E     RMS |[F,P]|

   @RHF iter SAD:  -461.46794052968107   -4.61468e+02   0.00000e+00
   @RHF iter   1:  -462.60739475778831   -1.13945e+00   2.78994e-03 DIIS
   @RHF iter   2:  -462.84478785672155   -2.37393e-01   1.19929e-03 DIIS
   @RHF iter   3:  -462.88438491667040   -3.95971e-02   2.72859e-04 DIIS
   @RHF iter   4:  -462.88768418633481   -3.29927e-03   1.08850e-04 DIIS
   @RHF iter   5:  -462.88806301312832   -3.78827e-04   2.07468e-05 DIIS
   @RHF iter   6:  -462.88808326359356   -2.02505e-05   6.52401e-06 DIIS
   @RHF iter   7:  -462.88808536235211   -2.09876e-06   1.91952e-06 DIIS
   @RHF iter   8:  -462.88808561674671   -2.54395e-07   7.70798e-07 DIIS
   @RHF iter   9:  -462.88808565661611   -3.98694e-08   2.77192e-07 DIIS
   @RHF iter  10:  -462.88808566384552   -7.22940e-09   1.10700e-07 DIIS
   @RHF iter  11:  -462.88808566578996   -1.94444e-09   4.67624e-08 DIIS
   @RHF iter  12:  -462.88808566620338   -4.13422e-10   2.60769e-08 DIIS
   @RHF iter  13:  -462.88808566629569   -9.23137e-11   8.02877e-09 DIIS
   @RHF iter  14:  -462.88808566630428   -8.58336e-12   2.08306e-09 DIIS
   @RHF iter  15:  -462.88808566630462   -3.41061e-13   8.12647e-10 DIIS
   @RHF iter  16:  -462.88808566630678   -2.16005e-12   3.03119e-10 DIIS
   @RHF iter  17:  -462.88808566630757   -7.95808e-13   1.60713e-10 DIIS
   @RHF iter  18:  -462.88808566630570    1.87583e-12   7.95853e-11 DIIS
  Energy and wave function converged.

  ==> Post-Iterations <==

    Orbital Energies [Eh]
    ---------------------

    Doubly Occupied:

       1A    -20.586766     2A    -11.304303     3A    -11.247003
       4A    -11.244445     5A    -11.241779     6A    -11.239653
       7A    -11.232530     8A    -11.230108     9A    -11.218640
      10A    -11.214441    11A    -11.213502    12A     -1.394833
      13A     -1.143504    14A     -1.048742    15A     -1.037066
      16A     -1.010714    17A     -0.927292    18A     -0.919659
      19A     -0.844035    20A     -0.798897    21A     -0.795871
      22A     -0.729248    23A     -0.661268    24A     -0.644425
      25A     -0.622944    26A     -0.609998    27A     -0.592963
      28A     -0.583762    29A     -0.581346    30A     -0.570079
      31A     -0.566973    32A     -0.541566    33A     -0.528478
      34A     -0.527985    35A     -0.499184    36A     -0.487958
      37A     -0.471276    38A     -0.468839    39A     -0.462431
      40A     -0.461457    41A     -0.333416    42A     -0.304537

    Virtual:

      43A      0.122806    44A      0.151516    45A      0.166717
      46A      0.179763    47A      0.202881    48A      0.209730
      49A      0.214724    50A      0.235799    51A      0.251088
      52A      0.251624    53A      0.257914    54A      0.263731
      55A      0.278837    56A      0.285166    57A      0.292800
      58A      0.297763    59A      0.309884    60A      0.340749
      61A      0.361804    62A      0.367996    63A      0.400217
      64A      0.420948    65A      0.426018    66A      0.447268
      67A      0.484127    68A      0.486109    69A      0.504617
      70A      0.582179    71A      0.589589    72A      0.602142
      73A      0.615204    74A      0.621439    75A      0.625117
      76A      0.638351    77A      0.647597    78A      0.665314
      79A      0.694318    80A      0.708700    81A      0.718893
      82A      0.726677    83A      0.741468    84A      0.754663
      85A      0.764746    86A      0.776935    87A      0.782804
      88A      0.796278    89A      0.819414    90A      0.822125
      91A      0.843084    92A      0.848263    93A      0.856785
      94A      0.870025    95A      0.872211    96A      0.880951
      97A      0.882623    98A      0.886890    99A      0.896629
     100A      0.899817   101A      0.914042   102A      0.920030
     103A      0.922319   104A      0.933743   105A      0.938946
     106A      0.941903   107A      0.950382   108A      0.967479
     109A      0.979626   110A      0.981741   111A      1.003867
     112A      1.016632   113A      1.036355   114A      1.080796
     115A      1.107807   116A      1.119643   117A      1.131838
     118A      1.139720   119A      1.141365   120A      1.166326
     121A      1.191781   122A      1.224587   123A      1.234618
     124A      1.255105   125A      1.261934   126A      1.275304
     127A      1.293223   128A      1.308123   129A      1.324785
     130A      1.352318   131A      1.367346   132A      1.374410
     133A      1.387051   134A      1.465823   135A      1.473317
     136A      1.490615   137A      1.505839   138A      1.524349
     139A      1.547809   140A      1.575499   141A      1.614559
     142A      1.619846   143A      1.636818   144A      1.669053
     145A      1.678618   146A      1.694470   147A      1.696285
     148A      1.714237   149A      1.728198   150A      1.748884
     151A      1.779092   152A      1.804768   153A      1.811853
     154A      1.841862   155A      1.851001   156A      1.864901
     157A      1.871483   158A      1.883154   159A      1.888677
     160A      1.896344   161A      1.903241   162A      1.919684
     163A      1.930711   164A      1.934998   165A      1.948568
     166A      1.950807   167A      1.957927   168A      1.967924
     169A      1.976217   170A      1.984304   171A      1.984847
     172A      1.998733   173A      2.005092   174A      2.015919
     175A      2.018522   176A      2.035510   177A      2.049798
     178A      2.052359   179A      2.075850   180A      2.091903
     181A      2.111984   182A      2.128667   183A      2.154987
     184A      2.170922   185A      2.189404   186A      2.198383
     187A      2.205410   188A      2.243310   189A      2.262531
     190A      2.271620   191A      2.299392   192A      2.305447
     193A      2.315204   194A      2.351188   195A      2.365438
     196A      2.378141   197A      2.395124   198A      2.454790
     199A      2.472540   200A      2.481152   201A      2.486302
     202A      2.518175   203A      2.530402   204A      2.554918
     205A      2.568218   206A      2.602858   207A      2.615086
     208A      2.619785   209A      2.655935   210A      2.714402
     211A      2.760547   212A      2.763806   213A      2.770321
     214A      2.786967   215A      2.796566   216A      2.800930
     217A      2.844349   218A      2.847060   219A      2.876970
     220A      2.916128   221A      2.940028   222A      2.951435
     223A      2.972137   224A      3.009077   225A      3.053396
     226A      3.062051   227A      3.114550   228A      3.236111
     229A      3.252474   230A      3.338947   231A      3.540340
     232A      3.656443   233A      3.908305   234A      4.190282

    Final Occupation by Irrep:
              A
    DOCC [    42 ]

  @RHF Final Energy:  -462.88808566630570

   => Energetics <=

    Nuclear Repulsion Energy =            590.6836648003037453
    One-Electron Energy =               -1798.8556675551826629
    Two-Electron Energy =                 745.2839170885733893
    Total Energy =                       -462.8880856663056420

Computation Completed

Properties will be evaluated at   0.000000,   0.000000,   0.000000 [a0]

Properties computed using the SCF density matrix

  Nuclear Dipole Moment: [e a0]
     X:    -7.5143      Y:    -5.1327      Z:     9.8500

  Electronic Dipole Moment: [e a0]
     X:     7.0475      Y:     4.8751      Z:    -9.9597

  Dipole Moment: [e a0]
     X:    -0.4669      Y:    -0.2577      Z:    -0.1097     Total:     0.5444

  Dipole Moment: [D]
     X:    -1.1867      Y:    -0.6550      Z:    -0.2787     Total:     1.3838

*** tstop() called on ds3 at Mon Apr 27 07:45:25 2020
Module time:
	user time   =     155.71 seconds =       2.60 minutes
	system time =      54.80 seconds =       0.91 minutes
	total time  =        266 seconds =       4.43 minutes
Total time:
	user time   =     155.71 seconds =       2.60 minutes
	system time =      54.80 seconds =       0.91 minutes
	total time  =        266 seconds =       4.43 minutes
                                     G D M A

                                 by Anthony Stone

                           version 2.2.06, 22 June 2011

               Distributed Multipoles from Gaussian wavefunctions

Starting at 7:45:25 on 27 Apr 2020

Using SCF density matrix from file ./SSI/SSI-112TYR-125GLU-1-dimer.test.32135.fchk

                         Distributed Multipole Analysis

Standard DMA

Positions and radii in angstrom
Multipole moments in atomic units, ea_0^k for rank k

C          x =  1.005147  y = -2.985147  z = -1.731236 angstrom
           Maximum rank =  0   Radius =  0.650 angstrom
                   Q00  =  -0.204917

C          x = -0.564853  y =  0.464853  z = -0.987236 angstrom
           Maximum rank =  0   Radius =  0.650 angstrom
                   Q00  =  -0.184525

C          x = -0.432853  y = -0.904147  z = -1.345236 angstrom
           Maximum rank =  0   Radius =  0.650 angstrom
                   Q00  =  -0.038074

C          x =  0.596147  y =  1.213853  z = -0.654236 angstrom
           Maximum rank =  0   Radius =  0.650 angstrom
                   Q00  =   0.292099

C          x =  0.837147  y = -1.519147  z = -1.405236 angstrom
           Maximum rank =  0   Radius =  0.650 angstrom
                   Q00  =  -0.120208

C          x =  1.844147  y =  0.616853  z = -0.754236 angstrom
           Maximum rank =  0   Radius =  0.650 angstrom
                   Q00  =  -0.093826

C          x =  1.963147  y = -0.746147  z = -1.126236 angstrom
           Maximum rank =  0   Radius =  0.650 angstrom
                   Q00  =   0.018169

O          x =  0.558147  y =  2.539853  z = -0.273236 angstrom
           Maximum rank =  0   Radius =  0.650 angstrom
                   Q00  =  -0.671609

H          x = -1.540853  y =  0.924853  z = -0.946236 angstrom
           Maximum rank =  0   Radius =  0.325 angstrom
                   Q00  =   0.081138

H          x = -1.321853  y = -1.476147  z = -1.564236 angstrom
           Maximum rank =  0   Radius =  0.325 angstrom
                   Q00  =   0.073307

H          x = -0.340853  y =  2.877853  z = -0.227236 angstrom
           Maximum rank =  0   Radius =  0.325 angstrom
                   Q00  =   0.407007

H          x =  2.725147  y =  1.195853  z = -0.518236 angstrom
           Maximum rank =  0   Radius =  0.325 angstrom
                   Q00  =   0.082606

H          x =  0.574147  y = -3.552147  z = -0.904236 angstrom
           Maximum rank =  0   Radius =  0.325 angstrom
                   Q00  =   0.098183

H          x =  2.067147  y = -3.214147  z = -1.745236 angstrom
           Maximum rank =  0   Radius =  0.325 angstrom
                   Q00  =   0.097686

H          x =  2.950147  y = -1.189147  z = -1.174236 angstrom
           Maximum rank =  0   Radius =  0.325 angstrom
                   Q00  =   0.067842

H          x =  0.542879  y = -3.333648  z = -2.666576 angstrom
           Maximum rank =  0   Radius =  0.325 angstrom
                   Q00  =   0.101012

C          x = -2.238853  y =  0.490853  z =  2.229764 angstrom
           Maximum rank =  0   Radius =  0.650 angstrom
                   Q00  =  -0.079269

C          x = -1.835853  y = -0.986147  z =  2.327764 angstrom
           Maximum rank =  0   Radius =  0.650 angstrom
                   Q00  =  -0.246800

C          x = -1.243853  y =  1.429853  z =  2.927764 angstrom
           Maximum rank =  0   Radius =  0.650 angstrom
                   Q00  =  -0.237980

H          x = -2.322853  y =  0.782853  z =  1.185764 angstrom
           Maximum rank =  0   Radius =  0.325 angstrom
                   Q00  =   0.036273

H          x = -3.220853  y =  0.602853  z =  2.691764 angstrom
           Maximum rank =  0   Radius =  0.325 angstrom
                   Q00  =   0.041715

H          x = -0.792853  y = -1.079147  z =  2.015764 angstrom
           Maximum rank =  0   Radius =  0.325 angstrom
                   Q00  =   0.084422

H          x = -0.854853  y =  0.947853  z =  3.824764 angstrom
           Maximum rank =  0   Radius =  0.325 angstrom
                   Q00  =   0.078095

H          x = -0.397853  y =  1.608853  z =  2.262764 angstrom
           Maximum rank =  0   Radius =  0.325 angstrom
                   Q00  =   0.081891

H          x = -2.462483  y = -1.627644  z =  1.690724 angstrom
           Maximum rank =  0   Radius =  0.325 angstrom
                   Q00  =   0.080553

H          x = -1.918573  y = -1.342923  z =  3.365004 angstrom
           Maximum rank =  0   Radius =  0.325 angstrom
                   Q00  =   0.076455

H          x = -1.704017  y =  2.385853  z =  3.218134 angstrom
           Maximum rank =  0   Radius =  0.325 angstrom
                   Q00  =   0.078755

Total multipoles referred to origin at
           x =   0.000000,  y =    0.000000,  z =    0.000000 angstrom
                   Q00  =  -0.000000

Finished at 7:45:25 on 27 Apr 2020

  DMA results are available in the Python driver through the
	  variable('DMA DISTRIBUTED MULTIPOLES')
  and
	  variable('DMA TOTAL MULTIPOLES')
  commands.

    Psi4 stopped on: Monday, 27 April 2020 07:45AM
    Psi4 wall time for execution: 0:04:25.79

*** Psi4 exiting successfully. Buy a developer a beer!
