                               Psi4 1.3.2 release

  ==> Input File <==

--------------------------------------------------------------------------
import numpy as np
set {scf_type pk
basis cc-pvdz
d_convergence 10
gdma_switch   0
gdma_limit    0
gdma_origin   [ 0.0,  0.0,  0.0 ]
}
molecule test {
    units Angstrom
    0 1
    --
    0 1
    C               -0.562045827310302     0.655091454249502    -1.936603665824220
    C                0.814954172689698     1.315091454249502    -1.598603665824220
    H               -0.663045827310302     0.542091454249502    -3.017603665824220
    H               -0.628045827310302    -0.329908545750498    -1.471603665824220
    H               -1.378045827310302     1.269091454249502    -1.553603665824220
    H                0.822954172689698     1.616091454249502    -0.550603665824220
    H                0.979969972689698     2.189671454249502    -2.245034665824221
    H                1.613373172689698     0.580581454249502    -1.780307665824220
    C               -0.685045827310302    -0.464908545750498     1.750396334175780
    C                0.439954172689698    -1.503908545750498     1.788396334175780
    H               -0.584045827310302     0.216091454249502     2.593396334175779
    H               -0.631045827310302     0.113091454249502     0.831396334175780
    H               -1.658045827310302    -0.952908545750498     1.792396334175780
    H                0.302954172689698    -2.187908545750498     0.950396334175780
    H                0.310009302689698    -2.055448545750498     2.731218334175780
    H                1.419942172689699    -1.016798545750498     1.677263334175780

}
e, wfn = energy('scf', return_wfn=True)
gdma(wfn)
dmavals = variable('DMA DISTRIBUTED MULTIPOLES')
charges = np.array(dmavals)
print(charges)
np.save('SSI-039THR-079LEU-1-dimer.npy', np.array(charges))--------------------------------------------------------------------------

*** tstart() called on ds3
*** at Mon Apr 27 21:22:15 2020

   => Loading Basis Set <=

    Name: CC-PVDZ
    Role: ORBITAL
    Keyword: BASIS
    atoms 1-2, 9-10  entry C          line   138 file /theoryfs2/ds/metcalf/miniconda2/envs/tf2gpu/share/psi4/basis/cc-pvdz.gbs
    atoms 3-8, 11-16 entry H          line    22 file /theoryfs2/ds/metcalf/miniconda2/envs/tf2gpu/share/psi4/basis/cc-pvdz.gbs

         ---------------------------------------------------------
                                   SCF
               by Justin Turney, Rob Parrish, Andy Simmonett
                          and Daniel G. A. Smith
                              RHF Reference
                        1 Threads,    500 MiB Core
         ---------------------------------------------------------

  ==> Geometry <==

    Molecular point group: c1
    Full point group: C1

    Geometry (in Angstrom), charge = 0, multiplicity = 1:

       Center              X                  Y                   Z               Mass
    ------------   -----------------  -----------------  -----------------  -----------------
         C           -0.562045827310     0.655091454250    -1.936603665824    12.000000000000
         C            0.814954172690     1.315091454250    -1.598603665824    12.000000000000
         H           -0.663045827310     0.542091454250    -3.017603665824     1.007825032230
         H           -0.628045827310    -0.329908545750    -1.471603665824     1.007825032230
         H           -1.378045827310     1.269091454250    -1.553603665824     1.007825032230
         H            0.822954172690     1.616091454250    -0.550603665824     1.007825032230
         H            0.979969972690     2.189671454250    -2.245034665824     1.007825032230
         H            1.613373172690     0.580581454250    -1.780307665824     1.007825032230
         C           -0.685045827310    -0.464908545750     1.750396334176    12.000000000000
         C            0.439954172690    -1.503908545750     1.788396334176    12.000000000000
         H           -0.584045827310     0.216091454250     2.593396334176     1.007825032230
         H           -0.631045827310     0.113091454250     0.831396334176     1.007825032230
         H           -1.658045827310    -0.952908545750     1.792396334176     1.007825032230
         H            0.302954172690    -2.187908545750     0.950396334176     1.007825032230
         H            0.310009302690    -2.055448545750     2.731218334176     1.007825032230
         H            1.419942172690    -1.016798545750     1.677263334176     1.007825032230

  Running in c1 symmetry.

  Rotational constants: A =      0.34471  B =      0.06191  C =      0.05869 [cm^-1]
  Rotational constants: A =  10334.24926  B =   1856.12719  C =   1759.34048 [MHz]
  Nuclear repulsion =  125.025063498296447

  Charge       = 0
  Multiplicity = 1
  Electrons    = 36
  Nalpha       = 18
  Nbeta        = 18

  ==> Algorithm <==

  SCF Algorithm Type is PK.
  DIIS enabled.
  MOM disabled.
  Fractional occupation disabled.
  Guess Type is SAD.
  Energy threshold   = 1.00e-06
  Density threshold  = 1.00e-10
  Integral threshold = 0.00e+00

  ==> Primary Basis <==

  Basis Set: CC-PVDZ
    Blend: CC-PVDZ
    Number of shells: 60
    Number of basis function: 116
    Number of Cartesian functions: 120
    Spherical Harmonics?: true
    Max angular momentum: 2

  ==> Pre-Iterations <==

   -------------------------------------------------------
    Irrep   Nso     Nmo     Nalpha   Nbeta   Ndocc  Nsocc
   -------------------------------------------------------
     A        116     116       0       0       0       0
   -------------------------------------------------------
    Total     116     116      18      18      18       0
   -------------------------------------------------------

  ==> Integral Setup <==

  Using integral reordering PK algorithm.
  Sizing the integral batches needed.
  Building batch lookup table.
   Calculation information:
      Number of atoms:                  16
      Number of AO shells:              60
      Number of primitives:            148
      Number of atomic orbitals:       120
      Number of basis functions:       116

      Integral cutoff                 1.00e-12
      Number of threads:                 1

	Batch   1 pq = [       0,    6786] index = [             0,23028291] size =     23028291
  Task number: 3
  Buffer size: 11059200
  Buffer per thread: 2
  We computed 1583793 shell quartets total.
  Whereas there are 1675365 unique shell quartets.

  ==> DiskJK: Disk-Based J/K Matrices <==

    J tasked:                  Yes
    K tasked:                  Yes
    wK tasked:                  No
    Memory [MiB]:              375
    Schwarz Cutoff:          1E-12

    OpenMP threads:              1

  Minimum eigenvalue in the overlap matrix is 7.7968644674E-03.
  Using Symmetric Orthogonalization.

  SCF Guess: Superposition of Atomic Densities via on-the-fly atomic UHF.

  ==> Iterations <==

                        Total Energy        Delta E     RMS |[F,P]|

   @RHF iter SAD:  -157.30290811162186   -1.57303e+02   0.00000e+00
   @RHF iter   1:  -158.30920237248301   -1.00629e+00   4.14792e-03 DIIS
   @RHF iter   2:  -158.43981295765161   -1.30611e-01   1.74819e-03 DIIS
   @RHF iter   3:  -158.46212192539352   -2.23090e-02   3.46879e-04 DIIS
   @RHF iter   4:  -158.46392410159353   -1.80218e-03   3.89509e-05 DIIS
   @RHF iter   5:  -158.46394802969135   -2.39281e-05   6.85225e-06 DIIS
   @RHF iter   6:  -158.46394871947200   -6.89781e-07   1.22860e-06 DIIS
   @RHF iter   7:  -158.46394873471212   -1.52401e-08   3.35899e-07 DIIS
   @RHF iter   8:  -158.46394873579570   -1.08358e-09   4.52877e-08 DIIS
   @RHF iter   9:  -158.46394873582838   -3.26850e-11   1.07984e-08 DIIS
   @RHF iter  10:  -158.46394873582997   -1.59162e-12   2.66451e-09 DIIS
   @RHF iter  11:  -158.46394873582938    5.96856e-13   8.07305e-10 DIIS
   @RHF iter  12:  -158.46394873582994   -5.68434e-13   2.15785e-10 DIIS
   @RHF iter  13:  -158.46394873582977    1.70530e-13   2.79676e-11 DIIS
  Energy and wave function converged.

  ==> Post-Iterations <==

    Orbital Energies [Eh]
    ---------------------

    Doubly Occupied:

       1A    -11.223094     2A    -11.220452     3A    -11.220003
       4A    -11.214831     5A     -1.018977     6A     -1.010552
       7A     -0.840087     8A     -0.835075     9A     -0.609816
      10A     -0.598012    11A     -0.595180    12A     -0.588782
      13A     -0.497521    14A     -0.493500    15A     -0.491914
      16A     -0.489140    17A     -0.486004    18A     -0.482051

    Virtual:

      19A      0.164549    20A      0.207546    21A      0.221112
      22A      0.225203    23A      0.251643    24A      0.260231
      25A      0.264990    26A      0.272656    27A      0.280373
      28A      0.298877    29A      0.319430    30A      0.340394
      31A      0.384462    32A      0.395603    33A      0.578221
      34A      0.595499    35A      0.604052    36A      0.611449
      37A      0.612921    38A      0.650531    39A      0.663414
      40A      0.695550    41A      0.713122    42A      0.778685
      43A      0.825836    44A      0.840632    45A      0.880167
      46A      0.884002    47A      0.891496    48A      0.895965
      49A      0.898927    50A      0.905240    51A      0.912951
      52A      0.936466    53A      0.946647    54A      0.967288
      55A      0.989656    56A      1.057244    57A      1.115208
      58A      1.118810    59A      1.120950    60A      1.135005
      61A      1.227927    62A      1.317441    63A      1.465712
      64A      1.471892    65A      1.477708    66A      1.490346
      67A      1.553556    68A      1.585080    69A      1.669975
      70A      1.685132    71A      1.687485    72A      1.710277
      73A      1.830812    74A      1.856598    75A      1.865320
      76A      1.877280    77A      1.889754    78A      1.893420
      79A      1.920653    80A      1.929686    81A      1.939732
      82A      1.946564    83A      1.948659    84A      1.952764
      85A      1.954892    86A      1.974699    87A      2.003788
      88A      2.021083    89A      2.095959    90A      2.117484
      91A      2.132788    92A      2.151072    93A      2.273831
      94A      2.279678    95A      2.306321    96A      2.321285
      97A      2.433795    98A      2.440363    99A      2.447061
     100A      2.473505   101A      2.559450   102A      2.570126
     103A      2.580271   104A      2.592243   105A      2.764730
     106A      2.768793   107A      2.787948   108A      2.800797
     109A      2.819984   110A      2.836553   111A      2.841962
     112A      2.857487   113A      2.932207   114A      2.946146
     115A      2.964236   116A      2.994036

    Final Occupation by Irrep:
              A
    DOCC [    18 ]

  @RHF Final Energy:  -158.46394873582977

   => Energetics <=

    Nuclear Repulsion Energy =            125.0250634982964471
    One-Electron Energy =                -459.1480423954659500
    Two-Electron Energy =                 175.6590301613397287
    Total Energy =                       -158.4639487358297743

Computation Completed

Properties will be evaluated at   0.000000,   0.000000,   0.000000 [a0]

Properties computed using the SCF density matrix

  Nuclear Dipole Moment: [e a0]
     X:    -0.0873      Y:    -0.0152      Z:    -0.0400

  Electronic Dipole Moment: [e a0]
     X:     0.0736      Y:     0.0200      Z:     0.0183

  Dipole Moment: [e a0]
     X:    -0.0136      Y:     0.0047      Z:    -0.0217     Total:     0.0261

  Dipole Moment: [D]
     X:    -0.0347      Y:     0.0121      Z:    -0.0551     Total:     0.0662

*** tstop() called on ds3 at Mon Apr 27 21:22:27 2020
Module time:
	user time   =       8.93 seconds =       0.15 minutes
	system time =       2.89 seconds =       0.05 minutes
	total time  =         12 seconds =       0.20 minutes
Total time:
	user time   =       8.93 seconds =       0.15 minutes
	system time =       2.89 seconds =       0.05 minutes
	total time  =         12 seconds =       0.20 minutes
                                     G D M A

                                 by Anthony Stone

                           version 2.2.06, 22 June 2011

               Distributed Multipoles from Gaussian wavefunctions

Starting at 21:22:27 on 27 Apr 2020

Using SCF density matrix from file ./SSI/SSI-039THR-079LEU-1-dimer.test.1239.fchk

                         Distributed Multipole Analysis

Standard DMA

Positions and radii in angstrom
Multipole moments in atomic units, ea_0^k for rank k

C          x = -0.562046  y =  0.655091  z = -1.936604 angstrom
           Maximum rank =  0   Radius =  0.650 angstrom
                   Q00  =  -0.248665

C          x =  0.814954  y =  1.315091  z = -1.598604 angstrom
           Maximum rank =  0   Radius =  0.650 angstrom
                   Q00  =  -0.245753

H          x = -0.663046  y =  0.542091  z = -3.017604 angstrom
           Maximum rank =  0   Radius =  0.325 angstrom
                   Q00  =   0.083815

H          x = -0.628046  y = -0.329909  z = -1.471604 angstrom
           Maximum rank =  0   Radius =  0.325 angstrom
                   Q00  =   0.081731

H          x = -1.378046  y =  1.269091  z = -1.553604 angstrom
           Maximum rank =  0   Radius =  0.325 angstrom
                   Q00  =   0.081915

H          x =  0.822954  y =  1.616091  z = -0.550604 angstrom
           Maximum rank =  0   Radius =  0.325 angstrom
                   Q00  =   0.083327

H          x =  0.979970  y =  2.189671  z = -2.245035 angstrom
           Maximum rank =  0   Radius =  0.325 angstrom
                   Q00  =   0.083183

H          x =  1.613373  y =  0.580581  z = -1.780308 angstrom
           Maximum rank =  0   Radius =  0.325 angstrom
                   Q00  =   0.081182

C          x = -0.685046  y = -0.464909  z =  1.750396 angstrom
           Maximum rank =  0   Radius =  0.650 angstrom
                   Q00  =  -0.244311

C          x =  0.439954  y = -1.503909  z =  1.788396 angstrom
           Maximum rank =  0   Radius =  0.650 angstrom
                   Q00  =  -0.206844

H          x = -0.584046  y =  0.216091  z =  2.593396 angstrom
           Maximum rank =  0   Radius =  0.325 angstrom
                   Q00  =   0.077188

H          x = -0.631046  y =  0.113091  z =  0.831396 angstrom
           Maximum rank =  0   Radius =  0.325 angstrom
                   Q00  =   0.081678

H          x = -1.658046  y = -0.952909  z =  1.792396 angstrom
           Maximum rank =  0   Radius =  0.325 angstrom
                   Q00  =   0.079081

H          x =  0.302954  y = -2.187909  z =  0.950396 angstrom
           Maximum rank =  0   Radius =  0.325 angstrom
                   Q00  =   0.076685

H          x =  0.310009  y = -2.055449  z =  2.731218 angstrom
           Maximum rank =  0   Radius =  0.325 angstrom
                   Q00  =   0.065743

H          x =  1.419942  y = -1.016799  z =  1.677263 angstrom
           Maximum rank =  0   Radius =  0.325 angstrom
                   Q00  =   0.070045

Total multipoles referred to origin at
           x =   0.000000,  y =    0.000000,  z =    0.000000 angstrom
                   Q00  =  -0.000000

Finished at 21:22:27 on 27 Apr 2020

  DMA results are available in the Python driver through the
	  variable('DMA DISTRIBUTED MULTIPOLES')
  and
	  variable('DMA TOTAL MULTIPOLES')
  commands.

    Psi4 stopped on: Monday, 27 April 2020 09:22PM
    Psi4 wall time for execution: 0:00:11.88

*** Psi4 exiting successfully. Buy a developer a beer!
