                               Psi4 1.3.2 release

  ==> Input File <==

--------------------------------------------------------------------------
import numpy as np
set {scf_type pk
basis cc-pvdz
d_convergence 10
gdma_switch   0
gdma_limit    0
gdma_origin   [ 0.0,  0.0,  0.0 ]
}
molecule test {
    units Angstrom
    0 1
    --
    0 1
    C               -5.007780837313665    -1.728175546733450    -0.131554256115387
    C               -1.532780837313665    -0.938175546733450     1.078445743884613
    C               -2.479780837313664    -1.841175546733450     0.543445743884613
    C               -3.732780837313664    -1.159175546733450     0.439445743884613
    C               -3.497780837313665     0.106824453266550     0.861445743884613
    C               -0.205780837313665    -1.297175546733450     1.313445743884613
    C                0.153219162686335    -2.597175546733450     1.040445743884613
    C               -0.764780837313665    -3.513175546733450     0.523445743884613
    C               -2.077780837313665    -3.148175546733450     0.278445743884613
    N               -2.187780837313664     0.249824453266550     1.240445743884613
    H                0.498219162686335    -0.589175546733450     1.720445743884613
    H                1.172219162686335    -2.915175546733451     1.223445743884613
    H               -1.772780837313665     1.136824453266550     1.544445743884613
    H               -0.444780837313665    -4.527175546733449     0.318445743884613
    H               -4.239780837313664     0.897824453266550     0.873445743884613
    H               -2.785780837313665    -3.866175546733450    -0.112554256115387
    H               -5.868780837313666    -1.274175546733450     0.363445743884613
    H               -5.030780837313665    -2.800175546733450     0.067445743884613
    H               -5.068130837313665    -1.561485546733450    -1.217174256115387
    C                2.037219162686335     0.327824453266550    -3.250554256115387
    C                2.023219162686335     0.663824453266550    -0.778554256115387
    C                2.386219162686335     1.130824453266550    -2.030554256115387
    C                2.301219162686336     1.406824453266550     0.359445743884613
    C                2.910219162686336     2.649824453266550     0.239445743884613
    C                2.983219162686336     2.379824453266550    -2.142554256115387
    C                3.250219162686335     3.146824453266550    -1.003554256115387
    O                3.138219162686336     3.374824453266549     1.370445743884613
    H                1.507219162686335    -0.277175546733450    -0.671554256115387
    H                2.022219162686335     1.035824453266550     1.333445743884613
    H                2.497219162686335     0.775824453266550    -4.132554256115387
    H                0.961219162686335     0.380824453266550    -3.377554256115387
    H                3.231219162686336     2.772824453266550    -3.118554256115386
    H                2.841219162686335     2.906824453266550     2.158445743884613
    H                3.708219162686335     4.117824453266550    -1.083554256115387
    H                2.300859162686335    -0.739105546733450    -3.204074256115387

}
e, wfn = energy('scf', return_wfn=True)
gdma(wfn)
dmavals = variable('DMA DISTRIBUTED MULTIPOLES')
charges = np.array(dmavals)
print(charges)
np.save('SSI-066TRP-109TYR-1-dimer.npy', np.array(charges))--------------------------------------------------------------------------

*** tstart() called on ds3
*** at Mon Apr 27 06:10:05 2020

   => Loading Basis Set <=

    Name: CC-PVDZ
    Role: ORBITAL
    Keyword: BASIS
    atoms 1-9, 20-26   entry C          line   138 file /theoryfs2/ds/metcalf/miniconda2/envs/tf2gpu/share/psi4/basis/cc-pvdz.gbs
    atoms 10           entry N          line   168 file /theoryfs2/ds/metcalf/miniconda2/envs/tf2gpu/share/psi4/basis/cc-pvdz.gbs
    atoms 11-19, 28-35 entry H          line    22 file /theoryfs2/ds/metcalf/miniconda2/envs/tf2gpu/share/psi4/basis/cc-pvdz.gbs
    atoms 27           entry O          line   198 file /theoryfs2/ds/metcalf/miniconda2/envs/tf2gpu/share/psi4/basis/cc-pvdz.gbs

         ---------------------------------------------------------
                                   SCF
               by Justin Turney, Rob Parrish, Andy Simmonett
                          and Daniel G. A. Smith
                              RHF Reference
                        1 Threads,    500 MiB Core
         ---------------------------------------------------------

  ==> Geometry <==

    Molecular point group: c1
    Full point group: C1

    Geometry (in Angstrom), charge = 0, multiplicity = 1:

       Center              X                  Y                   Z               Mass
    ------------   -----------------  -----------------  -----------------  -----------------
         C           -5.007780837314    -1.728175546733    -0.131554256115    12.000000000000
         C           -1.532780837314    -0.938175546733     1.078445743885    12.000000000000
         C           -2.479780837314    -1.841175546733     0.543445743885    12.000000000000
         C           -3.732780837314    -1.159175546733     0.439445743885    12.000000000000
         C           -3.497780837314     0.106824453267     0.861445743885    12.000000000000
         C           -0.205780837314    -1.297175546733     1.313445743885    12.000000000000
         C            0.153219162686    -2.597175546733     1.040445743885    12.000000000000
         C           -0.764780837314    -3.513175546733     0.523445743885    12.000000000000
         C           -2.077780837314    -3.148175546733     0.278445743885    12.000000000000
         N           -2.187780837314     0.249824453267     1.240445743885    14.003074004430
         H            0.498219162686    -0.589175546733     1.720445743885     1.007825032230
         H            1.172219162686    -2.915175546733     1.223445743885     1.007825032230
         H           -1.772780837314     1.136824453267     1.544445743885     1.007825032230
         H           -0.444780837314    -4.527175546733     0.318445743885     1.007825032230
         H           -4.239780837314     0.897824453267     0.873445743885     1.007825032230
         H           -2.785780837314    -3.866175546733    -0.112554256115     1.007825032230
         H           -5.868780837314    -1.274175546733     0.363445743885     1.007825032230
         H           -5.030780837314    -2.800175546733     0.067445743885     1.007825032230
         H           -5.068130837314    -1.561485546733    -1.217174256115     1.007825032230
         C            2.037219162686     0.327824453267    -3.250554256115    12.000000000000
         C            2.023219162686     0.663824453267    -0.778554256115    12.000000000000
         C            2.386219162686     1.130824453267    -2.030554256115    12.000000000000
         C            2.301219162686     1.406824453267     0.359445743885    12.000000000000
         C            2.910219162686     2.649824453267     0.239445743885    12.000000000000
         C            2.983219162686     2.379824453267    -2.142554256115    12.000000000000
         C            3.250219162686     3.146824453267    -1.003554256115    12.000000000000
         O            3.138219162686     3.374824453267     1.370445743885    15.994914619570
         H            1.507219162686    -0.277175546733    -0.671554256115     1.007825032230
         H            2.022219162686     1.035824453267     1.333445743885     1.007825032230
         H            2.497219162686     0.775824453267    -4.132554256115     1.007825032230
         H            0.961219162686     0.380824453267    -3.377554256115     1.007825032230
         H            3.231219162686     2.772824453267    -3.118554256115     1.007825032230
         H            2.841219162686     2.906824453267     2.158445743885     1.007825032230
         H            3.708219162686     4.117824453267    -1.083554256115     1.007825032230
         H            2.300859162686    -0.739105546733    -3.204074256115     1.007825032230

  Running in c1 symmetry.

  Rotational constants: A =      0.02244  B =      0.00601  C =      0.00577 [cm^-1]
  Rotational constants: A =    672.73482  B =    180.18007  C =    172.93264 [MHz]
  Nuclear repulsion = 1168.986106078238436

  Charge       = 0
  Multiplicity = 1
  Electrons    = 128
  Nalpha       = 64
  Nbeta        = 64

  ==> Algorithm <==

  SCF Algorithm Type is PK.
  DIIS enabled.
  MOM disabled.
  Fractional occupation disabled.
  Guess Type is SAD.
  Energy threshold   = 1.00e-06
  Density threshold  = 1.00e-10
  Integral threshold = 0.00e+00

  ==> Primary Basis <==

  Basis Set: CC-PVDZ
    Blend: CC-PVDZ
    Number of shells: 159
    Number of basis function: 337
    Number of Cartesian functions: 355
    Spherical Harmonics?: true
    Max angular momentum: 2

  ==> Pre-Iterations <==

   -------------------------------------------------------
    Irrep   Nso     Nmo     Nalpha   Nbeta   Ndocc  Nsocc
   -------------------------------------------------------
     A        337     337       0       0       0       0
   -------------------------------------------------------
    Total     337     337      64      64      64       0
   -------------------------------------------------------

  ==> Integral Setup <==

  Using integral reordering PK algorithm.
  Sizing the integral batches needed.
  Building batch lookup table.
   Calculation information:
      Number of atoms:                  35
      Number of AO shells:             159
      Number of primitives:            481
      Number of atomic orbitals:       355
      Number of basis functions:       337

      Integral cutoff                 1.00e-12
      Number of threads:                 1

	Batch   1 pq = [       0,    9405] index = [             0,44231715] size =     44231715
	Batch   2 pq = [    9405,   13301] index = [      44231715,88464951] size =     44233236
	Batch   3 pq = [   13301,   16290] index = [      88464951,132690195] size =     44225244
	Batch   4 pq = [   16290,   18810] index = [     132690195,176917455] size =     44227260
	Batch   5 pq = [   18810,   21030] index = [     176917455,221140965] size =     44223510
	Batch   6 pq = [   21030,   23037] index = [     221140965,265363203] size =     44222238
	Batch   7 pq = [   23037,   24883] index = [     265363203,309594286] size =     44231083
	Batch   8 pq = [   24883,   26601] index = [     309594286,353819901] size =     44225615
	Batch   9 pq = [   26601,   28214] index = [     353819901,398029005] size =     44209104
	Batch  10 pq = [   28214,   29740] index = [     398029005,442248670] size =     44219665
	Batch  11 pq = [   29740,   31191] index = [     442248670,486454836] size =     44206166
	Batch  12 pq = [   31191,   32578] index = [     486454836,530679331] size =     44224495
	Batch  13 pq = [   32578,   33908] index = [     530679331,574893186] size =     44213855
	Batch  14 pq = [   33908,   35188] index = [     574893186,619115266] size =     44222080
	Batch  15 pq = [   35188,   36423] index = [     619115266,663335676] size =     44220410
	Batch  16 pq = [   36423,   37617] index = [     663335676,707538153] size =     44202477
	Batch  17 pq = [   37617,   38775] index = [     707538153,751769700] size =     44231547
	Batch  18 pq = [   38775,   39899] index = [     751769700,795985050] size =     44215350
	Batch  19 pq = [   39899,   40992] index = [     795985050,840192528] size =     44207478
	Batch  20 pq = [   40992,   42057] index = [     840192528,884416653] size =     44224125
	Batch  21 pq = [   42057,   43095] index = [     884416653,928611060] size =     44194407
	Batch  22 pq = [   43095,   44109] index = [     928611060,972823995] size =     44212935
	Batch  23 pq = [   44109,   45100] index = [     972823995,1017027550] size =     44203555
	Batch  24 pq = [   45100,   46070] index = [    1017027550,1061245485] size =     44217935
	Batch  25 pq = [   46070,   47020] index = [    1061245485,1105463710] size =     44218225
	Batch  26 pq = [   47020,   47951] index = [    1105463710,1149673176] size =     44209466
	Batch  27 pq = [   47951,   48864] index = [    1149673176,1193869680] size =     44196504
	Batch  28 pq = [   48864,   49761] index = [    1193869680,1238103441] size =     44233761
	Batch  29 pq = [   49761,   50642] index = [    1238103441,1282331403] size =     44227962
	Batch  30 pq = [   50642,   51508] index = [    1282331403,1326562786] size =     44231383
	Batch  31 pq = [   51508,   52359] index = [    1326562786,1370758620] size =     44195834
	Batch  32 pq = [   52359,   53197] index = [    1370758620,1414987003] size =     44228383
	Batch  33 pq = [   53197,   54022] index = [    1414987003,1459215253] size =     44228250
	Batch  34 pq = [   54022,   54834] index = [    1459215253,1503411195] size =     44195942
	Batch  35 pq = [   54834,   55634] index = [    1503411195,1547598795] size =     44187600
	Batch  36 pq = [   55634,   56423] index = [    1547598795,1591805676] size =     44206881
	Batch  37 pq = [   56423,   56953] index = [    1591805676,1621850581] size =     30044905
  Task number: 147
  Buffer size: 11059200
  Buffer per thread: 2
  We computed 77129196 shell quartets total.
  Whereas there are 80905560 unique shell quartets.

  ==> DiskJK: Disk-Based J/K Matrices <==

    J tasked:                  Yes
    K tasked:                  Yes
    wK tasked:                  No
    Memory [MiB]:              375
    Schwarz Cutoff:          1E-12

    OpenMP threads:              1

  Minimum eigenvalue in the overlap matrix is 2.3628964540E-04.
  Using Symmetric Orthogonalization.

  SCF Guess: Superposition of Atomic Densities via on-the-fly atomic UHF.

  ==> Iterations <==

                        Total Energy        Delta E     RMS |[F,P]|

   @RHF iter SAD:  -744.52522728196004   -7.44525e+02   0.00000e+00
   @RHF iter   1:  -744.77664778782707   -2.51421e-01   2.22605e-03 DIIS
   @RHF iter   2:  -745.09476977830411   -3.18122e-01   9.85219e-04 DIIS
   @RHF iter   3:  -745.15031288754665   -5.55431e-02   2.63686e-04 DIIS
   @RHF iter   4:  -745.15555292050237   -5.24003e-03   1.17557e-04 DIIS
   @RHF iter   5:  -745.15645751290663   -9.04592e-04   1.70012e-05 DIIS
   @RHF iter   6:  -745.15649498451091   -3.74716e-05   7.94714e-06 DIIS
   @RHF iter   7:  -745.15650265074373   -7.66623e-06   3.00150e-06 DIIS
   @RHF iter   8:  -745.15650448439396   -1.83365e-06   1.24279e-06 DIIS
   @RHF iter   9:  -745.15650484463004   -3.60236e-07   5.62893e-07 DIIS
   @RHF iter  10:  -745.15650492820680   -8.35768e-08   2.63907e-07 DIIS
   @RHF iter  11:  -745.15650495082537   -2.26186e-08   1.03405e-07 DIIS
   @RHF iter  12:  -745.15650495406112   -3.23575e-09   4.01925e-08 DIIS
   @RHF iter  13:  -745.15650495442446   -3.63343e-10   1.33272e-08 DIIS
   @RHF iter  14:  -745.15650495447005   -4.55884e-11   4.81543e-09 DIIS
   @RHF iter  15:  -745.15650495445573    1.43245e-11   1.90970e-09 DIIS
   @RHF iter  16:  -745.15650495447062   -1.48930e-11   8.74260e-10 DIIS
   @RHF iter  17:  -745.15650495447699   -6.36646e-12   4.81908e-10 DIIS
   @RHF iter  18:  -745.15650495446778    9.20863e-12   1.88361e-10 DIIS
   @RHF iter  19:  -745.15650495446516    2.61480e-12   7.64824e-11 DIIS
  Energy and wave function converged.

  ==> Post-Iterations <==

    Orbital Energies [Eh]
    ---------------------

    Doubly Occupied:

       1A    -20.582148     2A    -15.604748     3A    -11.296771
       4A    -11.266278     5A    -11.264262     6A    -11.237421
       7A    -11.233953     8A    -11.233154     9A    -11.231684
      10A    -11.231387    11A    -11.231365    12A    -11.230131
      13A    -11.229216    14A    -11.228347    15A    -11.223014
      16A    -11.222206    17A    -11.220394    18A    -11.217927
      19A     -1.399955    20A     -1.300074    21A     -1.152593
      22A     -1.134806    23A     -1.076458    24A     -1.037939
      25A     -1.018226    26A     -1.001087    27A     -0.991310
      28A     -0.934259    29A     -0.924652    30A     -0.845754
      31A     -0.844111    32A     -0.806588    33A     -0.801592
      34A     -0.756677    35A     -0.732399    36A     -0.721871
      37A     -0.668636    38A     -0.665434    39A     -0.646751
      40A     -0.641772    41A     -0.608831    42A     -0.606778
      43A     -0.596590    44A     -0.594486    45A     -0.586525
      46A     -0.584920    47A     -0.569738    48A     -0.566824
      49A     -0.564145    50A     -0.555501    51A     -0.539115
      52A     -0.529207    53A     -0.526822    54A     -0.497990
      55A     -0.495756    56A     -0.486148    57A     -0.474641
      58A     -0.466415    59A     -0.466033    60A     -0.377595
      61A     -0.338085    62A     -0.301425    63A     -0.298146
      64A     -0.279202

    Virtual:

      65A      0.123254    66A      0.131212    67A      0.157751
      68A      0.164186    69A      0.168963    70A      0.186176
      71A      0.188608    72A      0.192457    73A      0.204354
      74A      0.216471    75A      0.219136    76A      0.227153
      77A      0.230712    78A      0.253976    79A      0.258110
      80A      0.260826    81A      0.274776    82A      0.282611
      83A      0.290342    84A      0.298204    85A      0.306276
      86A      0.351872    87A      0.370426    88A      0.374852
      89A      0.378937    90A      0.394970    91A      0.401085
      92A      0.417519    93A      0.431122    94A      0.443544
      95A      0.461698    96A      0.473324    97A      0.480221
      98A      0.489081    99A      0.498660   100A      0.504458
     101A      0.513633   102A      0.520782   103A      0.592590
     104A      0.613418   105A      0.620467   106A      0.627538
     107A      0.633648   108A      0.637647   109A      0.645599
     110A      0.656956   111A      0.663164   112A      0.683832
     113A      0.693012   114A      0.701050   115A      0.703303
     116A      0.713647   117A      0.713711   118A      0.721415
     119A      0.726746   120A      0.730852   121A      0.734753
     122A      0.739049   123A      0.742201   124A      0.748711
     125A      0.759003   126A      0.763454   127A      0.772729
     128A      0.776808   129A      0.777734   130A      0.783352
     131A      0.787662   132A      0.791980   133A      0.797705
     134A      0.809629   135A      0.830008   136A      0.838074
     137A      0.850225   138A      0.858070   139A      0.863090
     140A      0.875947   141A      0.878426   142A      0.885919
     143A      0.889460   144A      0.892309   145A      0.899542
     146A      0.907398   147A      0.909649   148A      0.918123
     149A      0.928806   150A      0.938207   151A      0.943845
     152A      0.952147   153A      0.957188   154A      0.960245
     155A      0.964249   156A      0.970451   157A      1.005421
     158A      1.010683   159A      1.015838   160A      1.039893
     161A      1.046884   162A      1.059150   163A      1.071567
     164A      1.079710   165A      1.092897   166A      1.123821
     167A      1.131311   168A      1.136803   169A      1.139764
     170A      1.147206   171A      1.153252   172A      1.166088
     173A      1.177703   174A      1.202151   175A      1.215092
     176A      1.218215   177A      1.226501   178A      1.228717
     179A      1.244194   180A      1.246462   181A      1.250266
     182A      1.262350   183A      1.270285   184A      1.277804
     185A      1.286469   186A      1.290334   187A      1.307777
     188A      1.313213   189A      1.319556   190A      1.324179
     191A      1.331830   192A      1.345872   193A      1.362116
     194A      1.365282   195A      1.368140   196A      1.380050
     197A      1.397400   198A      1.421487   199A      1.444132
     200A      1.489694   201A      1.516516   202A      1.526701
     203A      1.534322   204A      1.557057   205A      1.565985
     206A      1.574879   207A      1.603380   208A      1.618693
     209A      1.623904   210A      1.630720   211A      1.634090
     212A      1.647618   213A      1.676764   214A      1.689674
     215A      1.699286   216A      1.704185   217A      1.733320
     218A      1.738589   219A      1.747671   220A      1.762184
     221A      1.766504   222A      1.785711   223A      1.795050
     224A      1.804178   225A      1.806562   226A      1.820875
     227A      1.826030   228A      1.836168   229A      1.871104
     230A      1.876605   231A      1.883151   232A      1.890528
     233A      1.896786   234A      1.903818   235A      1.913175
     236A      1.915592   237A      1.918505   238A      1.923381
     239A      1.927205   240A      1.937353   241A      1.946841
     242A      1.954460   243A      1.957487   244A      1.961452
     245A      1.970709   246A      1.976535   247A      1.992857
     248A      2.003623   249A      2.004194   250A      2.019220
     251A      2.041555   252A      2.044560   253A      2.058465
     254A      2.064866   255A      2.069463   256A      2.071137
     257A      2.082193   258A      2.091559   259A      2.098298
     260A      2.104390   261A      2.111188   262A      2.123603
     263A      2.129455   264A      2.139487   265A      2.158596
     266A      2.172817   267A      2.175693   268A      2.181728
     269A      2.203990   270A      2.218685   271A      2.227536
     272A      2.232395   273A      2.265420   274A      2.266826
     275A      2.281289   276A      2.284435   277A      2.300123
     278A      2.310937   279A      2.328531   280A      2.338229
     281A      2.362555   282A      2.367944   283A      2.384035
     284A      2.392710   285A      2.403172   286A      2.405090
     287A      2.451173   288A      2.456107   289A      2.463060
     290A      2.487297   291A      2.500776   292A      2.537323
     293A      2.546717   294A      2.553378   295A      2.586340
     296A      2.594818   297A      2.621654   298A      2.641113
     299A      2.656805   300A      2.668858   301A      2.690511
     302A      2.720156   303A      2.755957   304A      2.765418
     305A      2.766455   306A      2.777790   307A      2.783624
     308A      2.804581   309A      2.807771   310A      2.827094
     311A      2.833010   312A      2.852835   313A      2.858454
     314A      2.868308   315A      2.901325   316A      2.921217
     317A      2.967961   318A      2.975129   319A      3.010873
     320A      3.034682   321A      3.058449   322A      3.076897
     323A      3.105157   324A      3.126925   325A      3.151436
     326A      3.205778   327A      3.253910   328A      3.301338
     329A      3.313404   330A      3.345859   331A      3.378000
     332A      3.585519   333A      3.679286   334A      3.732983
     335A      3.967838   336A      3.992478   337A      4.192751

    Final Occupation by Irrep:
              A
    DOCC [    64 ]

  @RHF Final Energy:  -745.15650495446516

   => Energetics <=

    Nuclear Repulsion Energy =           1168.9861060782384357
    One-Electron Energy =               -3332.2886908272498658
    Two-Electron Energy =                1418.1460797945464947
    Total Energy =                       -745.1565049544651629

Computation Completed

Properties will be evaluated at   0.000000,   0.000000,   0.000000 [a0]

Properties computed using the SCF density matrix

  Nuclear Dipole Moment: [e a0]
     X:    -4.1700      Y:    -4.2268      Z:    -6.8542

  Electronic Dipole Moment: [e a0]
     X:     3.6337      Y:     4.4434      Z:     7.0725

  Dipole Moment: [e a0]
     X:    -0.5363      Y:     0.2166      Z:     0.2183     Total:     0.6182

  Dipole Moment: [D]
     X:    -1.3631      Y:     0.5505      Z:     0.5549     Total:     1.5713

*** tstop() called on ds3 at Mon Apr 27 06:36:35 2020
Module time:
	user time   =     724.57 seconds =      12.08 minutes
	system time =     253.41 seconds =       4.22 minutes
	total time  =       1590 seconds =      26.50 minutes
Total time:
	user time   =     724.57 seconds =      12.08 minutes
	system time =     253.41 seconds =       4.22 minutes
	total time  =       1590 seconds =      26.50 minutes
                                     G D M A

                                 by Anthony Stone

                           version 2.2.06, 22 June 2011

               Distributed Multipoles from Gaussian wavefunctions

Starting at 6:36:35 on 27 Apr 2020

Using SCF density matrix from file ./SSI/SSI-066TRP-109TYR-1-dimer.test.723.fchk

                         Distributed Multipole Analysis

Standard DMA

Positions and radii in angstrom
Multipole moments in atomic units, ea_0^k for rank k

C          x = -5.007781  y = -1.728176  z = -0.131554 angstrom
           Maximum rank =  0   Radius =  0.650 angstrom
                   Q00  =  -0.214378

C          x = -1.532781  y = -0.938176  z =  1.078446 angstrom
           Maximum rank =  0   Radius =  0.650 angstrom
                   Q00  =   0.262177

C          x = -2.479781  y = -1.841176  z =  0.543446 angstrom
           Maximum rank =  0   Radius =  0.650 angstrom
                   Q00  =  -0.050334

C          x = -3.732781  y = -1.159176  z =  0.439446 angstrom
           Maximum rank =  0   Radius =  0.650 angstrom
                   Q00  =  -0.124438

C          x = -3.497781  y =  0.106824  z =  0.861446 angstrom
           Maximum rank =  0   Radius =  0.650 angstrom
                   Q00  =   0.076177

C          x = -0.205781  y = -1.297176  z =  1.313446 angstrom
           Maximum rank =  0   Radius =  0.650 angstrom
                   Q00  =  -0.113773

C          x =  0.153219  y = -2.597176  z =  1.040446 angstrom
           Maximum rank =  0   Radius =  0.650 angstrom
                   Q00  =  -0.048712

C          x = -0.764781  y = -3.513176  z =  0.523446 angstrom
           Maximum rank =  0   Radius =  0.650 angstrom
                   Q00  =  -0.076776

C          x = -2.077781  y = -3.148176  z =  0.278446 angstrom
           Maximum rank =  0   Radius =  0.650 angstrom
                   Q00  =  -0.096194

N          x = -2.187781  y =  0.249824  z =  1.240446 angstrom
           Maximum rank =  0   Radius =  0.650 angstrom
                   Q00  =  -0.502010

H          x =  0.498219  y = -0.589176  z =  1.720446 angstrom
           Maximum rank =  0   Radius =  0.325 angstrom
                   Q00  =   0.062192

H          x =  1.172219  y = -2.915176  z =  1.223446 angstrom
           Maximum rank =  0   Radius =  0.325 angstrom
                   Q00  =   0.061599

H          x = -1.772781  y =  1.136824  z =  1.544446 angstrom
           Maximum rank =  0   Radius =  0.325 angstrom
                   Q00  =   0.221097

H          x = -0.444781  y = -4.527176  z =  0.318446 angstrom
           Maximum rank =  0   Radius =  0.325 angstrom
                   Q00  =   0.059184

H          x = -4.239781  y =  0.897824  z =  0.873446 angstrom
           Maximum rank =  0   Radius =  0.325 angstrom
                   Q00  =   0.100366

H          x = -2.785781  y = -3.866176  z = -0.112554 angstrom
           Maximum rank =  0   Radius =  0.325 angstrom
                   Q00  =   0.069433

H          x = -5.868781  y = -1.274176  z =  0.363446 angstrom
           Maximum rank =  0   Radius =  0.325 angstrom
                   Q00  =   0.106310

H          x = -5.030781  y = -2.800176  z =  0.067446 angstrom
           Maximum rank =  0   Radius =  0.325 angstrom
                   Q00  =   0.104553

H          x = -5.068131  y = -1.561486  z = -1.217174 angstrom
           Maximum rank =  0   Radius =  0.325 angstrom
                   Q00  =   0.100493

C          x =  2.037219  y =  0.327824  z = -3.250554 angstrom
           Maximum rank =  0   Radius =  0.650 angstrom
                   Q00  =  -0.207045

C          x =  2.023219  y =  0.663824  z = -0.778554 angstrom
           Maximum rank =  0   Radius =  0.650 angstrom
                   Q00  =  -0.016926

C          x =  2.386219  y =  1.130824  z = -2.030554 angstrom
           Maximum rank =  0   Radius =  0.650 angstrom
                   Q00  =  -0.115254

C          x =  2.301219  y =  1.406824  z =  0.359446 angstrom
           Maximum rank =  0   Radius =  0.650 angstrom
                   Q00  =  -0.190148

C          x =  2.910219  y =  2.649824  z =  0.239446 angstrom
           Maximum rank =  0   Radius =  0.650 angstrom
                   Q00  =   0.332386

C          x =  2.983219  y =  2.379824  z = -2.142554 angstrom
           Maximum rank =  0   Radius =  0.650 angstrom
                   Q00  =  -0.004465

C          x =  3.250219  y =  3.146824  z = -1.003554 angstrom
           Maximum rank =  0   Radius =  0.650 angstrom
                   Q00  =  -0.126736

O          x =  3.138219  y =  3.374824  z =  1.370446 angstrom
           Maximum rank =  0   Radius =  0.650 angstrom
                   Q00  =  -0.652165

H          x =  1.507219  y = -0.277176  z = -0.671554 angstrom
           Maximum rank =  0   Radius =  0.325 angstrom
                   Q00  =   0.081433

H          x =  2.022219  y =  1.035824  z =  1.333446 angstrom
           Maximum rank =  0   Radius =  0.325 angstrom
                   Q00  =   0.057502

H          x =  2.497219  y =  0.775824  z = -4.132554 angstrom
           Maximum rank =  0   Radius =  0.325 angstrom
                   Q00  =   0.093796

H          x =  0.961219  y =  0.380824  z = -3.377554 angstrom
           Maximum rank =  0   Radius =  0.325 angstrom
                   Q00  =   0.099920

H          x =  3.231219  y =  2.772824  z = -3.118554 angstrom
           Maximum rank =  0   Radius =  0.325 angstrom
                   Q00  =   0.064897

H          x =  2.841219  y =  2.906824  z =  2.158446 angstrom
           Maximum rank =  0   Radius =  0.325 angstrom
                   Q00  =   0.403793

H          x =  3.708219  y =  4.117824  z = -1.083554 angstrom
           Maximum rank =  0   Radius =  0.325 angstrom
                   Q00  =   0.081778

H          x =  2.300859  y = -0.739106  z = -3.204074 angstrom
           Maximum rank =  0   Radius =  0.325 angstrom
                   Q00  =   0.100268

Total multipoles referred to origin at
           x =   0.000000,  y =    0.000000,  z =    0.000000 angstrom
                   Q00  =  -0.000000

Finished at 6:36:35 on 27 Apr 2020

  DMA results are available in the Python driver through the
	  variable('DMA DISTRIBUTED MULTIPOLES')
  and
	  variable('DMA TOTAL MULTIPOLES')
  commands.

    Psi4 stopped on: Monday, 27 April 2020 06:36AM
    Psi4 wall time for execution: 0:26:30.34

*** Psi4 exiting successfully. Buy a developer a beer!
