                               Psi4 1.3.2 release

  ==> Input File <==

--------------------------------------------------------------------------
import numpy as np
set {scf_type pk
basis cc-pvdz
d_convergence 10
gdma_switch   0
gdma_limit    0
gdma_origin   [ 0.0,  0.0,  0.0 ]
}
molecule test {
    units Angstrom
    -1 1
    --
    -1 1
    C               -1.492125108861673    -0.782918422143719     1.686761298972090
    C                0.022874891138327    -0.561918422143719     2.040761298972090
    C               -1.756125108861674    -1.955918422143719     0.709761298972090
    O               -0.856125108861673    -2.188918422143718    -0.103238701027910
    O               -2.800125108861673    -2.677918422143719     0.752761298972090
    H               -2.047125108861674    -0.970918422143719     2.606761298972091
    H               -1.883125108861674     0.136081577856281     1.244761298972090
    H                0.689874891138327    -0.449918422143719     1.224761298972090
    H                0.364874891138327    -1.476918422143719     2.524761298972091
    H                0.138361891138327     0.245061577856281     2.779301298972090
    C                0.599874891138326     0.822081577856281    -0.787238701027910
    C               -0.253125108861673     0.342081577856281    -1.951238701027910
    C                2.697874891138327     2.263081577856282     0.252761298972090
    S                1.713874891138327     2.194081577856282    -1.204238701027910
    H               -0.039125108861673     1.131081577856281     0.036761298972090
    H                1.253874891138327    -0.011918422143719    -0.544238701027910
    H               -1.003125108861673    -0.369918422143719    -1.627238701027909
    H                0.398874891138327    -0.145918422143719    -2.670238701027909
    H                3.475874891138326     1.530081577856281     0.132761298972090
    H                3.157874891138326     3.243081577856281     0.287761298972090
    H                2.071874891138326     2.095081577856281     1.112761298972091
    H               -0.770152108861674     1.174511577856281    -2.450988701027909

}
e, wfn = energy('scf', return_wfn=True)
gdma(wfn)
dmavals = variable('DMA DISTRIBUTED MULTIPOLES')
charges = np.array(dmavals)
print(charges)
np.save('SSI-137GLU-143MET-1-dimer.npy', np.array(charges))--------------------------------------------------------------------------

*** tstart() called on ds3
*** at Mon Apr 27 03:21:58 2020

   => Loading Basis Set <=

    Name: CC-PVDZ
    Role: ORBITAL
    Keyword: BASIS
    atoms 1-3, 11-13  entry C          line   138 file /theoryfs2/ds/metcalf/miniconda2/envs/tf2gpu/share/psi4/basis/cc-pvdz.gbs
    atoms 4-5         entry O          line   198 file /theoryfs2/ds/metcalf/miniconda2/envs/tf2gpu/share/psi4/basis/cc-pvdz.gbs
    atoms 6-10, 15-22 entry H          line    22 file /theoryfs2/ds/metcalf/miniconda2/envs/tf2gpu/share/psi4/basis/cc-pvdz.gbs
    atoms 14          entry S          line   598 file /theoryfs2/ds/metcalf/miniconda2/envs/tf2gpu/share/psi4/basis/cc-pvdz.gbs

         ---------------------------------------------------------
                                   SCF
               by Justin Turney, Rob Parrish, Andy Simmonett
                          and Daniel G. A. Smith
                              RHF Reference
                        1 Threads,    500 MiB Core
         ---------------------------------------------------------

  ==> Geometry <==

    Molecular point group: c1
    Full point group: C1

    Geometry (in Angstrom), charge = -1, multiplicity = 1:

       Center              X                  Y                   Z               Mass
    ------------   -----------------  -----------------  -----------------  -----------------
         C           -1.492125108862    -0.782918422144     1.686761298972    12.000000000000
         C            0.022874891138    -0.561918422144     2.040761298972    12.000000000000
         C           -1.756125108862    -1.955918422144     0.709761298972    12.000000000000
         O           -0.856125108862    -2.188918422144    -0.103238701028    15.994914619570
         O           -2.800125108862    -2.677918422144     0.752761298972    15.994914619570
         H           -2.047125108862    -0.970918422144     2.606761298972     1.007825032230
         H           -1.883125108862     0.136081577856     1.244761298972     1.007825032230
         H            0.689874891138    -0.449918422144     1.224761298972     1.007825032230
         H            0.364874891138    -1.476918422144     2.524761298972     1.007825032230
         H            0.138361891138     0.245061577856     2.779301298972     1.007825032230
         C            0.599874891138     0.822081577856    -0.787238701028    12.000000000000
         C           -0.253125108862     0.342081577856    -1.951238701028    12.000000000000
         C            2.697874891138     2.263081577856     0.252761298972    12.000000000000
         S            1.713874891138     2.194081577856    -1.204238701028    31.972071174400
         H           -0.039125108862     1.131081577856     0.036761298972     1.007825032230
         H            1.253874891138    -0.011918422144    -0.544238701028     1.007825032230
         H           -1.003125108862    -0.369918422144    -1.627238701028     1.007825032230
         H            0.398874891138    -0.145918422144    -2.670238701028     1.007825032230
         H            3.475874891138     1.530081577856     0.132761298972     1.007825032230
         H            3.157874891138     3.243081577856     0.287761298972     1.007825032230
         H            2.071874891138     2.095081577856     1.112761298972     1.007825032230
         H           -0.770152108862     1.174511577856    -2.450988701028     1.007825032230

  Running in c1 symmetry.

  Rotational constants: A =      0.08008  B =      0.01708  C =      0.01492 [cm^-1]
  Rotational constants: A =   2400.61027  B =    511.89807  C =    447.29029 [MHz]
  Nuclear repulsion =  524.845511337861353

  Charge       = -1
  Multiplicity = 1
  Electrons    = 82
  Nalpha       = 41
  Nbeta        = 41

  ==> Algorithm <==

  SCF Algorithm Type is PK.
  DIIS enabled.
  MOM disabled.
  Fractional occupation disabled.
  Guess Type is SAD.
  Energy threshold   = 1.00e-06
  Density threshold  = 1.00e-10
  Integral threshold = 0.00e+00

  ==> Primary Basis <==

  Basis Set: CC-PVDZ
    Blend: CC-PVDZ
    Number of shells: 95
    Number of basis function: 195
    Number of Cartesian functions: 204
    Spherical Harmonics?: true
    Max angular momentum: 2

  ==> Pre-Iterations <==

   -------------------------------------------------------
    Irrep   Nso     Nmo     Nalpha   Nbeta   Ndocc  Nsocc
   -------------------------------------------------------
     A        195     195       0       0       0       0
   -------------------------------------------------------
    Total     195     195      41      41      41       0
   -------------------------------------------------------

  ==> Integral Setup <==

  Using integral reordering PK algorithm.
  Sizing the integral batches needed.
  Building batch lookup table.
   Calculation information:
      Number of atoms:                  22
      Number of AO shells:              95
      Number of primitives:            291
      Number of atomic orbitals:       204
      Number of basis functions:       195

      Integral cutoff                 1.00e-12
      Number of threads:                 1

	Batch   1 pq = [       0,    9405] index = [             0,44231715] size =     44231715
	Batch   2 pq = [    9405,   13301] index = [      44231715,88464951] size =     44233236
	Batch   3 pq = [   13301,   16290] index = [      88464951,132690195] size =     44225244
	Batch   4 pq = [   16290,   18810] index = [     132690195,176917455] size =     44227260
	Batch   5 pq = [   18810,   19110] index = [     176917455,182605605] size =      5688150
  Task number: 17
  Buffer size: 11059200
  Buffer per thread: 2
  We computed 9180054 shell quartets total.
  Whereas there are 10399080 unique shell quartets.

  ==> DiskJK: Disk-Based J/K Matrices <==

    J tasked:                  Yes
    K tasked:                  Yes
    wK tasked:                  No
    Memory [MiB]:              375
    Schwarz Cutoff:          1E-12

    OpenMP threads:              1

  Minimum eigenvalue in the overlap matrix is 4.2660942016E-03.
  Using Symmetric Orthogonalization.

  SCF Guess: Superposition of Atomic Densities via on-the-fly atomic UHF.

  ==> Iterations <==

                        Total Energy        Delta E     RMS |[F,P]|

   @RHF iter SAD:  -780.51417480263706   -7.80514e+02   0.00000e+00
   @RHF iter   1:  -781.74832792159191   -1.23415e+00   3.92095e-03 DIIS
   @RHF iter   2:  -781.98875865935804   -2.40431e-01   2.16408e-03 DIIS
   @RHF iter   3:  -782.05584840447636   -6.70897e-02   3.70243e-04 DIIS
   @RHF iter   4:  -782.05960043545144   -3.75203e-03   1.33600e-04 DIIS
   @RHF iter   5:  -782.06006307744883   -4.62642e-04   2.19974e-05 DIIS
   @RHF iter   6:  -782.06008001386635   -1.69364e-05   5.62506e-06 DIIS
   @RHF iter   7:  -782.06008107270259   -1.05884e-06   1.93909e-06 DIIS
   @RHF iter   8:  -782.06008118935335   -1.16651e-07   6.81612e-07 DIIS
   @RHF iter   9:  -782.06008120422439   -1.48710e-08   2.59010e-07 DIIS
   @RHF iter  10:  -782.06008120691672   -2.69233e-09   7.91121e-08 DIIS
   @RHF iter  11:  -782.06008120722913   -3.12411e-10   2.69514e-08 DIIS
   @RHF iter  12:  -782.06008120726938   -4.02451e-11   1.10441e-08 DIIS
   @RHF iter  13:  -782.06008120727893   -9.54969e-12   3.47370e-09 DIIS
   @RHF iter  14:  -782.06008120728109   -2.16005e-12   1.16682e-09 DIIS
   @RHF iter  15:  -782.06008120728256   -1.47793e-12   4.07551e-10 DIIS
   @RHF iter  16:  -782.06008120728211    4.54747e-13   1.46834e-10 DIIS
   @RHF iter  17:  -782.06008120728484   -2.72848e-12   5.15834e-11 DIIS
  Energy and wave function converged.

  ==> Post-Iterations <==

    Orbital Energies [Eh]
    ---------------------

    Doubly Occupied:

       1A    -91.824643     2A    -20.275048     3A    -20.265126
       4A    -11.155854     5A    -11.136729     6A    -11.127496
       7A    -11.097327     8A    -11.081512     9A    -11.072339
      10A     -8.830005    11A     -6.512205    12A     -6.510584
      13A     -6.508422    14A     -1.162806    15A     -1.040596
      16A     -0.976845    17A     -0.897133    18A     -0.872402
      19A     -0.765547    20A     -0.721293    21A     -0.673421
      22A     -0.524666    23A     -0.515316    24A     -0.504457
      25A     -0.490166    26A     -0.480564    27A     -0.451822
      28A     -0.440219    29A     -0.401591    30A     -0.395852
      31A     -0.385524    32A     -0.378640    33A     -0.369748
      34A     -0.360436    35A     -0.340674    36A     -0.309227
      37A     -0.305922    38A     -0.226488    39A     -0.193299
      40A     -0.178757    41A     -0.168568

    Virtual:

      42A      0.270714    43A      0.296784    44A      0.314334
      45A      0.333389    46A      0.351398    47A      0.353761
      48A      0.365897    49A      0.368456    50A      0.377176
      51A      0.390053    52A      0.406919    53A      0.411716
      54A      0.432934    55A      0.451982    56A      0.471519
      57A      0.490399    58A      0.516010    59A      0.564681
      60A      0.590584    61A      0.646328    62A      0.662511
      63A      0.679550    64A      0.694068    65A      0.718180
      66A      0.737476    67A      0.751110    68A      0.762762
      69A      0.780845    70A      0.797318    71A      0.806793
      72A      0.843668    73A      0.867782    74A      0.892252
      75A      0.904220    76A      0.926995    77A      0.933947
      78A      0.943114    79A      0.949467    80A      0.960983
      81A      0.977476    82A      0.987430    83A      0.993380
      84A      1.002659    85A      1.009046    86A      1.012718
      87A      1.025073    88A      1.037556    89A      1.044157
      90A      1.053032    91A      1.068800    92A      1.074115
      93A      1.084095    94A      1.087310    95A      1.099330
      96A      1.119085    97A      1.125561    98A      1.127932
      99A      1.154480   100A      1.190874   101A      1.254219
     102A      1.284870   103A      1.304868   104A      1.325793
     105A      1.370437   106A      1.405171   107A      1.413871
     108A      1.427612   109A      1.454075   110A      1.470579
     111A      1.492717   112A      1.520774   113A      1.545309
     114A      1.561642   115A      1.576051   116A      1.601416
     117A      1.608364   118A      1.623736   119A      1.648289
     120A      1.662456   121A      1.699081   122A      1.747780
     123A      1.761928   124A      1.799071   125A      1.813261
     126A      1.846557   127A      1.850980   128A      1.872394
     129A      1.893229   130A      1.959958   131A      1.966630
     132A      1.985087   133A      1.990636   134A      2.017719
     135A      2.028622   136A      2.039254   137A      2.053439
     138A      2.065914   139A      2.088813   140A      2.092186
     141A      2.117751   142A      2.121420   143A      2.131731
     144A      2.144549   145A      2.156760   146A      2.163456
     147A      2.185950   148A      2.192659   149A      2.211433
     150A      2.244742   151A      2.258132   152A      2.278169
     153A      2.288312   154A      2.317111   155A      2.339697
     156A      2.363040   157A      2.391372   158A      2.429753
     159A      2.456679   160A      2.491066   161A      2.509772
     162A      2.520376   163A      2.541733   164A      2.556284
     165A      2.578685   166A      2.615063   167A      2.652100
     168A      2.698511   169A      2.705570   170A      2.718287
     171A      2.763075   172A      2.822329   173A      2.878233
     174A      2.902894   175A      2.908071   176A      2.914618
     177A      2.931905   178A      2.962266   179A      2.966993
     180A      2.990687   181A      3.034384   182A      3.059294
     183A      3.088770   184A      3.099177   185A      3.179885
     186A      3.242474   187A      3.281434   188A      3.290941
     189A      3.355909   190A      3.639088   191A      3.731941
     192A      3.801940   193A      4.035227   194A      4.091866
     195A      4.193198

    Final Occupation by Irrep:
              A
    DOCC [    41 ]

  @RHF Final Energy:  -782.06008120728484

   => Energetics <=

    Nuclear Repulsion Energy =            524.8455113378613532
    One-Electron Energy =               -2129.9526448120523128
    Two-Electron Energy =                 823.0470522669061211
    Total Energy =                       -782.0600812072848385

Computation Completed

Properties will be evaluated at   0.000000,   0.000000,   0.000000 [a0]

Properties computed using the SCF density matrix

  Nuclear Dipole Moment: [e a0]
     X:     5.4733      Y:     5.7807      Z:     4.3378

  Electronic Dipole Moment: [e a0]
     X:    -2.5438      Y:    -2.1290      Z:    -4.2068

  Dipole Moment: [e a0]
     X:     2.9295      Y:     3.6517      Z:     0.1309     Total:     4.6834

  Dipole Moment: [D]
     X:     7.4461      Y:     9.2817      Z:     0.3328     Total:    11.9040

*** tstop() called on ds3 at Mon Apr 27 03:23:34 2020
Module time:
	user time   =      72.17 seconds =       1.20 minutes
	system time =      26.04 seconds =       0.43 minutes
	total time  =         96 seconds =       1.60 minutes
Total time:
	user time   =      72.17 seconds =       1.20 minutes
	system time =      26.04 seconds =       0.43 minutes
	total time  =         96 seconds =       1.60 minutes
                                     G D M A

                                 by Anthony Stone

                           version 2.2.06, 22 June 2011

               Distributed Multipoles from Gaussian wavefunctions

Starting at 3:23:34 on 27 Apr 2020

Using SCF density matrix from file ./SSI/SSI-137GLU-143MET-1-dimer.test.17894.fchk

                         Distributed Multipole Analysis

Standard DMA

Positions and radii in angstrom
Multipole moments in atomic units, ea_0^k for rank k

C          x = -1.492125  y = -0.782918  z =  1.686761 angstrom
           Maximum rank =  0   Radius =  0.650 angstrom
                   Q00  =  -0.167361

C          x =  0.022875  y = -0.561918  z =  2.040761 angstrom
           Maximum rank =  0   Radius =  0.650 angstrom
                   Q00  =  -0.246370

C          x = -1.756125  y = -1.955918  z =  0.709761 angstrom
           Maximum rank =  0   Radius =  0.650 angstrom
                   Q00  =   1.007487

O          x = -0.856125  y = -2.188918  z = -0.103239 angstrom
           Maximum rank =  0   Radius =  0.650 angstrom
                   Q00  =  -0.929035

O          x = -2.800125  y = -2.677918  z =  0.752761 angstrom
           Maximum rank =  0   Radius =  0.650 angstrom
                   Q00  =  -0.945375

H          x = -2.047125  y = -0.970918  z =  2.606761 angstrom
           Maximum rank =  0   Radius =  0.325 angstrom
                   Q00  =   0.039445

H          x = -1.883125  y =  0.136082  z =  1.244761 angstrom
           Maximum rank =  0   Radius =  0.325 angstrom
                   Q00  =   0.049714

H          x =  0.689875  y = -0.449918  z =  1.224761 angstrom
           Maximum rank =  0   Radius =  0.325 angstrom
                   Q00  =   0.104691

H          x =  0.364875  y = -1.476918  z =  2.524761 angstrom
           Maximum rank =  0   Radius =  0.325 angstrom
                   Q00  =   0.071247

H          x =  0.138362  y =  0.245062  z =  2.779301 angstrom
           Maximum rank =  0   Radius =  0.325 angstrom
                   Q00  =   0.023659

C          x =  0.599875  y =  0.822082  z = -0.787239 angstrom
           Maximum rank =  0   Radius =  0.650 angstrom
                   Q00  =  -0.173327

C          x = -0.253125  y =  0.342082  z = -1.951239 angstrom
           Maximum rank =  0   Radius =  0.650 angstrom
                   Q00  =  -0.183541

C          x =  2.697875  y =  2.263082  z =  0.252761 angstrom
           Maximum rank =  0   Radius =  0.650 angstrom
                   Q00  =  -0.322366

S          x =  1.713875  y =  2.194082  z = -1.204239 angstrom
           Maximum rank =  0   Radius =  0.650 angstrom
                   Q00  =   0.016217

H          x = -0.039125  y =  1.131082  z =  0.036761 angstrom
           Maximum rank =  0   Radius =  0.325 angstrom
                   Q00  =   0.070907

H          x =  1.253875  y = -0.011918  z = -0.544239 angstrom
           Maximum rank =  0   Radius =  0.325 angstrom
                   Q00  =   0.066367

H          x = -1.003125  y = -0.369918  z = -1.627239 angstrom
           Maximum rank =  0   Radius =  0.325 angstrom
                   Q00  =   0.141612

H          x =  0.398875  y = -0.145918  z = -2.670239 angstrom
           Maximum rank =  0   Radius =  0.325 angstrom
                   Q00  =   0.075813

H          x =  3.475875  y =  1.530082  z =  0.132761 angstrom
           Maximum rank =  0   Radius =  0.325 angstrom
                   Q00  =   0.072354

H          x =  3.157875  y =  3.243082  z =  0.287761 angstrom
           Maximum rank =  0   Radius =  0.325 angstrom
                   Q00  =   0.093173

H          x =  2.071875  y =  2.095082  z =  1.112761 angstrom
           Maximum rank =  0   Radius =  0.325 angstrom
                   Q00  =   0.095983

H          x = -0.770152  y =  1.174512  z = -2.450989 angstrom
           Maximum rank =  0   Radius =  0.325 angstrom
                   Q00  =   0.038706

Total multipoles referred to origin at
           x =   0.000000,  y =    0.000000,  z =    0.000000 angstrom
                   Q00  =  -1.000000

Finished at 3:23:34 on 27 Apr 2020

  DMA results are available in the Python driver through the
	  variable('DMA DISTRIBUTED MULTIPOLES')
  and
	  variable('DMA TOTAL MULTIPOLES')
  commands.

    Psi4 stopped on: Monday, 27 April 2020 03:23AM
    Psi4 wall time for execution: 0:01:35.75

*** Psi4 exiting successfully. Buy a developer a beer!
