                               Psi4 1.3.2 release

  ==> Input File <==

--------------------------------------------------------------------------
import numpy as np
set {scf_type pk
basis cc-pvdz
d_convergence 10
gdma_switch   0
gdma_limit    0
gdma_origin   [ 0.0,  0.0,  0.0 ]
}
molecule test {
    units Angstrom
    0 1
    --
    0 1
    C               -0.076481035713125    -1.780198966892574    -2.049308612738156
    C                0.898518964286875    -1.952198966892573     0.294691387261844
    N                0.245518964286875    -1.295198966892573    -0.671308612738156
    N                1.397518964286875    -3.165198966892573     0.108691387261844
    N                1.028518964286875    -1.391198966892574     1.492691387261844
    H               -0.066481035713125    -0.347198966892574    -0.433308612738156
    H               -1.073481035713125    -1.418198966892573    -2.315308612738157
    H               -0.109481035713125    -2.859198966892574    -2.093308612738156
    H                1.699518964286875    -3.365198966892573    -0.834308612738156
    H                1.863518964286875    -3.621198966892573     0.885691387261844
    H                0.779518964286875    -0.415198966892574     1.598691387261844
    H                1.520518964286875    -1.860198966892573     2.239691387261844
    H                0.633448964286875    -1.390428966892574    -2.793678612738157
    C               -1.058481035713125     3.123801033107427    -1.074308612738156
    C               -0.876481035713125     2.344801033107427     0.262691387261844
    O               -0.748481035713125     1.080801033107426     0.333691387261844
    O               -0.878481035713125     3.074801033107426     1.275691387261844
    H               -0.169481035713125     3.736801033107426    -1.235308612738156
    H               -1.927481035713125     3.782801033107427    -1.006308612738156
    H               -1.197201035713125     2.436251033107427    -1.921678612738156

}
e, wfn = energy('scf', return_wfn=True)
gdma(wfn)
dmavals = variable('DMA DISTRIBUTED MULTIPOLES')
charges = np.array(dmavals)
print(charges)
np.save('SSI-137ARG-157GLU-1-dimer.npy', np.array(charges))--------------------------------------------------------------------------

*** tstart() called on ds3
*** at Mon Apr 27 12:08:18 2020

   => Loading Basis Set <=

    Name: CC-PVDZ
    Role: ORBITAL
    Keyword: BASIS
    atoms 1-2, 14-15  entry C          line   138 file /theoryfs2/ds/metcalf/miniconda2/envs/tf2gpu/share/psi4/basis/cc-pvdz.gbs
    atoms 3-5         entry N          line   168 file /theoryfs2/ds/metcalf/miniconda2/envs/tf2gpu/share/psi4/basis/cc-pvdz.gbs
    atoms 6-13, 18-20 entry H          line    22 file /theoryfs2/ds/metcalf/miniconda2/envs/tf2gpu/share/psi4/basis/cc-pvdz.gbs
    atoms 16-17       entry O          line   198 file /theoryfs2/ds/metcalf/miniconda2/envs/tf2gpu/share/psi4/basis/cc-pvdz.gbs

         ---------------------------------------------------------
                                   SCF
               by Justin Turney, Rob Parrish, Andy Simmonett
                          and Daniel G. A. Smith
                              RHF Reference
                        1 Threads,    500 MiB Core
         ---------------------------------------------------------

  ==> Geometry <==

    Molecular point group: c1
    Full point group: C1

    Geometry (in Angstrom), charge = 0, multiplicity = 1:

       Center              X                  Y                   Z               Mass
    ------------   -----------------  -----------------  -----------------  -----------------
         C           -0.076481035713    -1.780198966893    -2.049308612738    12.000000000000
         C            0.898518964287    -1.952198966893     0.294691387262    12.000000000000
         N            0.245518964287    -1.295198966893    -0.671308612738    14.003074004430
         N            1.397518964287    -3.165198966893     0.108691387262    14.003074004430
         N            1.028518964287    -1.391198966893     1.492691387262    14.003074004430
         H           -0.066481035713    -0.347198966893    -0.433308612738     1.007825032230
         H           -1.073481035713    -1.418198966893    -2.315308612738     1.007825032230
         H           -0.109481035713    -2.859198966893    -2.093308612738     1.007825032230
         H            1.699518964287    -3.365198966893    -0.834308612738     1.007825032230
         H            1.863518964287    -3.621198966893     0.885691387262     1.007825032230
         H            0.779518964287    -0.415198966893     1.598691387262     1.007825032230
         H            1.520518964287    -1.860198966893     2.239691387262     1.007825032230
         H            0.633448964287    -1.390428966893    -2.793678612738     1.007825032230
         C           -1.058481035713     3.123801033107    -1.074308612738    12.000000000000
         C           -0.876481035713     2.344801033107     0.262691387262    12.000000000000
         O           -0.748481035713     1.080801033107     0.333691387262    15.994914619570
         O           -0.878481035713     3.074801033107     1.275691387262    15.994914619570
         H           -0.169481035713     3.736801033107    -1.235308612738     1.007825032230
         H           -1.927481035713     3.782801033107    -1.006308612738     1.007825032230
         H           -1.197201035713     2.436251033107    -1.921678612738     1.007825032230

  Running in c1 symmetry.

  Rotational constants: A =      0.09215  B =      0.02089  C =      0.01736 [cm^-1]
  Rotational constants: A =   2762.72381  B =    626.19150  C =    520.47655 [MHz]
  Nuclear repulsion =  448.367709271604554

  Charge       = 0
  Multiplicity = 1
  Electrons    = 72
  Nalpha       = 36
  Nbeta        = 36

  ==> Algorithm <==

  SCF Algorithm Type is PK.
  DIIS enabled.
  MOM disabled.
  Fractional occupation disabled.
  Guess Type is SAD.
  Energy threshold   = 1.00e-06
  Density threshold  = 1.00e-10
  Integral threshold = 0.00e+00

  ==> Primary Basis <==

  Basis Set: CC-PVDZ
    Blend: CC-PVDZ
    Number of shells: 87
    Number of basis function: 181
    Number of Cartesian functions: 190
    Spherical Harmonics?: true
    Max angular momentum: 2

  ==> Pre-Iterations <==

   -------------------------------------------------------
    Irrep   Nso     Nmo     Nalpha   Nbeta   Ndocc  Nsocc
   -------------------------------------------------------
     A        181     181       0       0       0       0
   -------------------------------------------------------
    Total     181     181      36      36      36       0
   -------------------------------------------------------

  ==> Integral Setup <==

  Using integral reordering PK algorithm.
  Sizing the integral batches needed.
  Building batch lookup table.
   Calculation information:
      Number of atoms:                  20
      Number of AO shells:              87
      Number of primitives:            253
      Number of atomic orbitals:       190
      Number of basis functions:       181

      Integral cutoff                 1.00e-12
      Number of threads:                 1

	Batch   1 pq = [       0,    9405] index = [             0,44231715] size =     44231715
	Batch   2 pq = [    9405,   13301] index = [      44231715,88464951] size =     44233236
	Batch   3 pq = [   13301,   16471] index = [      88464951,135655156] size =     47190205
  Task number: 13
  Buffer size: 11059200
  Buffer per thread: 2
  We computed 5860689 shell quartets total.
  Whereas there are 7328706 unique shell quartets.

  ==> DiskJK: Disk-Based J/K Matrices <==

    J tasked:                  Yes
    K tasked:                  Yes
    wK tasked:                  No
    Memory [MiB]:              375
    Schwarz Cutoff:          1E-12

    OpenMP threads:              1

  Minimum eigenvalue in the overlap matrix is 3.9676100880E-03.
  Using Symmetric Orthogonalization.

  SCF Guess: Superposition of Atomic Densities via on-the-fly atomic UHF.

  ==> Iterations <==

                        Total Energy        Delta E     RMS |[F,P]|

   @RHF iter SAD:  -469.45566923682401   -4.69456e+02   0.00000e+00
   @RHF iter   1:  -470.68445798242158   -1.22879e+00   4.25817e-03 DIIS
   @RHF iter   2:  -470.90753947756963   -2.23081e-01   2.30657e-03 DIIS
   @RHF iter   3:  -470.97066069019297   -6.31212e-02   4.06553e-04 DIIS
   @RHF iter   4:  -470.97412742860405   -3.46674e-03   1.48582e-04 DIIS
   @RHF iter   5:  -470.97457570620645   -4.48278e-04   3.05490e-05 DIIS
   @RHF iter   6:  -470.97460380418755   -2.80980e-05   1.64586e-05 DIIS
   @RHF iter   7:  -470.97460974201999   -5.93783e-06   4.49215e-06 DIIS
   @RHF iter   8:  -470.97461074277430   -1.00075e-06   2.19802e-06 DIIS
   @RHF iter   9:  -470.97461092433753   -1.81563e-07   7.33383e-07 DIIS
   @RHF iter  10:  -470.97461095397301   -2.96355e-08   2.40424e-07 DIIS
   @RHF iter  11:  -470.97461095651380   -2.54079e-09   6.55569e-08 DIIS
   @RHF iter  12:  -470.97461095665358   -1.39778e-10   2.34374e-08 DIIS
   @RHF iter  13:  -470.97461095667103   -1.74509e-11   6.31871e-09 DIIS
   @RHF iter  14:  -470.97461095666961    1.42109e-12   1.80520e-09 DIIS
   @RHF iter  15:  -470.97461095667171   -2.10321e-12   7.92071e-10 DIIS
   @RHF iter  16:  -470.97461095667131    3.97904e-13   3.04988e-10 DIIS
   @RHF iter  17:  -470.97461095667165   -3.41061e-13   1.47288e-10 DIIS
   @RHF iter  18:  -470.97461095667234   -6.82121e-13   4.64371e-11 DIIS
  Energy and wave function converged.

  ==> Post-Iterations <==

    Orbital Energies [Eh]
    ---------------------

    Doubly Occupied:

       1A    -20.422963     2A    -20.391887     3A    -15.664333
       4A    -15.642406     5A    -15.627385     6A    -11.450322
       7A    -11.316169     8A    -11.260398     9A    -11.170130
      10A     -1.399480    11A     -1.287869    12A     -1.256858
      13A     -1.243003    14A     -1.177009    15A     -1.003674
      16A     -0.908643    17A     -0.895057    18A     -0.832649
      19A     -0.797772    20A     -0.726210    21A     -0.711896
      22A     -0.674627    23A     -0.653887    24A     -0.628489
      25A     -0.613306    26A     -0.593723    27A     -0.538029
      28A     -0.528364    29A     -0.526821    30A     -0.489388
      31A     -0.473238    32A     -0.441931    33A     -0.435118
      34A     -0.333521    35A     -0.306741    36A     -0.304754

    Virtual:

      37A      0.107094    38A      0.140536    39A      0.153999
      40A      0.187855    41A      0.200198    42A      0.222937
      43A      0.234326    44A      0.250843    45A      0.262377
      46A      0.282275    47A      0.286937    48A      0.314701
      49A      0.357310    50A      0.383632    51A      0.411699
      52A      0.446782    53A      0.464642    54A      0.474293
      55A      0.566554    56A      0.575830    57A      0.591976
      58A      0.613409    59A      0.637218    60A      0.661100
      61A      0.669401    62A      0.676725    63A      0.696916
      64A      0.703883    65A      0.715111    66A      0.756453
      67A      0.791656    68A      0.806277    69A      0.815369
      70A      0.822985    71A      0.827365    72A      0.841688
      73A      0.861246    74A      0.883123    75A      0.893978
      76A      0.921180    77A      0.927476    78A      0.947371
      79A      0.948966    80A      0.959999    81A      0.966281
      82A      0.992541    83A      1.019458    84A      1.030446
      85A      1.041163    86A      1.071016    87A      1.105720
      88A      1.130689    89A      1.186869    90A      1.218030
      91A      1.226038    92A      1.228491    93A      1.241872
      94A      1.286275    95A      1.293671    96A      1.339361
      97A      1.383545    98A      1.397700    99A      1.422340
     100A      1.442536   101A      1.449671   102A      1.469531
     103A      1.512094   104A      1.539624   105A      1.551998
     106A      1.572391   107A      1.596102   108A      1.615343
     109A      1.625635   110A      1.661794   111A      1.663877
     112A      1.713105   113A      1.729411   114A      1.731020
     115A      1.750705   116A      1.770480   117A      1.848232
     118A      1.863051   119A      1.869553   120A      1.871135
     121A      1.892687   122A      1.910393   123A      1.925377
     124A      1.942014   125A      1.951513   126A      1.957335
     127A      1.979975   128A      1.990782   129A      2.005808
     130A      2.022509   131A      2.080932   132A      2.127866
     133A      2.150489   134A      2.170674   135A      2.190360
     136A      2.204334   137A      2.235613   138A      2.261257
     139A      2.296282   140A      2.303516   141A      2.313204
     142A      2.334273   143A      2.374545   144A      2.444423
     145A      2.453598   146A      2.458997   147A      2.511710
     148A      2.519076   149A      2.557991   150A      2.578962
     151A      2.588153   152A      2.600539   153A      2.663366
     154A      2.692723   155A      2.710638   156A      2.741249
     157A      2.773395   158A      2.806222   159A      2.845383
     160A      2.867775   161A      2.872763   162A      2.874095
     163A      2.903939   164A      2.941399   165A      2.963339
     166A      3.034308   167A      3.103011   168A      3.120707
     169A      3.147516   170A      3.177397   171A      3.209808
     172A      3.231769   173A      3.263785   174A      3.487687
     175A      3.588690   176A      3.654505   177A      3.700806
     178A      3.714633   179A      3.927551   180A      3.959722
     181A      4.037560

    Final Occupation by Irrep:
              A
    DOCC [    36 ]

  @RHF Final Energy:  -470.97461095667234

   => Energetics <=

    Nuclear Repulsion Energy =            448.3677092716045536
    One-Electron Energy =               -1533.2285397723612732
    Two-Electron Energy =                 613.8862195440843834
    Total Energy =                       -470.9746109566723362

Computation Completed

Properties will be evaluated at   0.000000,   0.000000,   0.000000 [a0]

Properties computed using the SCF density matrix

  Nuclear Dipole Moment: [e a0]
     X:     1.8152      Y:    -4.9513      Z:    -7.4095

  Electronic Dipole Moment: [e a0]
     X:     0.9934      Y:    -0.7426      Z:     6.0491

  Dipole Moment: [e a0]
     X:     2.8086      Y:    -5.6939      Z:    -1.3605     Total:     6.4930

  Dipole Moment: [D]
     X:     7.1388      Y:   -14.4723      Z:    -3.4580     Total:    16.5036

*** tstop() called on ds3 at Mon Apr 27 12:09:55 2020
Module time:
	user time   =      42.67 seconds =       0.71 minutes
	system time =      20.24 seconds =       0.34 minutes
	total time  =         97 seconds =       1.62 minutes
Total time:
	user time   =      42.67 seconds =       0.71 minutes
	system time =      20.24 seconds =       0.34 minutes
	total time  =         97 seconds =       1.62 minutes
                                     G D M A

                                 by Anthony Stone

                           version 2.2.06, 22 June 2011

               Distributed Multipoles from Gaussian wavefunctions

Starting at 12:9:55 on 27 Apr 2020

Using SCF density matrix from file ./SSI/SSI-137ARG-157GLU-1-dimer.test.3267.fchk

                         Distributed Multipole Analysis

Standard DMA

Positions and radii in angstrom
Multipole moments in atomic units, ea_0^k for rank k

C          x = -0.076481  y = -1.780199  z = -2.049309 angstrom
           Maximum rank =  0   Radius =  0.650 angstrom
                   Q00  =  -0.105301

C          x =  0.898519  y = -1.952199  z =  0.294691 angstrom
           Maximum rank =  0   Radius =  0.650 angstrom
                   Q00  =   1.054791

N          x =  0.245519  y = -1.295199  z = -0.671309 angstrom
           Maximum rank =  0   Radius =  0.650 angstrom
                   Q00  =  -0.536380

N          x =  1.397519  y = -3.165199  z =  0.108691 angstrom
           Maximum rank =  0   Radius =  0.650 angstrom
                   Q00  =  -0.563452

N          x =  1.028519  y = -1.391199  z =  1.492691 angstrom
           Maximum rank =  0   Radius =  0.650 angstrom
                   Q00  =  -0.571657

H          x = -0.066481  y = -0.347199  z = -0.433309 angstrom
           Maximum rank =  0   Radius =  0.325 angstrom
                   Q00  =   0.331056

H          x = -1.073481  y = -1.418199  z = -2.315309 angstrom
           Maximum rank =  0   Radius =  0.325 angstrom
                   Q00  =   0.151353

H          x = -0.109481  y = -2.859199  z = -2.093309 angstrom
           Maximum rank =  0   Radius =  0.325 angstrom
                   Q00  =   0.100541

H          x =  1.699519  y = -3.365199  z = -0.834309 angstrom
           Maximum rank =  0   Radius =  0.325 angstrom
                   Q00  =   0.241608

H          x =  1.863519  y = -3.621199  z =  0.885691 angstrom
           Maximum rank =  0   Radius =  0.325 angstrom
                   Q00  =   0.237132

H          x =  0.779519  y = -0.415199  z =  1.598691 angstrom
           Maximum rank =  0   Radius =  0.325 angstrom
                   Q00  =   0.284259

H          x =  1.520519  y = -1.860199  z =  2.239691 angstrom
           Maximum rank =  0   Radius =  0.325 angstrom
                   Q00  =   0.233511

H          x =  0.633449  y = -1.390429  z = -2.793679 angstrom
           Maximum rank =  0   Radius =  0.325 angstrom
                   Q00  =   0.110681

C          x = -1.058481  y =  3.123801  z = -1.074309 angstrom
           Maximum rank =  0   Radius =  0.650 angstrom
                   Q00  =  -0.289615

C          x = -0.876481  y =  2.344801  z =  0.262691 angstrom
           Maximum rank =  0   Radius =  0.650 angstrom
                   Q00  =   0.896734

O          x = -0.748481  y =  1.080801  z =  0.333691 angstrom
           Maximum rank =  0   Radius =  0.650 angstrom
                   Q00  =  -0.983851

O          x = -0.878481  y =  3.074801  z =  1.275691 angstrom
           Maximum rank =  0   Radius =  0.650 angstrom
                   Q00  =  -0.844624

H          x = -0.169481  y =  3.736801  z = -1.235309 angstrom
           Maximum rank =  0   Radius =  0.325 angstrom
                   Q00  =   0.101750

H          x = -1.927481  y =  3.782801  z = -1.006309 angstrom
           Maximum rank =  0   Radius =  0.325 angstrom
                   Q00  =   0.107801

H          x = -1.197201  y =  2.436251  z = -1.921679 angstrom
           Maximum rank =  0   Radius =  0.325 angstrom
                   Q00  =   0.043662

Total multipoles referred to origin at
           x =   0.000000,  y =    0.000000,  z =    0.000000 angstrom
                   Q00  =  -0.000000

Finished at 12:9:55 on 27 Apr 2020

  DMA results are available in the Python driver through the
	  variable('DMA DISTRIBUTED MULTIPOLES')
  and
	  variable('DMA TOTAL MULTIPOLES')
  commands.

    Psi4 stopped on: Monday, 27 April 2020 12:09PM
    Psi4 wall time for execution: 0:01:36.40

*** Psi4 exiting successfully. Buy a developer a beer!
