                               Psi4 1.3.2 release

  ==> Input File <==

--------------------------------------------------------------------------
import numpy as np
set {scf_type pk
basis cc-pvdz
d_convergence 10
gdma_switch   0
gdma_limit    0
gdma_origin   [ 0.0,  0.0,  0.0 ]
}
molecule test {
    units Angstrom
    0 1
    --
    0 1
    C               -1.103661609535503     1.067423815363923    -0.188608347761005
    C               -1.481661609535503     2.517423815363922    -0.176608347761005
    H               -1.309661609535503     0.628423815363923    -1.164608347761005
    H               -0.037661609535503     0.970423815363923     0.009391652238995
    H               -1.662661609535503     0.526423815363923     0.575391652238995
    H               -0.876661609535503     3.034423815363923    -0.922608347761005
    H               -2.543761609535503     2.645733815363922    -0.432508347761005
    H               -1.241651609535503     2.947133815363922     0.807131652238995
    C                1.331338390464497    -1.462576184636078     0.874391652238995
    C                1.251338390464497    -2.126576184636078    -0.506608347761005
    H                1.993338390464497    -0.598576184636078     0.846391652238995
    H                0.341338390464497    -1.125576184636078     1.178391652238995
    H                1.699338390464497    -2.164576184636078     1.617391652238995
    H                0.980338390464497    -1.355576184636077    -1.228608347761005
    H                2.221368390464496    -2.558486184636077    -0.793838347761005
    H                0.467848390464497    -2.898516184636078    -0.522478347761005

}
e, wfn = energy('scf', return_wfn=True)
gdma(wfn)
dmavals = variable('DMA DISTRIBUTED MULTIPOLES')
charges = np.array(dmavals)
print(charges)
np.save('SSI-031VAL-071VAL-1-dimer.npy', np.array(charges))--------------------------------------------------------------------------

*** tstart() called on ds3
*** at Mon Apr 27 13:22:31 2020

   => Loading Basis Set <=

    Name: CC-PVDZ
    Role: ORBITAL
    Keyword: BASIS
    atoms 1-2, 9-10  entry C          line   138 file /theoryfs2/ds/metcalf/miniconda2/envs/tf2gpu/share/psi4/basis/cc-pvdz.gbs
    atoms 3-8, 11-16 entry H          line    22 file /theoryfs2/ds/metcalf/miniconda2/envs/tf2gpu/share/psi4/basis/cc-pvdz.gbs

         ---------------------------------------------------------
                                   SCF
               by Justin Turney, Rob Parrish, Andy Simmonett
                          and Daniel G. A. Smith
                              RHF Reference
                        1 Threads,    500 MiB Core
         ---------------------------------------------------------

  ==> Geometry <==

    Molecular point group: c1
    Full point group: C1

    Geometry (in Angstrom), charge = 0, multiplicity = 1:

       Center              X                  Y                   Z               Mass
    ------------   -----------------  -----------------  -----------------  -----------------
         C           -1.103661609536     1.067423815364    -0.188608347761    12.000000000000
         C           -1.481661609536     2.517423815364    -0.176608347761    12.000000000000
         H           -1.309661609536     0.628423815364    -1.164608347761     1.007825032230
         H           -0.037661609536     0.970423815364     0.009391652239     1.007825032230
         H           -1.662661609536     0.526423815364     0.575391652239     1.007825032230
         H           -0.876661609536     3.034423815364    -0.922608347761     1.007825032230
         H           -2.543761609536     2.645733815364    -0.432508347761     1.007825032230
         H           -1.241651609536     2.947133815364     0.807131652239     1.007825032230
         C            1.331338390464    -1.462576184636     0.874391652239    12.000000000000
         C            1.251338390464    -2.126576184636    -0.506608347761    12.000000000000
         H            1.993338390464    -0.598576184636     0.846391652239     1.007825032230
         H            0.341338390464    -1.125576184636     1.178391652239     1.007825032230
         H            1.699338390464    -2.164576184636     1.617391652239     1.007825032230
         H            0.980338390464    -1.355576184636    -1.228608347761     1.007825032230
         H            2.221368390464    -2.558486184636    -0.793838347761     1.007825032230
         H            0.467848390464    -2.898516184636    -0.522478347761     1.007825032230

  Running in c1 symmetry.

  Rotational constants: A =      0.51625  B =      0.05167  C =      0.04917 [cm^-1]
  Rotational constants: A =  15476.63842  B =   1548.95230  C =   1474.12668 [MHz]
  Nuclear repulsion =  123.877912095964390

  Charge       = 0
  Multiplicity = 1
  Electrons    = 36
  Nalpha       = 18
  Nbeta        = 18

  ==> Algorithm <==

  SCF Algorithm Type is PK.
  DIIS enabled.
  MOM disabled.
  Fractional occupation disabled.
  Guess Type is SAD.
  Energy threshold   = 1.00e-06
  Density threshold  = 1.00e-10
  Integral threshold = 0.00e+00

  ==> Primary Basis <==

  Basis Set: CC-PVDZ
    Blend: CC-PVDZ
    Number of shells: 60
    Number of basis function: 116
    Number of Cartesian functions: 120
    Spherical Harmonics?: true
    Max angular momentum: 2

  ==> Pre-Iterations <==

   -------------------------------------------------------
    Irrep   Nso     Nmo     Nalpha   Nbeta   Ndocc  Nsocc
   -------------------------------------------------------
     A        116     116       0       0       0       0
   -------------------------------------------------------
    Total     116     116      18      18      18       0
   -------------------------------------------------------

  ==> Integral Setup <==

  Using integral reordering PK algorithm.
  Sizing the integral batches needed.
  Building batch lookup table.
   Calculation information:
      Number of atoms:                  16
      Number of AO shells:              60
      Number of primitives:            148
      Number of atomic orbitals:       120
      Number of basis functions:       116

      Integral cutoff                 1.00e-12
      Number of threads:                 1

	Batch   1 pq = [       0,    6786] index = [             0,23028291] size =     23028291
  Task number: 3
  Buffer size: 11059200
  Buffer per thread: 2
  We computed 1469937 shell quartets total.
  Whereas there are 1675365 unique shell quartets.

  ==> DiskJK: Disk-Based J/K Matrices <==

    J tasked:                  Yes
    K tasked:                  Yes
    wK tasked:                  No
    Memory [MiB]:              375
    Schwarz Cutoff:          1E-12

    OpenMP threads:              1

  Minimum eigenvalue in the overlap matrix is 6.3238523502E-03.
  Using Symmetric Orthogonalization.

  SCF Guess: Superposition of Atomic Densities via on-the-fly atomic UHF.

  ==> Iterations <==

                        Total Energy        Delta E     RMS |[F,P]|

   @RHF iter SAD:  -157.40145180940206   -1.57401e+02   0.00000e+00
   @RHF iter   1:  -158.30389659272939   -9.02445e-01   4.25424e-03 DIIS
   @RHF iter   2:  -158.43943533581373   -1.35539e-01   1.81820e-03 DIIS
   @RHF iter   3:  -158.46338290592018   -2.39476e-02   3.52056e-04 DIIS
   @RHF iter   4:  -158.46524163698223   -1.85873e-03   3.88929e-05 DIIS
   @RHF iter   5:  -158.46526540313124   -2.37661e-05   6.65915e-06 DIIS
   @RHF iter   6:  -158.46526603205427   -6.28923e-07   1.41731e-06 DIIS
   @RHF iter   7:  -158.46526605036141   -1.83071e-08   3.28892e-07 DIIS
   @RHF iter   8:  -158.46526605145618   -1.09478e-09   4.70760e-08 DIIS
   @RHF iter   9:  -158.46526605149185   -3.56692e-11   1.14340e-08 DIIS
   @RHF iter  10:  -158.46526605149364   -1.79057e-12   3.17673e-09 DIIS
   @RHF iter  11:  -158.46526605149376   -1.13687e-13   8.79666e-10 DIIS
   @RHF iter  12:  -158.46526605149432   -5.68434e-13   1.81483e-10 DIIS
   @RHF iter  13:  -158.46526605149404    2.84217e-13   2.56988e-11 DIIS
  Energy and wave function converged.

  ==> Post-Iterations <==

    Orbital Energies [Eh]
    ---------------------

    Doubly Occupied:

       1A    -11.218953     2A    -11.217273     3A    -11.215290
       4A    -11.214261     5A     -1.026991     6A     -1.015655
       7A     -0.837858     8A     -0.833026     9A     -0.606028
      10A     -0.602055    11A     -0.595785    12A     -0.594336
      13A     -0.506812    14A     -0.498583    15A     -0.489486
      16A     -0.485258    17A     -0.482220    18A     -0.478547

    Virtual:

      19A      0.174452    20A      0.197072    21A      0.227670
      22A      0.228625    23A      0.240410    24A      0.261485
      25A      0.267303    26A      0.272700    27A      0.281917
      28A      0.296374    29A      0.317015    30A      0.334543
      31A      0.395039    32A      0.409187    33A      0.568844
      34A      0.596922    35A      0.600491    36A      0.606595
      37A      0.608653    38A      0.654648    39A      0.662105
      40A      0.684383    41A      0.711870    42A      0.792220
      43A      0.843371    44A      0.858152    45A      0.887502
      46A      0.889184    47A      0.893424    48A      0.896430
      49A      0.901590    50A      0.906921    51A      0.915048
      52A      0.918932    53A      0.957451    54A      0.967249
      55A      0.974655    56A      1.008158    57A      1.126700
      58A      1.128982    59A      1.137878    60A      1.158145
      61A      1.235481    62A      1.249256    63A      1.467321
      64A      1.470456    65A      1.481763    66A      1.493266
      67A      1.569711    68A      1.592471    69A      1.676058
      70A      1.684448    71A      1.692788    72A      1.700581
      73A      1.845915    74A      1.860162    75A      1.871517
      76A      1.883156    77A      1.888641    78A      1.930466
      79A      1.938631    80A      1.940864    81A      1.944427
      82A      1.951491    83A      1.956005    84A      1.961095
      85A      1.969538    86A      1.980400    87A      2.012240
      88A      2.036561    89A      2.091278    90A      2.112318
      91A      2.123783    92A      2.131859    93A      2.296425
      94A      2.312491    95A      2.319005    96A      2.325358
      97A      2.447200    98A      2.458181    99A      2.462493
     100A      2.481176   101A      2.560757   102A      2.574731
     103A      2.576919   104A      2.584600   105A      2.760274
     106A      2.765495   107A      2.791564   108A      2.798003
     109A      2.849020   110A      2.857778   111A      2.860489
     112A      2.865050   113A      2.941124   114A      2.956905
     115A      2.967558   116A      2.988320

    Final Occupation by Irrep:
              A
    DOCC [    18 ]

  @RHF Final Energy:  -158.46526605149404

   => Energetics <=

    Nuclear Repulsion Energy =            123.8779120959643905
    One-Electron Energy =                -456.8495213768112535
    Two-Electron Energy =                 174.5063432293528081
    Total Energy =                       -158.4652660514940408

Computation Completed

Properties will be evaluated at   0.000000,   0.000000,   0.000000 [a0]

Properties computed using the SCF density matrix

  Nuclear Dipole Moment: [e a0]
     X:     0.0295      Y:     0.0481      Z:    -0.0286

  Electronic Dipole Moment: [e a0]
     X:    -0.0316      Y:    -0.0348      Z:     0.0271

  Dipole Moment: [e a0]
     X:    -0.0021      Y:     0.0132      Z:    -0.0015     Total:     0.0135

  Dipole Moment: [D]
     X:    -0.0053      Y:     0.0336      Z:    -0.0039     Total:     0.0342

*** tstop() called on ds3 at Mon Apr 27 13:22:46 2020
Module time:
	user time   =      11.85 seconds =       0.20 minutes
	system time =       4.08 seconds =       0.07 minutes
	total time  =         15 seconds =       0.25 minutes
Total time:
	user time   =      11.85 seconds =       0.20 minutes
	system time =       4.08 seconds =       0.07 minutes
	total time  =         15 seconds =       0.25 minutes
                                     G D M A

                                 by Anthony Stone

                           version 2.2.06, 22 June 2011

               Distributed Multipoles from Gaussian wavefunctions

Starting at 13:22:46 on 27 Apr 2020

Using SCF density matrix from file ./SSI/SSI-031VAL-071VAL-1-dimer.test.6372.fchk

                         Distributed Multipole Analysis

Standard DMA

Positions and radii in angstrom
Multipole moments in atomic units, ea_0^k for rank k

C          x = -1.103662  y =  1.067424  z = -0.188608 angstrom
           Maximum rank =  0   Radius =  0.650 angstrom
                   Q00  =  -0.238663

C          x = -1.481662  y =  2.517424  z = -0.176608 angstrom
           Maximum rank =  0   Radius =  0.650 angstrom
                   Q00  =  -0.219639

H          x = -1.309662  y =  0.628424  z = -1.164608 angstrom
           Maximum rank =  0   Radius =  0.325 angstrom
                   Q00  =   0.076680

H          x = -0.037662  y =  0.970424  z =  0.009392 angstrom
           Maximum rank =  0   Radius =  0.325 angstrom
                   Q00  =   0.077763

H          x = -1.662662  y =  0.526424  z =  0.575392 angstrom
           Maximum rank =  0   Radius =  0.325 angstrom
                   Q00  =   0.074971

H          x = -0.876662  y =  3.034424  z = -0.922608 angstrom
           Maximum rank =  0   Radius =  0.325 angstrom
                   Q00  =   0.074564

H          x = -2.543762  y =  2.645734  z = -0.432508 angstrom
           Maximum rank =  0   Radius =  0.325 angstrom
                   Q00  =   0.077817

H          x = -1.241652  y =  2.947134  z =  0.807132 angstrom
           Maximum rank =  0   Radius =  0.325 angstrom
                   Q00  =   0.075835

C          x =  1.331338  y = -1.462576  z =  0.874392 angstrom
           Maximum rank =  0   Radius =  0.650 angstrom
                   Q00  =  -0.241570

C          x =  1.251338  y = -2.126576  z = -0.506608 angstrom
           Maximum rank =  0   Radius =  0.650 angstrom
                   Q00  =  -0.236440

H          x =  1.993338  y = -0.598576  z =  0.846392 angstrom
           Maximum rank =  0   Radius =  0.325 angstrom
                   Q00  =   0.077741

H          x =  0.341338  y = -1.125576  z =  1.178392 angstrom
           Maximum rank =  0   Radius =  0.325 angstrom
                   Q00  =   0.083813

H          x =  1.699338  y = -2.164576  z =  1.617392 angstrom
           Maximum rank =  0   Radius =  0.325 angstrom
                   Q00  =   0.078897

H          x =  0.980338  y = -1.355576  z = -1.228608 angstrom
           Maximum rank =  0   Radius =  0.325 angstrom
                   Q00  =   0.078243

H          x =  2.221368  y = -2.558486  z = -0.793838 angstrom
           Maximum rank =  0   Radius =  0.325 angstrom
                   Q00  =   0.079791

H          x =  0.467848  y = -2.898516  z = -0.522478 angstrom
           Maximum rank =  0   Radius =  0.325 angstrom
                   Q00  =   0.080196

Total multipoles referred to origin at
           x =   0.000000,  y =    0.000000,  z =    0.000000 angstrom
                   Q00  =  -0.000000

Finished at 13:22:46 on 27 Apr 2020

  DMA results are available in the Python driver through the
	  variable('DMA DISTRIBUTED MULTIPOLES')
  and
	  variable('DMA TOTAL MULTIPOLES')
  commands.

    Psi4 stopped on: Monday, 27 April 2020 01:22PM
    Psi4 wall time for execution: 0:00:15.68

*** Psi4 exiting successfully. Buy a developer a beer!
