                               Psi4 1.3.2 release

  ==> Input File <==

--------------------------------------------------------------------------
import numpy as np
set {scf_type pk
basis cc-pvdz
d_convergence 10
gdma_switch   0
gdma_limit    0
gdma_origin   [ 0.0,  0.0,  0.0 ]
}
molecule test {
    units Angstrom
    0 1
    --
    0 1
    C               -0.375214596751528     2.350071458828174    -0.461141123705578
    C               -1.076214596751528    -0.068928541171826    -0.327141123705578
    C               -0.698214596751528     1.106071458828174     0.326858876294422
    C               -1.284214596751528    -1.239928541171826     0.389858876294422
    C               -1.108214596751528    -1.240928541171826     1.756858876294422
    C               -0.547214596751528     1.093071458828174     1.709858876294422
    C               -0.745214596751528    -0.086928541171826     2.429858876294422
    H               -1.193214596751528    -0.071928541171826    -1.402141123705578
    H               -1.572214596751528    -2.150928541171826    -0.115141123705578
    H                0.086785403248472     2.045071458828175    -1.402141123705578
    H                0.379785403248472     2.917071458828175     0.085858876294422
    H               -1.279214596751528    -2.148928541171826     2.311858876294423
    H               -0.249214596751528     1.990071458828174     2.231858876294422
    H               -0.615214596751528    -0.101928541171826     3.503858876294422
    H               -1.225034596751528     3.009291458828175    -0.691871123705578
    C                1.909785403248472    -0.492928541171826    -2.498141123705577
    C                3.129785403248472    -1.406928541171826    -2.451141123705578
    H                1.800785403248472     0.057071458828174    -1.564141123705578
    H                2.038785403248472     0.233071458828174    -3.299141123705578
    H                1.008785403248472    -1.075928541171826    -2.693141123705578
    H                4.008785403248472    -0.819928541171826    -2.188141123705577
    H                3.270785403248472    -1.791928541171826    -3.460141123705577
    H                3.004721403248472    -2.240688541171826    -1.744601123705578

}
e, wfn = energy('scf', return_wfn=True)
gdma(wfn)
dmavals = variable('DMA DISTRIBUTED MULTIPOLES')
charges = np.array(dmavals)
print(charges)
np.save('SSI-022PHE-166ILE-1-dimer.npy', np.array(charges))--------------------------------------------------------------------------

*** tstart() called on ds3
*** at Sun Apr 26 18:44:03 2020

   => Loading Basis Set <=

    Name: CC-PVDZ
    Role: ORBITAL
    Keyword: BASIS
    atoms 1-7, 16-17  entry C          line   138 file /theoryfs2/ds/metcalf/miniconda2/envs/tf2gpu/share/psi4/basis/cc-pvdz.gbs
    atoms 8-15, 18-23 entry H          line    22 file /theoryfs2/ds/metcalf/miniconda2/envs/tf2gpu/share/psi4/basis/cc-pvdz.gbs

         ---------------------------------------------------------
                                   SCF
               by Justin Turney, Rob Parrish, Andy Simmonett
                          and Daniel G. A. Smith
                              RHF Reference
                        1 Threads,    500 MiB Core
         ---------------------------------------------------------

  ==> Geometry <==

    Molecular point group: c1
    Full point group: C1

    Geometry (in Angstrom), charge = 0, multiplicity = 1:

       Center              X                  Y                   Z               Mass
    ------------   -----------------  -----------------  -----------------  -----------------
         C           -0.375214596752     2.350071458828    -0.461141123706    12.000000000000
         C           -1.076214596752    -0.068928541172    -0.327141123706    12.000000000000
         C           -0.698214596752     1.106071458828     0.326858876294    12.000000000000
         C           -1.284214596752    -1.239928541172     0.389858876294    12.000000000000
         C           -1.108214596752    -1.240928541172     1.756858876294    12.000000000000
         C           -0.547214596752     1.093071458828     1.709858876294    12.000000000000
         C           -0.745214596752    -0.086928541172     2.429858876294    12.000000000000
         H           -1.193214596752    -0.071928541172    -1.402141123706     1.007825032230
         H           -1.572214596752    -2.150928541172    -0.115141123706     1.007825032230
         H            0.086785403248     2.045071458828    -1.402141123706     1.007825032230
         H            0.379785403248     2.917071458828     0.085858876294     1.007825032230
         H           -1.279214596752    -2.148928541172     2.311858876294     1.007825032230
         H           -0.249214596752     1.990071458828     2.231858876294     1.007825032230
         H           -0.615214596752    -0.101928541172     3.503858876294     1.007825032230
         H           -1.225034596752     3.009291458828    -0.691871123706     1.007825032230
         C            1.909785403248    -0.492928541172    -2.498141123706    12.000000000000
         C            3.129785403248    -1.406928541172    -2.451141123706    12.000000000000
         H            1.800785403248     0.057071458828    -1.564141123706     1.007825032230
         H            2.038785403248     0.233071458828    -3.299141123706     1.007825032230
         H            1.008785403248    -1.075928541172    -2.693141123706     1.007825032230
         H            4.008785403248    -0.819928541172    -2.188141123706     1.007825032230
         H            3.270785403248    -1.791928541172    -3.460141123706     1.007825032230
         H            3.004721403248    -2.240688541172    -1.744601123706     1.007825032230

  Running in c1 symmetry.

  Rotational constants: A =      0.06517  B =      0.02569  C =      0.02152 [cm^-1]
  Rotational constants: A =   1953.76690  B =    770.25729  C =    645.08259 [MHz]
  Nuclear repulsion =  407.267762363529641

  Charge       = 0
  Multiplicity = 1
  Electrons    = 68
  Nalpha       = 34
  Nbeta        = 34

  ==> Algorithm <==

  SCF Algorithm Type is PK.
  DIIS enabled.
  MOM disabled.
  Fractional occupation disabled.
  Guess Type is SAD.
  Energy threshold   = 1.00e-06
  Density threshold  = 1.00e-10
  Integral threshold = 0.00e+00

  ==> Primary Basis <==

  Basis Set: CC-PVDZ
    Blend: CC-PVDZ
    Number of shells: 96
    Number of basis function: 196
    Number of Cartesian functions: 205
    Spherical Harmonics?: true
    Max angular momentum: 2

  ==> Pre-Iterations <==

   -------------------------------------------------------
    Irrep   Nso     Nmo     Nalpha   Nbeta   Ndocc  Nsocc
   -------------------------------------------------------
     A        196     196       0       0       0       0
   -------------------------------------------------------
    Total     196     196      34      34      34       0
   -------------------------------------------------------

  ==> Integral Setup <==

  Using integral reordering PK algorithm.
  Sizing the integral batches needed.
  Building batch lookup table.
   Calculation information:
      Number of atoms:                  23
      Number of AO shells:              96
      Number of primitives:            268
      Number of atomic orbitals:       205
      Number of basis functions:       196

      Integral cutoff                 1.00e-12
      Number of threads:                 1

	Batch   1 pq = [       0,    9405] index = [             0,44231715] size =     44231715
	Batch   2 pq = [    9405,   13301] index = [      44231715,88464951] size =     44233236
	Batch   3 pq = [   13301,   16290] index = [      88464951,132690195] size =     44225244
	Batch   4 pq = [   16290,   18810] index = [     132690195,176917455] size =     44227260
	Batch   5 pq = [   18810,   19306] index = [     176917455,186370471] size =      9453016
  Task number: 17
  Buffer size: 11059200
  Buffer per thread: 2
  We computed 9508861 shell quartets total.
  Whereas there are 10841496 unique shell quartets.

  ==> DiskJK: Disk-Based J/K Matrices <==

    J tasked:                  Yes
    K tasked:                  Yes
    wK tasked:                  No
    Memory [MiB]:              375
    Schwarz Cutoff:          1E-12

    OpenMP threads:              1

  Minimum eigenvalue in the overlap matrix is 3.0543915673E-04.
  Using Symmetric Orthogonalization.

  SCF Guess: Superposition of Atomic Densities via on-the-fly atomic UHF.

  ==> Iterations <==

                        Total Energy        Delta E     RMS |[F,P]|

   @RHF iter SAD:  -347.91135129342604   -3.47911e+02   0.00000e+00
   @RHF iter   1:  -348.76469208961822   -8.53341e-01   2.91152e-03 DIIS
   @RHF iter   2:  -348.95849421670579   -1.93802e-01   1.21450e-03 DIIS
   @RHF iter   3:  -348.98927586366813   -3.07816e-02   2.58941e-04 DIIS
   @RHF iter   4:  -348.99177332038551   -2.49746e-03   4.98309e-05 DIIS
   @RHF iter   5:  -348.99184230086411   -6.89805e-05   1.59462e-05 DIIS
   @RHF iter   6:  -348.99184888369746   -6.58283e-06   4.31774e-06 DIIS
   @RHF iter   7:  -348.99184944243365   -5.58736e-07   1.44105e-06 DIIS
   @RHF iter   8:  -348.99184952065218   -7.82185e-08   4.52017e-07 DIIS
   @RHF iter   9:  -348.99184953910208   -1.84499e-08   2.33145e-07 DIIS
   @RHF iter  10:  -348.99184954449890   -5.39683e-09   9.98873e-08 DIIS
   @RHF iter  11:  -348.99184954576288   -1.26397e-09   2.92010e-08 DIIS
   @RHF iter  12:  -348.99184954582853   -6.56541e-11   1.19943e-08 DIIS
   @RHF iter  13:  -348.99184954583603   -7.50333e-12   4.33389e-09 DIIS
   @RHF iter  14:  -348.99184954583495    1.08002e-12   1.23155e-09 DIIS
   @RHF iter  15:  -348.99184954583700   -2.04636e-12   4.89514e-10 DIIS
   @RHF iter  16:  -348.99184954583563    1.36424e-12   2.03394e-10 DIIS
   @RHF iter  17:  -348.99184954583427    1.36424e-12   7.59963e-11 DIIS
  Energy and wave function converged.

  ==> Post-Iterations <==

    Orbital Energies [Eh]
    ---------------------

    Doubly Occupied:

       1A    -11.239754     2A    -11.234091     3A    -11.232606
       4A    -11.230301     5A    -11.229814     6A    -11.228325
       7A    -11.227592     8A    -11.215535     9A    -11.213566
      10A     -1.153811    11A     -1.044664    12A     -1.017646
      13A     -1.011592    14A     -0.930389    15A     -0.835001
      16A     -0.825605    17A     -0.794318    18A     -0.691593
      19A     -0.631370    20A     -0.629530    21A     -0.597891
      22A     -0.596604    23A     -0.583036    24A     -0.575545
      25A     -0.560091    26A     -0.532932    27A     -0.499005
      28A     -0.489287    29A     -0.485533    30A     -0.483861
      31A     -0.481096    32A     -0.479016    33A     -0.331648
      34A     -0.322454

    Virtual:

      35A      0.136767    36A      0.141886    37A      0.176731
      38A      0.195207    39A      0.199779    40A      0.212266
      41A      0.238065    42A      0.239918    43A      0.257811
      44A      0.263188    45A      0.269030    46A      0.277342
      47A      0.283606    48A      0.291464    49A      0.297962
      50A      0.316029    51A      0.369524    52A      0.379688
      53A      0.409217    54A      0.457314    55A      0.465190
      56A      0.483521    57A      0.490566    58A      0.564039
      59A      0.585476    60A      0.601676    61A      0.605335
      62A      0.610990    63A      0.654739    64A      0.664764
      65A      0.680503    66A      0.684508    67A      0.699803
      68A      0.714340    69A      0.718579    70A      0.740291
      71A      0.741109    72A      0.749754    73A      0.763764
      74A      0.770954    75A      0.783562    76A      0.812504
      77A      0.842690    78A      0.847553    79A      0.865102
      80A      0.867705    81A      0.875638    82A      0.883540
      83A      0.893690    84A      0.895902    85A      0.897969
      86A      0.901816    87A      0.910124    88A      0.923217
      89A      0.928448    90A      0.940627    91A      0.963080
      92A      0.979159    93A      0.991867    94A      1.010563
      95A      1.020262    96A      1.043683    97A      1.123298
      98A      1.129176    99A      1.139292   100A      1.144645
     101A      1.152340   102A      1.157819   103A      1.180587
     104A      1.227539   105A      1.243992   106A      1.250846
     107A      1.254234   108A      1.264107   109A      1.303735
     110A      1.312953   111A      1.321501   112A      1.348946
     113A      1.415719   114A      1.475400   115A      1.488362
     116A      1.506676   117A      1.516812   118A      1.548486
     119A      1.585121   120A      1.598373   121A      1.675835
     122A      1.686370   123A      1.700202   124A      1.705016
     125A      1.738782   126A      1.759746   127A      1.762928
     128A      1.795579   129A      1.812447   130A      1.859465
     131A      1.870927   132A      1.881104   133A      1.890360
     134A      1.895385   135A      1.910399   136A      1.911442
     137A      1.923620   138A      1.925208   139A      1.940652
     140A      1.950054   141A      1.955199   142A      1.958661
     143A      1.961697   144A      1.976007   145A      1.980146
     146A      1.987390   147A      1.995597   148A      2.010565
     149A      2.044639   150A      2.056294   151A      2.072979
     152A      2.103941   153A      2.116699   154A      2.132773
     155A      2.153520   156A      2.160664   157A      2.169065
     158A      2.174032   159A      2.186581   160A      2.253427
     161A      2.277352   162A      2.297699   163A      2.306114
     164A      2.310566   165A      2.312299   166A      2.325467
     167A      2.328776   168A      2.456225   169A      2.469156
     170A      2.472494   171A      2.482920   172A      2.499225
     173A      2.549490   174A      2.568674   175A      2.587046
     176A      2.617896   177A      2.740875   178A      2.760000
     179A      2.773984   180A      2.775320   181A      2.791689
     182A      2.795075   183A      2.810494   184A      2.851499
     185A      2.862141   186A      2.866683   187A      2.875490
     188A      2.952020   189A      2.970871   190A      2.990279
     191A      3.023033   192A      3.028321   193A      3.160387
     194A      3.205098   195A      3.305884   196A      3.980229

    Final Occupation by Irrep:
              A
    DOCC [    34 ]

  @RHF Final Energy:  -348.99184954583427

   => Energetics <=

    Nuclear Repulsion Energy =            407.2677623635296413
    One-Electron Energy =               -1277.2490226526642800
    Two-Electron Energy =                 520.9894107433003683
    Total Energy =                       -348.9918495458342704

Computation Completed

Properties will be evaluated at   0.000000,   0.000000,   0.000000 [a0]

Properties computed using the SCF density matrix

  Nuclear Dipole Moment: [e a0]
     X:     8.8733      Y:    -0.1411      Z:    -9.7751

  Electronic Dipole Moment: [e a0]
     X:    -8.8315      Y:     0.2332      Z:     9.7218

  Dipole Moment: [e a0]
     X:     0.0418      Y:     0.0921      Z:    -0.0534     Total:     0.1143

  Dipole Moment: [D]
     X:     0.1062      Y:     0.2340      Z:    -0.1357     Total:     0.2906

*** tstop() called on ds3 at Sun Apr 26 18:45:33 2020
Module time:
	user time   =      65.65 seconds =       1.09 minutes
	system time =      27.66 seconds =       0.46 minutes
	total time  =         90 seconds =       1.50 minutes
Total time:
	user time   =      65.65 seconds =       1.09 minutes
	system time =      27.66 seconds =       0.46 minutes
	total time  =         90 seconds =       1.50 minutes
                                     G D M A

                                 by Anthony Stone

                           version 2.2.06, 22 June 2011

               Distributed Multipoles from Gaussian wavefunctions

Starting at 18:45:33 on 26 Apr 2020

Using SCF density matrix from file ./SSI/SSI-022PHE-166ILE-1-dimer.test.11644.fchk

                         Distributed Multipole Analysis

Standard DMA

Positions and radii in angstrom
Multipole moments in atomic units, ea_0^k for rank k

C          x = -0.375215  y =  2.350071  z = -0.461141 angstrom
           Maximum rank =  0   Radius =  0.650 angstrom
                   Q00  =  -0.200519

C          x = -1.076215  y = -0.068929  z = -0.327141 angstrom
           Maximum rank =  0   Radius =  0.650 angstrom
                   Q00  =  -0.043690

C          x = -0.698215  y =  1.106071  z =  0.326859 angstrom
           Maximum rank =  0   Radius =  0.650 angstrom
                   Q00  =  -0.109391

C          x = -1.284215  y = -1.239929  z =  0.389859 angstrom
           Maximum rank =  0   Radius =  0.650 angstrom
                   Q00  =  -0.066845

C          x = -1.108215  y = -1.240929  z =  1.756859 angstrom
           Maximum rank =  0   Radius =  0.650 angstrom
                   Q00  =  -0.021559

C          x = -0.547215  y =  1.093071  z =  1.709859 angstrom
           Maximum rank =  0   Radius =  0.650 angstrom
                   Q00  =  -0.087483

C          x = -0.745215  y = -0.086929  z =  2.429859 angstrom
           Maximum rank =  0   Radius =  0.650 angstrom
                   Q00  =  -0.070090

H          x = -1.193215  y = -0.071929  z = -1.402141 angstrom
           Maximum rank =  0   Radius =  0.325 angstrom
                   Q00  =   0.058281

H          x = -1.572215  y = -2.150929  z = -0.115141 angstrom
           Maximum rank =  0   Radius =  0.325 angstrom
                   Q00  =   0.062786

H          x =  0.086785  y =  2.045071  z = -1.402141 angstrom
           Maximum rank =  0   Radius =  0.325 angstrom
                   Q00  =   0.096951

H          x =  0.379785  y =  2.917071  z =  0.085859 angstrom
           Maximum rank =  0   Radius =  0.325 angstrom
                   Q00  =   0.096045

H          x = -1.279215  y = -2.148929  z =  2.311859 angstrom
           Maximum rank =  0   Radius =  0.325 angstrom
                   Q00  =   0.057035

H          x = -0.249215  y =  1.990071  z =  2.231859 angstrom
           Maximum rank =  0   Radius =  0.325 angstrom
                   Q00  =   0.057908

H          x = -0.615215  y = -0.101929  z =  3.503859 angstrom
           Maximum rank =  0   Radius =  0.325 angstrom
                   Q00  =   0.064753

H          x = -1.225035  y =  3.009291  z = -0.691871 angstrom
           Maximum rank =  0   Radius =  0.325 angstrom
                   Q00  =   0.105799

C          x =  1.909785  y = -0.492929  z = -2.498141 angstrom
           Maximum rank =  0   Radius =  0.650 angstrom
                   Q00  =  -0.243158

C          x =  3.129785  y = -1.406929  z = -2.451141 angstrom
           Maximum rank =  0   Radius =  0.650 angstrom
                   Q00  =  -0.227552

H          x =  1.800785  y =  0.057071  z = -1.564141 angstrom
           Maximum rank =  0   Radius =  0.325 angstrom
                   Q00  =   0.085352

H          x =  2.038785  y =  0.233071  z = -3.299141 angstrom
           Maximum rank =  0   Radius =  0.325 angstrom
                   Q00  =   0.072586

H          x =  1.008785  y = -1.075929  z = -2.693141 angstrom
           Maximum rank =  0   Radius =  0.325 angstrom
                   Q00  =   0.077289

H          x =  4.008785  y = -0.819929  z = -2.188141 angstrom
           Maximum rank =  0   Radius =  0.325 angstrom
                   Q00  =   0.078944

H          x =  3.270785  y = -1.791929  z = -3.460141 angstrom
           Maximum rank =  0   Radius =  0.325 angstrom
                   Q00  =   0.073491

H          x =  3.004721  y = -2.240689  z = -1.744601 angstrom
           Maximum rank =  0   Radius =  0.325 angstrom
                   Q00  =   0.083069

Total multipoles referred to origin at
           x =   0.000000,  y =    0.000000,  z =    0.000000 angstrom
                   Q00  =  -0.000000

Finished at 18:45:33 on 26 Apr 2020

  DMA results are available in the Python driver through the
	  variable('DMA DISTRIBUTED MULTIPOLES')
  and
	  variable('DMA TOTAL MULTIPOLES')
  commands.

    Psi4 stopped on: Sunday, 26 April 2020 06:45PM
    Psi4 wall time for execution: 0:01:30.42

*** Psi4 exiting successfully. Buy a developer a beer!
