                               Psi4 1.3.2 release

  ==> Input File <==

--------------------------------------------------------------------------
import numpy as np
set {scf_type pk
basis cc-pvdz
d_convergence 10
gdma_switch   0
gdma_limit    0
gdma_origin   [ 0.0,  0.0,  0.0 ]
}
molecule test {
    units Angstrom
    0 1
    --
    0 1
    C                0.711726665875575    -1.386278159732012    -0.819607615472705
    C                1.991726665875575    -2.194278159732011    -1.123607615472705
    C               -0.529273334124425    -1.859278159732012    -1.577607615472705
    H                0.502726665875575    -1.424278159732012     0.250392384527296
    H                0.846726665875575    -0.345278159732012    -1.104607615472705
    H                2.045726665875575    -2.316278159732012    -2.203607615472704
    H               -0.772273334124425    -2.886278159732012    -1.308607615472704
    H               -1.376273334124425    -1.222278159732012    -1.324607615472705
    H               -0.348273334124425    -1.797278159732012    -2.650607615472704
    H                2.897586665875575    -1.663183159732012    -0.795956615472705
    H                1.963062665875575    -3.201099159732012    -0.681466615472705
    C               -0.523273334124425     1.362721840267988     0.918392384527295
    C               -0.972273334124425     1.355721840267988     2.378392384527295
    C               -0.666273334124425     2.721721840267989     0.237392384527295
    H                0.522726665875575     1.051721840267988     0.892392384527295
    H               -1.107273334124425     0.626721840267988     0.364392384527295
    H               -0.802273334124425     0.348721840267988     2.771392384527295
    H               -1.718273334124425     2.881721840267988     0.002392384527295
    H               -0.334273334124425     3.530721840267988     0.886392384527295
    H               -2.038787334124425     1.614041640267988     2.454679784527295
    H               -0.351895334124425     2.037631040267988     2.978501384527295
    H               -0.076128334124425     2.760727740267988    -0.690081615472705

}
e, wfn = energy('scf', return_wfn=True)
gdma(wfn)
dmavals = variable('DMA DISTRIBUTED MULTIPOLES')
charges = np.array(dmavals)
print(charges)
np.save('SSI-015ILE-035ARG-1-dimer.npy', np.array(charges))--------------------------------------------------------------------------

*** tstart() called on ds3
*** at Mon Apr 27 06:51:01 2020

   => Loading Basis Set <=

    Name: CC-PVDZ
    Role: ORBITAL
    Keyword: BASIS
    atoms 1-3, 12-14  entry C          line   138 file /theoryfs2/ds/metcalf/miniconda2/envs/tf2gpu/share/psi4/basis/cc-pvdz.gbs
    atoms 4-11, 15-22 entry H          line    22 file /theoryfs2/ds/metcalf/miniconda2/envs/tf2gpu/share/psi4/basis/cc-pvdz.gbs

         ---------------------------------------------------------
                                   SCF
               by Justin Turney, Rob Parrish, Andy Simmonett
                          and Daniel G. A. Smith
                              RHF Reference
                        1 Threads,    500 MiB Core
         ---------------------------------------------------------

  ==> Geometry <==

    Molecular point group: c1
    Full point group: C1

    Geometry (in Angstrom), charge = 0, multiplicity = 1:

       Center              X                  Y                   Z               Mass
    ------------   -----------------  -----------------  -----------------  -----------------
         C            0.711726665876    -1.386278159732    -0.819607615473    12.000000000000
         C            1.991726665876    -2.194278159732    -1.123607615473    12.000000000000
         C           -0.529273334124    -1.859278159732    -1.577607615473    12.000000000000
         H            0.502726665876    -1.424278159732     0.250392384527     1.007825032230
         H            0.846726665876    -0.345278159732    -1.104607615473     1.007825032230
         H            2.045726665876    -2.316278159732    -2.203607615473     1.007825032230
         H           -0.772273334124    -2.886278159732    -1.308607615473     1.007825032230
         H           -1.376273334124    -1.222278159732    -1.324607615473     1.007825032230
         H           -0.348273334124    -1.797278159732    -2.650607615473     1.007825032230
         H            2.897586665876    -1.663183159732    -0.795956615473     1.007825032230
         H            1.963062665876    -3.201099159732    -0.681466615473     1.007825032230
         C           -0.523273334124     1.362721840268     0.918392384527    12.000000000000
         C           -0.972273334124     1.355721840268     2.378392384527    12.000000000000
         C           -0.666273334124     2.721721840268     0.237392384527    12.000000000000
         H            0.522726665876     1.051721840268     0.892392384527     1.007825032230
         H           -1.107273334124     0.626721840268     0.364392384527     1.007825032230
         H           -0.802273334124     0.348721840268     2.771392384527     1.007825032230
         H           -1.718273334124     2.881721840268     0.002392384527     1.007825032230
         H           -0.334273334124     3.530721840268     0.886392384527     1.007825032230
         H           -2.038787334124     1.614041640268     2.454679784527     1.007825032230
         H           -0.351895334124     2.037631040268     2.978501384527     1.007825032230
         H           -0.076128334124     2.760727740268    -0.690081615473     1.007825032230

  Running in c1 symmetry.

  Rotational constants: A =      0.14468  B =      0.03104  C =      0.03032 [cm^-1]
  Rotational constants: A =   4337.36574  B =    930.54497  C =    909.03643 [MHz]
  Nuclear repulsion =  240.848057068458871

  Charge       = 0
  Multiplicity = 1
  Electrons    = 52
  Nalpha       = 26
  Nbeta        = 26

  ==> Algorithm <==

  SCF Algorithm Type is PK.
  DIIS enabled.
  MOM disabled.
  Fractional occupation disabled.
  Guess Type is SAD.
  Energy threshold   = 1.00e-06
  Density threshold  = 1.00e-10
  Integral threshold = 0.00e+00

  ==> Primary Basis <==

  Basis Set: CC-PVDZ
    Blend: CC-PVDZ
    Number of shells: 84
    Number of basis function: 164
    Number of Cartesian functions: 170
    Spherical Harmonics?: true
    Max angular momentum: 2

  ==> Pre-Iterations <==

   -------------------------------------------------------
    Irrep   Nso     Nmo     Nalpha   Nbeta   Ndocc  Nsocc
   -------------------------------------------------------
     A        164     164       0       0       0       0
   -------------------------------------------------------
    Total     164     164      26      26      26       0
   -------------------------------------------------------

  ==> Integral Setup <==

  Using integral reordering PK algorithm.
  Sizing the integral batches needed.
  Building batch lookup table.
   Calculation information:
      Number of atoms:                  22
      Number of AO shells:              84
      Number of primitives:            212
      Number of atomic orbitals:       170
      Number of basis functions:       164

      Integral cutoff                 1.00e-12
      Number of threads:                 1

	Batch   1 pq = [       0,    9405] index = [             0,44231715] size =     44231715
	Batch   2 pq = [    9405,   13530] index = [      44231715,91537215] size =     47305500
  Task number: 9
  Buffer size: 11059200
  Buffer per thread: 2
  We computed 5563823 shell quartets total.
  Whereas there are 6374235 unique shell quartets.

  ==> DiskJK: Disk-Based J/K Matrices <==

    J tasked:                  Yes
    K tasked:                  Yes
    wK tasked:                  No
    Memory [MiB]:              375
    Schwarz Cutoff:          1E-12

    OpenMP threads:              1

  Minimum eigenvalue in the overlap matrix is 5.1913418178E-03.
  Using Symmetric Orthogonalization.

  SCF Guess: Superposition of Atomic Densities via on-the-fly atomic UHF.

  ==> Iterations <==

                        Total Energy        Delta E     RMS |[F,P]|

   @RHF iter SAD:  -235.36629668107258   -2.35366e+02   0.00000e+00
   @RHF iter   1:  -236.31553787573966   -9.49241e-01   3.47876e-03 DIIS
   @RHF iter   2:  -236.50189290258390   -1.86355e-01   1.49977e-03 DIIS
   @RHF iter   3:  -236.53457648463441   -3.26836e-02   3.05313e-04 DIIS
   @RHF iter   4:  -236.53720036052346   -2.62388e-03   4.93774e-05 DIIS
   @RHF iter   5:  -236.53725263721944   -5.22767e-05   1.38044e-05 DIIS
   @RHF iter   6:  -236.53725695301000   -4.31579e-06   2.38586e-06 DIIS
   @RHF iter   7:  -236.53725709551009   -1.42500e-07   4.79181e-07 DIIS
   @RHF iter   8:  -236.53725710331560   -7.80551e-09   9.69139e-08 DIIS
   @RHF iter   9:  -236.53725710368587   -3.70278e-10   2.16450e-08 DIIS
   @RHF iter  10:  -236.53725710370236   -1.64846e-11   6.80349e-09 DIIS
   @RHF iter  11:  -236.53725710370247   -1.13687e-13   1.34418e-09 DIIS
   @RHF iter  12:  -236.53725710370298   -5.11591e-13   2.04624e-10 DIIS
   @RHF iter  13:  -236.53725710370344   -4.54747e-13   6.09833e-11 DIIS
  Energy and wave function converged.

  ==> Post-Iterations <==

    Orbital Energies [Eh]
    ---------------------

    Doubly Occupied:

       1A    -11.219554     2A    -11.218348     3A    -11.218076
       4A    -11.217405     5A    -11.215173     6A    -11.215109
       7A     -1.053830     8A     -1.049425     9A     -0.925034
      10A     -0.924578    11A     -0.802064    12A     -0.790154
      13A     -0.626637    14A     -0.624574    15A     -0.598204
      16A     -0.588945    17A     -0.548610    18A     -0.548380
      19A     -0.534631    20A     -0.532011    21A     -0.475990
      22A     -0.475022    23A     -0.468982    24A     -0.468079
      25A     -0.466952    26A     -0.456549

    Virtual:

      27A      0.168389    28A      0.194706    29A      0.204412
      30A      0.211574    31A      0.226065    32A      0.242034
      33A      0.247772    34A      0.255156    35A      0.272347
      36A      0.282290    37A      0.287959    38A      0.295344
      39A      0.301394    40A      0.308761    41A      0.328682
      42A      0.349141    43A      0.375761    44A      0.388046
      45A      0.430935    46A      0.436412    47A      0.575367
      48A      0.577989    49A      0.595628    50A      0.603734
      51A      0.607999    52A      0.615616    53A      0.625272
      54A      0.638901    55A      0.644876    56A      0.764108
      57A      0.783458    58A      0.794220    59A      0.806790
      60A      0.810167    61A      0.850698    62A      0.868133
      63A      0.880348    64A      0.886360    65A      0.891489
      66A      0.895747    67A      0.897662    68A      0.900233
      69A      0.902435    70A      0.904506    71A      0.910834
      72A      0.915571    73A      0.926100    74A      0.935539
      75A      0.945212    76A      0.957454    77A      0.977440
      78A      0.986283    79A      0.995744    80A      1.026473
      81A      1.119712    82A      1.120269    83A      1.125461
      84A      1.182796    85A      1.203244    86A      1.226164
      87A      1.383421    88A      1.389414    89A      1.445565
      90A      1.472626    91A      1.480518    92A      1.487634
      93A      1.532254    94A      1.572927    95A      1.597560
      96A      1.658366    97A      1.679692    98A      1.682758
      99A      1.690324   100A      1.704443   101A      1.712300
     102A      1.718564   103A      1.855412   104A      1.859203
     105A      1.870936   106A      1.878162   107A      1.879764
     108A      1.900908   109A      1.908916   110A      1.915465
     111A      1.929305   112A      1.931935   113A      1.938196
     114A      1.952196   115A      1.966309   116A      1.977303
     117A      1.983459   118A      1.985879   119A      1.987123
     120A      1.991934   121A      2.001579   122A      2.012669
     123A      2.026083   124A      2.041099   125A      2.050784
     126A      2.071557   127A      2.129366   128A      2.137801
     129A      2.158011   130A      2.179507   131A      2.281747
     132A      2.287370   133A      2.302240   134A      2.317898
     135A      2.325036   136A      2.333110   137A      2.351848
     138A      2.359165   139A      2.487582   140A      2.507375
     141A      2.537513   142A      2.542848   143A      2.561479
     144A      2.588168   145A      2.605831   146A      2.619784
     147A      2.629661   148A      2.647379   149A      2.748577
     150A      2.754918   151A      2.764469   152A      2.777277
     153A      2.784620   154A      2.789261   155A      2.818547
     156A      2.824666   157A      2.903216   158A      2.916624
     159A      2.956980   160A      2.966565   161A      2.970375
     162A      2.983649   163A      3.071585   164A      3.082365

    Final Occupation by Irrep:
              A
    DOCC [    26 ]

  @RHF Final Energy:  -236.53725710370344

   => Energetics <=

    Nuclear Repulsion Energy =            240.8480570684588713
    One-Electron Energy =                -794.2459965140606073
    Two-Electron Energy =                 316.8606823418983254
    Total Energy =                       -236.5372571037034390

Computation Completed

Properties will be evaluated at   0.000000,   0.000000,   0.000000 [a0]

Properties computed using the SCF density matrix

  Nuclear Dipole Moment: [e a0]
     X:    -0.1380      Y:    -0.0037      Z:    -0.1491

  Electronic Dipole Moment: [e a0]
     X:     0.1549      Y:    -0.0012      Z:     0.1451

  Dipole Moment: [e a0]
     X:     0.0170      Y:    -0.0049      Z:    -0.0039     Total:     0.0181

  Dipole Moment: [D]
     X:     0.0431      Y:    -0.0124      Z:    -0.0100     Total:     0.0460

*** tstop() called on ds3 at Mon Apr 27 06:51:40 2020
Module time:
	user time   =      28.93 seconds =       0.48 minutes
	system time =      11.20 seconds =       0.19 minutes
	total time  =         39 seconds =       0.65 minutes
Total time:
	user time   =      28.93 seconds =       0.48 minutes
	system time =      11.20 seconds =       0.19 minutes
	total time  =         39 seconds =       0.65 minutes
                                     G D M A

                                 by Anthony Stone

                           version 2.2.06, 22 June 2011

               Distributed Multipoles from Gaussian wavefunctions

Starting at 6:51:40 on 27 Apr 2020

Using SCF density matrix from file ./SSI/SSI-015ILE-035ARG-1-dimer.test.4662.fchk

                         Distributed Multipole Analysis

Standard DMA

Positions and radii in angstrom
Multipole moments in atomic units, ea_0^k for rank k

C          x =  0.711727  y = -1.386278  z = -0.819608 angstrom
           Maximum rank =  0   Radius =  0.650 angstrom
                   Q00  =  -0.083641

C          x =  1.991727  y = -2.194278  z = -1.123608 angstrom
           Maximum rank =  0   Radius =  0.650 angstrom
                   Q00  =  -0.241465

C          x = -0.529273  y = -1.859278  z = -1.577608 angstrom
           Maximum rank =  0   Radius =  0.650 angstrom
                   Q00  =  -0.245446

H          x =  0.502727  y = -1.424278  z =  0.250392 angstrom
           Maximum rank =  0   Radius =  0.325 angstrom
                   Q00  =   0.046632

H          x =  0.846727  y = -0.345278  z = -1.104608 angstrom
           Maximum rank =  0   Radius =  0.325 angstrom
                   Q00  =   0.045823

H          x =  2.045727  y = -2.316278  z = -2.203608 angstrom
           Maximum rank =  0   Radius =  0.325 angstrom
                   Q00  =   0.074025

H          x = -0.772273  y = -2.886278  z = -1.308608 angstrom
           Maximum rank =  0   Radius =  0.325 angstrom
                   Q00  =   0.075804

H          x = -1.376273  y = -1.222278  z = -1.324608 angstrom
           Maximum rank =  0   Radius =  0.325 angstrom
                   Q00  =   0.083954

H          x = -0.348273  y = -1.797278  z = -2.650608 angstrom
           Maximum rank =  0   Radius =  0.325 angstrom
                   Q00  =   0.077219

H          x =  2.897587  y = -1.663183  z = -0.795957 angstrom
           Maximum rank =  0   Radius =  0.325 angstrom
                   Q00  =   0.086895

H          x =  1.963063  y = -3.201099  z = -0.681467 angstrom
           Maximum rank =  0   Radius =  0.325 angstrom
                   Q00  =   0.081813

C          x = -0.523273  y =  1.362722  z =  0.918392 angstrom
           Maximum rank =  0   Radius =  0.650 angstrom
                   Q00  =  -0.066317

C          x = -0.972273  y =  1.355722  z =  2.378392 angstrom
           Maximum rank =  0   Radius =  0.650 angstrom
                   Q00  =  -0.248297

C          x = -0.666273  y =  2.721722  z =  0.237392 angstrom
           Maximum rank =  0   Radius =  0.650 angstrom
                   Q00  =  -0.246956

H          x =  0.522727  y =  1.051722  z =  0.892392 angstrom
           Maximum rank =  0   Radius =  0.325 angstrom
                   Q00  =   0.043624

H          x = -1.107273  y =  0.626722  z =  0.364392 angstrom
           Maximum rank =  0   Radius =  0.325 angstrom
                   Q00  =   0.045166

H          x = -0.802273  y =  0.348722  z =  2.771392 angstrom
           Maximum rank =  0   Radius =  0.325 angstrom
                   Q00  =   0.080461

H          x = -1.718273  y =  2.881722  z =  0.002392 angstrom
           Maximum rank =  0   Radius =  0.325 angstrom
                   Q00  =   0.076695

H          x = -0.334273  y =  3.530722  z =  0.886392 angstrom
           Maximum rank =  0   Radius =  0.325 angstrom
                   Q00  =   0.077506

H          x = -2.038787  y =  1.614042  z =  2.454680 angstrom
           Maximum rank =  0   Radius =  0.325 angstrom
                   Q00  =   0.076529

H          x = -0.351895  y =  2.037631  z =  2.978501 angstrom
           Maximum rank =  0   Radius =  0.325 angstrom
                   Q00  =   0.078623

H          x = -0.076128  y =  2.760728  z = -0.690082 angstrom
           Maximum rank =  0   Radius =  0.325 angstrom
                   Q00  =   0.081352

Total multipoles referred to origin at
           x =   0.000000,  y =    0.000000,  z =    0.000000 angstrom
                   Q00  =  -0.000000

Finished at 6:51:40 on 27 Apr 2020

  DMA results are available in the Python driver through the
	  variable('DMA DISTRIBUTED MULTIPOLES')
  and
	  variable('DMA TOTAL MULTIPOLES')
  commands.

    Psi4 stopped on: Monday, 27 April 2020 06:51AM
    Psi4 wall time for execution: 0:00:38.47

*** Psi4 exiting successfully. Buy a developer a beer!
