                               Psi4 1.3.2 release

  ==> Input File <==

--------------------------------------------------------------------------
import numpy as np
set {scf_type pk
basis cc-pvdz
d_convergence 10
gdma_switch   0
gdma_limit    0
gdma_origin   [ 0.0,  0.0,  0.0 ]
}
molecule test {
    units Angstrom
    0 1
    --
    0 1
    C               -1.274410861254806    -3.117588798085461     1.454155198853269
    C               -2.388410861254807    -3.618588798085461     0.553155198853269
    H               -0.462410861254806    -3.841588798085461     1.526155198853269
    H               -0.913410861254806    -2.179588798085461     1.060155198853269
    H               -1.726410861254806    -2.973588798085461     2.429155198853269
    H               -2.989410861254806    -2.767588798085461     0.237155198853269
    H               -3.028110861254807    -4.367416798085459     1.043095198853269
    H               -1.948360861254806    -4.077585798085461    -0.344434801146731
    C                1.599589138745194     1.853411201914539    -2.427844801146731
    C               -0.121410861254806     0.518411201914539     1.267155198853269
    C                0.674589138745194    -0.290588798085461     0.563155198853269
    C               -0.472410861254806     1.776411201914539     0.739155198853269
    C                1.258589138745194     0.139411201914539    -0.610844801146731
    C                0.062589138745194     2.172411201914539    -0.442844801146731
    C                0.969589138745194     1.392411201914539    -1.139844801146731
    H               -0.076410861254806     0.349411201914539     2.323155198853269
    H                1.034589138745194    -1.210588798085461     1.004155198853269
    H               -0.726410861254806     2.627411201914539     1.359155198853269
    H                1.955589138745194    -0.505588798085461    -1.120844801146731
    H               -0.132410861254806     3.179411201914539    -0.788844801146731
    H                2.663589138745193     1.610411201914539    -2.388844801146731
    H                1.516589138745194     2.941411201914539    -2.486844801146731
    H                1.162089138745194     1.384001201914539    -3.321284801146731

}
e, wfn = energy('scf', return_wfn=True)
gdma(wfn)
dmavals = variable('DMA DISTRIBUTED MULTIPOLES')
charges = np.array(dmavals)
print(charges)
np.save('SSI-102ALA-114PHE-1-dimer.npy', np.array(charges))--------------------------------------------------------------------------

*** tstart() called on ds3
*** at Tue Apr 28 14:38:46 2020

   => Loading Basis Set <=

    Name: CC-PVDZ
    Role: ORBITAL
    Keyword: BASIS
    atoms 1-2, 9-15  entry C          line   138 file /theoryfs2/ds/metcalf/miniconda2/envs/tf2gpu/share/psi4/basis/cc-pvdz.gbs
    atoms 3-8, 16-23 entry H          line    22 file /theoryfs2/ds/metcalf/miniconda2/envs/tf2gpu/share/psi4/basis/cc-pvdz.gbs

         ---------------------------------------------------------
                                   SCF
               by Justin Turney, Rob Parrish, Andy Simmonett
                          and Daniel G. A. Smith
                              RHF Reference
                        1 Threads,    500 MiB Core
         ---------------------------------------------------------

  ==> Geometry <==

    Molecular point group: c1
    Full point group: C1

    Geometry (in Angstrom), charge = 0, multiplicity = 1:

       Center              X                  Y                   Z               Mass
    ------------   -----------------  -----------------  -----------------  -----------------
         C           -1.274410861255    -3.117588798085     1.454155198853    12.000000000000
         C           -2.388410861255    -3.618588798085     0.553155198853    12.000000000000
         H           -0.462410861255    -3.841588798085     1.526155198853     1.007825032230
         H           -0.913410861255    -2.179588798085     1.060155198853     1.007825032230
         H           -1.726410861255    -2.973588798085     2.429155198853     1.007825032230
         H           -2.989410861255    -2.767588798085     0.237155198853     1.007825032230
         H           -3.028110861255    -4.367416798085     1.043095198853     1.007825032230
         H           -1.948360861255    -4.077585798085    -0.344434801147     1.007825032230
         C            1.599589138745     1.853411201915    -2.427844801147    12.000000000000
         C           -0.121410861255     0.518411201915     1.267155198853    12.000000000000
         C            0.674589138745    -0.290588798085     0.563155198853    12.000000000000
         C           -0.472410861255     1.776411201915     0.739155198853    12.000000000000
         C            1.258589138745     0.139411201915    -0.610844801147    12.000000000000
         C            0.062589138745     2.172411201915    -0.442844801147    12.000000000000
         C            0.969589138745     1.392411201915    -1.139844801147    12.000000000000
         H           -0.076410861255     0.349411201915     2.323155198853     1.007825032230
         H            1.034589138745    -1.210588798085     1.004155198853     1.007825032230
         H           -0.726410861255     2.627411201915     1.359155198853     1.007825032230
         H            1.955589138745    -0.505588798085    -1.120844801147     1.007825032230
         H           -0.132410861255     3.179411201915    -0.788844801147     1.007825032230
         H            2.663589138745     1.610411201915    -2.388844801147     1.007825032230
         H            1.516589138745     2.941411201915    -2.486844801147     1.007825032230
         H            1.162089138745     1.384001201915    -3.321284801147     1.007825032230

  Running in c1 symmetry.

  Rotational constants: A =      0.09010  B =      0.02097  C =      0.01908 [cm^-1]
  Rotational constants: A =   2701.23744  B =    628.63687  C =    571.89572 [MHz]
  Nuclear repulsion =  405.481613362359951

  Charge       = 0
  Multiplicity = 1
  Electrons    = 68
  Nalpha       = 34
  Nbeta        = 34

  ==> Algorithm <==

  SCF Algorithm Type is PK.
  DIIS enabled.
  MOM disabled.
  Fractional occupation disabled.
  Guess Type is SAD.
  Energy threshold   = 1.00e-06
  Density threshold  = 1.00e-10
  Integral threshold = 0.00e+00

  ==> Primary Basis <==

  Basis Set: CC-PVDZ
    Blend: CC-PVDZ
    Number of shells: 96
    Number of basis function: 196
    Number of Cartesian functions: 205
    Spherical Harmonics?: true
    Max angular momentum: 2

  ==> Pre-Iterations <==

   -------------------------------------------------------
    Irrep   Nso     Nmo     Nalpha   Nbeta   Ndocc  Nsocc
   -------------------------------------------------------
     A        196     196       0       0       0       0
   -------------------------------------------------------
    Total     196     196      34      34      34       0
   -------------------------------------------------------

  ==> Integral Setup <==

  Using integral reordering PK algorithm.
  Sizing the integral batches needed.
  Building batch lookup table.
   Calculation information:
      Number of atoms:                  23
      Number of AO shells:              96
      Number of primitives:            268
      Number of atomic orbitals:       205
      Number of basis functions:       196

      Integral cutoff                 1.00e-12
      Number of threads:                 1

	Batch   1 pq = [       0,    9405] index = [             0,44231715] size =     44231715
	Batch   2 pq = [    9405,   13301] index = [      44231715,88464951] size =     44233236
	Batch   3 pq = [   13301,   16290] index = [      88464951,132690195] size =     44225244
	Batch   4 pq = [   16290,   18810] index = [     132690195,176917455] size =     44227260
	Batch   5 pq = [   18810,   19306] index = [     176917455,186370471] size =      9453016
  Task number: 17
  Buffer size: 11059200
  Buffer per thread: 2
  We computed 8826427 shell quartets total.
  Whereas there are 10841496 unique shell quartets.

  ==> DiskJK: Disk-Based J/K Matrices <==

    J tasked:                  Yes
    K tasked:                  Yes
    wK tasked:                  No
    Memory [MiB]:              375
    Schwarz Cutoff:          1E-12

    OpenMP threads:              1

  Minimum eigenvalue in the overlap matrix is 3.7182674180E-04.
  Using Symmetric Orthogonalization.

  SCF Guess: Superposition of Atomic Densities via on-the-fly atomic UHF.

  ==> Iterations <==

                        Total Energy        Delta E     RMS |[F,P]|

   @RHF iter SAD:  -348.13540538991191   -3.48135e+02   0.00000e+00
   @RHF iter   1:  -348.72536246356549   -5.89957e-01   2.96795e-03 DIIS
   @RHF iter   2:  -348.92440480159604   -1.99042e-01   1.24586e-03 DIIS
   @RHF iter   3:  -348.95656780656958   -3.21630e-02   2.62167e-04 DIIS
   @RHF iter   4:  -348.95910966915733   -2.54186e-03   5.12437e-05 DIIS
   @RHF iter   5:  -348.95918325552543   -7.35864e-05   1.59693e-05 DIIS
   @RHF iter   6:  -348.95919023844840   -6.98292e-06   4.64665e-06 DIIS
   @RHF iter   7:  -348.95919091623745   -6.77789e-07   1.57929e-06 DIIS
   @RHF iter   8:  -348.95919103245956   -1.16222e-07   5.54590e-07 DIIS
   @RHF iter   9:  -348.95919106609210   -3.36325e-08   2.63093e-07 DIIS
   @RHF iter  10:  -348.95919107418479   -8.09268e-09   1.04019e-07 DIIS
   @RHF iter  11:  -348.95919107558507   -1.40028e-09   3.51723e-08 DIIS
   @RHF iter  12:  -348.95919107568886   -1.03796e-10   1.55312e-08 DIIS
   @RHF iter  13:  -348.95919107570211   -1.32445e-11   5.09448e-09 DIIS
   @RHF iter  14:  -348.95919107570154    5.68434e-13   1.33104e-09 DIIS
   @RHF iter  15:  -348.95919107570472   -3.18323e-12   6.75059e-10 DIIS
   @RHF iter  16:  -348.95919107570336    1.36424e-12   3.08540e-10 DIIS
   @RHF iter  17:  -348.95919107570217    1.19371e-12   1.24313e-10 DIIS
   @RHF iter  18:  -348.95919107570478   -2.61480e-12   5.40634e-11 DIIS
  Energy and wave function converged.

  ==> Post-Iterations <==

    Orbital Energies [Eh]
    ---------------------

    Doubly Occupied:

       1A    -11.239368     2A    -11.232104     3A    -11.231362
       4A    -11.228833     5A    -11.226867     6A    -11.226466
       7A    -11.225190     8A    -11.211663     9A    -11.206915
      10A     -1.165091    11A     -1.051238    12A     -1.021170
      13A     -1.016600    14A     -0.935836    15A     -0.831098
      16A     -0.823733    17A     -0.801955    18A     -0.695550
      19A     -0.637358    20A     -0.623265    21A     -0.599219
      22A     -0.594623    23A     -0.583615    24A     -0.577306
      25A     -0.569138    26A     -0.538392    27A     -0.502544
      28A     -0.491376    29A     -0.484638    30A     -0.477971
      31A     -0.474925    32A     -0.473136    33A     -0.337552
      34A     -0.321831

    Virtual:

      35A      0.125826    36A      0.143333    37A      0.180065
      38A      0.193512    39A      0.204353    40A      0.214945
      41A      0.239826    42A      0.243858    43A      0.252441
      44A      0.259236    45A      0.266584    46A      0.278678
      47A      0.291214    48A      0.297072    49A      0.304055
      50A      0.343175    51A      0.360404    52A      0.379179
      53A      0.403347    54A      0.453324    55A      0.468286
      56A      0.480511    57A      0.505979    58A      0.562355
      59A      0.598059    60A      0.600170    61A      0.609682
      62A      0.627136    63A      0.630653    64A      0.671503
      65A      0.679363    66A      0.687122    67A      0.692536
      68A      0.713128    69A      0.715465    70A      0.739402
      71A      0.748251    72A      0.761887    73A      0.769353
      74A      0.774740    75A      0.800734    76A      0.807171
      77A      0.839464    78A      0.855084    79A      0.860636
      80A      0.870274    81A      0.875879    82A      0.888441
      83A      0.891378    84A      0.897856    85A      0.902783
      86A      0.911121    87A      0.915700    88A      0.918707
      89A      0.923974    90A      0.930469    91A      0.943636
      92A      0.949956    93A      0.985311    94A      1.018152
      95A      1.038672    96A      1.051508    97A      1.105649
      98A      1.111085    99A      1.122399   100A      1.128966
     101A      1.145914   102A      1.156227   103A      1.165747
     104A      1.179916   105A      1.229177   106A      1.238549
     107A      1.275141   108A      1.303168   109A      1.333959
     110A      1.342489   111A      1.364522   112A      1.396599
     113A      1.467866   114A      1.485691   115A      1.504905
     116A      1.522817   117A      1.542751   118A      1.565225
     119A      1.583635   120A      1.619008   121A      1.664151
     122A      1.685543   123A      1.694310   124A      1.700855
     125A      1.712025   126A      1.754371   127A      1.769138
     128A      1.785921   129A      1.808269   130A      1.828180
     131A      1.854492   132A      1.862624   133A      1.873799
     134A      1.886134   135A      1.894307   136A      1.914147
     137A      1.919309   138A      1.925967   139A      1.937295
     140A      1.950529   141A      1.956359   142A      1.957610
     143A      1.965426   144A      1.972943   145A      1.981399
     146A      1.993036   147A      2.017639   148A      2.033077
     149A      2.052200   150A      2.059883   151A      2.064835
     152A      2.139637   153A      2.151642   154A      2.153405
     155A      2.169088   156A      2.179695   157A      2.194431
     158A      2.206398   159A      2.245828   160A      2.271405
     161A      2.285075   162A      2.289593   163A      2.306346
     164A      2.317141   165A      2.323103   166A      2.337263
     167A      2.382242   168A      2.451639   169A      2.464032
     170A      2.471216   171A      2.484179   172A      2.513271
     173A      2.568752   174A      2.594633   175A      2.617797
     176A      2.625747   177A      2.728891   178A      2.744251
     179A      2.766778   180A      2.770961   181A      2.780152
     182A      2.821024   183A      2.832993   184A      2.835054
     185A      2.847697   186A      2.856651   187A      2.863651
     188A      2.948117   189A      2.964035   190A      2.986254
     191A      3.011784   192A      3.038067   193A      3.152630
     194A      3.219101   195A      3.291485   196A      3.888718

    Final Occupation by Irrep:
              A
    DOCC [    34 ]

  @RHF Final Energy:  -348.95919107570478

   => Energetics <=

    Nuclear Repulsion Energy =            405.4816133623599512
    One-Electron Energy =               -1273.5657534285867314
    Two-Electron Energy =                 519.1249489905220571
    Total Energy =                       -348.9591910757047799

Computation Completed

Properties will be evaluated at   0.000000,   0.000000,   0.000000 [a0]

Properties computed using the SCF density matrix

  Nuclear Dipole Moment: [e a0]
     X:    -3.4414      Y:    -9.2167      Z:     0.4979

  Electronic Dipole Moment: [e a0]
     X:     3.8166      Y:     9.4322      Z:    -0.5855

  Dipole Moment: [e a0]
     X:     0.3753      Y:     0.2155      Z:    -0.0877     Total:     0.4415

  Dipole Moment: [D]
     X:     0.9538      Y:     0.5476      Z:    -0.2228     Total:     1.1222

*** tstop() called on ds3 at Tue Apr 28 14:40:21 2020
Module time:
	user time   =      64.44 seconds =       1.07 minutes
	system time =      29.05 seconds =       0.48 minutes
	total time  =         95 seconds =       1.58 minutes
Total time:
	user time   =      64.44 seconds =       1.07 minutes
	system time =      29.05 seconds =       0.48 minutes
	total time  =         95 seconds =       1.58 minutes
                                     G D M A

                                 by Anthony Stone

                           version 2.2.06, 22 June 2011

               Distributed Multipoles from Gaussian wavefunctions

Starting at 14:40:22 on 28 Apr 2020

Using SCF density matrix from file ./SSI/SSI-102ALA-114PHE-1-dimer.test.6437.fchk

                         Distributed Multipole Analysis

Standard DMA

Positions and radii in angstrom
Multipole moments in atomic units, ea_0^k for rank k

C          x = -1.274411  y = -3.117589  z =  1.454155 angstrom
           Maximum rank =  0   Radius =  0.650 angstrom
                   Q00  =  -0.245404

C          x = -2.388411  y = -3.618589  z =  0.553155 angstrom
           Maximum rank =  0   Radius =  0.650 angstrom
                   Q00  =  -0.238786

H          x = -0.462411  y = -3.841589  z =  1.526155 angstrom
           Maximum rank =  0   Radius =  0.325 angstrom
                   Q00  =   0.072310

H          x = -0.913411  y = -2.179589  z =  1.060155 angstrom
           Maximum rank =  0   Radius =  0.325 angstrom
                   Q00  =   0.111005

H          x = -1.726411  y = -2.973589  z =  2.429155 angstrom
           Maximum rank =  0   Radius =  0.325 angstrom
                   Q00  =   0.072590

H          x = -2.989411  y = -2.767589  z =  0.237155 angstrom
           Maximum rank =  0   Radius =  0.325 angstrom
                   Q00  =   0.085118

H          x = -3.028111  y = -4.367417  z =  1.043095 angstrom
           Maximum rank =  0   Radius =  0.325 angstrom
                   Q00  =   0.074229

H          x = -1.948361  y = -4.077586  z = -0.344435 angstrom
           Maximum rank =  0   Radius =  0.325 angstrom
                   Q00  =   0.070381

C          x =  1.599589  y =  1.853411  z = -2.427845 angstrom
           Maximum rank =  0   Radius =  0.650 angstrom
                   Q00  =  -0.206568

C          x = -0.121411  y =  0.518411  z =  1.267155 angstrom
           Maximum rank =  0   Radius =  0.650 angstrom
                   Q00  =  -0.128638

C          x =  0.674589  y = -0.290589  z =  0.563155 angstrom
           Maximum rank =  0   Radius =  0.650 angstrom
                   Q00  =  -0.054014

C          x = -0.472411  y =  1.776411  z =  0.739155 angstrom
           Maximum rank =  0   Radius =  0.650 angstrom
                   Q00  =  -0.116130

C          x =  1.258589  y =  0.139411  z = -0.610845 angstrom
           Maximum rank =  0   Radius =  0.650 angstrom
                   Q00  =  -0.021006

C          x =  0.062589  y =  2.172411  z = -0.442845 angstrom
           Maximum rank =  0   Radius =  0.650 angstrom
                   Q00  =  -0.015328

C          x =  0.969589  y =  1.392411  z = -1.139845 angstrom
           Maximum rank =  0   Radius =  0.650 angstrom
                   Q00  =  -0.099279

H          x = -0.076411  y =  0.349411  z =  2.323155 angstrom
           Maximum rank =  0   Radius =  0.325 angstrom
                   Q00  =   0.080037

H          x =  1.034589  y = -1.210589  z =  1.004155 angstrom
           Maximum rank =  0   Radius =  0.325 angstrom
                   Q00  =   0.060726

H          x = -0.726411  y =  2.627411  z =  1.359155 angstrom
           Maximum rank =  0   Radius =  0.325 angstrom
                   Q00  =   0.087608

H          x =  1.955589  y = -0.505589  z = -1.120845 angstrom
           Maximum rank =  0   Radius =  0.325 angstrom
                   Q00  =   0.051591

H          x = -0.132411  y =  3.179411  z = -0.788845 angstrom
           Maximum rank =  0   Radius =  0.325 angstrom
                   Q00  =   0.054203

H          x =  2.663589  y =  1.610411  z = -2.388845 angstrom
           Maximum rank =  0   Radius =  0.325 angstrom
                   Q00  =   0.099203

H          x =  1.516589  y =  2.941411  z = -2.486845 angstrom
           Maximum rank =  0   Radius =  0.325 angstrom
                   Q00  =   0.097622

H          x =  1.162089  y =  1.384001  z = -3.321285 angstrom
           Maximum rank =  0   Radius =  0.325 angstrom
                   Q00  =   0.108528

Total multipoles referred to origin at
           x =   0.000000,  y =    0.000000,  z =    0.000000 angstrom
                   Q00  =  -0.000000

Finished at 14:40:22 on 28 Apr 2020

  DMA results are available in the Python driver through the
	  variable('DMA DISTRIBUTED MULTIPOLES')
  and
	  variable('DMA TOTAL MULTIPOLES')
  commands.

    Psi4 stopped on: Tuesday, 28 April 2020 02:40PM
    Psi4 wall time for execution: 0:01:35.48

*** Psi4 exiting successfully. Buy a developer a beer!
