                               Psi4 1.3.2 release

  ==> Input File <==

--------------------------------------------------------------------------
import numpy as np
set {scf_type pk
basis cc-pvdz
d_convergence 10
gdma_switch   0
gdma_limit    0
gdma_origin   [ 0.0,  0.0,  0.0 ]
}
molecule test {
    units Angstrom
    0 1
    --
    0 1
    C               -0.656508954776097    -4.031467946966982     3.301835894181759
    C               -1.422508954776097    -2.752467946966982     3.111835894181759
    O               -2.646508954776097    -2.752467946966982     3.108835894181759
    N               -0.717508954776097    -1.642467946966982     2.995835894181759
    H               -1.217508954776097    -0.799467946966982     2.762835894181758
    H                0.289491045223903    -1.681467946966982     2.979835894181758
    H               -0.537508954776097    -4.190467946966983     4.373835894181759
    H                0.337491045223903    -3.943467946966982     2.881835894181758
    H               -1.173327954776097    -4.903419946966983     2.874521894181759
    C                1.832491045223903     3.059532053033018    -3.950164105818242
    C                0.213491045223903     0.787532053033018    -0.667164105818241
    C                1.123491045223903     1.812532053033018    -0.428164105818241
    C               -0.191508954776097     0.500532053033018    -1.976164105818241
    C                1.638491045223903     2.544532053033017    -1.495164105818241
    C                0.332491045223903     1.244532053033018    -3.037164105818241
    C                1.257491045223903     2.264532053033018    -2.807164105818241
    O               -0.246508954776097     0.072532053033018     0.391835894181759
    H                0.128491045223903     0.389532053033018     1.214835894181759
    H                1.440491045223903     2.037532053033018     0.580835894181759
    H               -0.894508954776097    -0.295467946966982    -2.158164105818241
    H                2.355491045223904     3.332532053033018    -1.301164105818241
    H                0.029491045223903     1.016532053033018    -4.051164105818241
    H                1.652491045223903     2.536532053033018    -4.891164105818241
    H                2.913491045223903     3.127532053033018    -3.812164105818241
    H                1.415065045223903     4.075558553033018    -4.008865105818241

}
e, wfn = energy('scf', return_wfn=True)
gdma(wfn)
dmavals = variable('DMA DISTRIBUTED MULTIPOLES')
charges = np.array(dmavals)
print(charges)
np.save('SSI-010GLN-102TYR-1-dimer.npy', np.array(charges))--------------------------------------------------------------------------

*** tstart() called on ds3
*** at Mon Apr 27 06:58:46 2020

   => Loading Basis Set <=

    Name: CC-PVDZ
    Role: ORBITAL
    Keyword: BASIS
    atoms 1-2, 10-16 entry C          line   138 file /theoryfs2/ds/metcalf/miniconda2/envs/tf2gpu/share/psi4/basis/cc-pvdz.gbs
    atoms 3, 17      entry O          line   198 file /theoryfs2/ds/metcalf/miniconda2/envs/tf2gpu/share/psi4/basis/cc-pvdz.gbs
    atoms 4          entry N          line   168 file /theoryfs2/ds/metcalf/miniconda2/envs/tf2gpu/share/psi4/basis/cc-pvdz.gbs
    atoms 5-9, 18-25 entry H          line    22 file /theoryfs2/ds/metcalf/miniconda2/envs/tf2gpu/share/psi4/basis/cc-pvdz.gbs

         ---------------------------------------------------------
                                   SCF
               by Justin Turney, Rob Parrish, Andy Simmonett
                          and Daniel G. A. Smith
                              RHF Reference
                        1 Threads,    500 MiB Core
         ---------------------------------------------------------

  ==> Geometry <==

    Molecular point group: c1
    Full point group: C1

    Geometry (in Angstrom), charge = 0, multiplicity = 1:

       Center              X                  Y                   Z               Mass
    ------------   -----------------  -----------------  -----------------  -----------------
         C           -0.656508954776    -4.031467946967     3.301835894182    12.000000000000
         C           -1.422508954776    -2.752467946967     3.111835894182    12.000000000000
         O           -2.646508954776    -2.752467946967     3.108835894182    15.994914619570
         N           -0.717508954776    -1.642467946967     2.995835894182    14.003074004430
         H           -1.217508954776    -0.799467946967     2.762835894182     1.007825032230
         H            0.289491045224    -1.681467946967     2.979835894182     1.007825032230
         H           -0.537508954776    -4.190467946967     4.373835894182     1.007825032230
         H            0.337491045224    -3.943467946967     2.881835894182     1.007825032230
         H           -1.173327954776    -4.903419946967     2.874521894182     1.007825032230
         C            1.832491045224     3.059532053033    -3.950164105818    12.000000000000
         C            0.213491045224     0.787532053033    -0.667164105818    12.000000000000
         C            1.123491045224     1.812532053033    -0.428164105818    12.000000000000
         C           -0.191508954776     0.500532053033    -1.976164105818    12.000000000000
         C            1.638491045224     2.544532053033    -1.495164105818    12.000000000000
         C            0.332491045224     1.244532053033    -3.037164105818    12.000000000000
         C            1.257491045224     2.264532053033    -2.807164105818    12.000000000000
         O           -0.246508954776     0.072532053033     0.391835894182    15.994914619570
         H            0.128491045224     0.389532053033     1.214835894182     1.007825032230
         H            1.440491045224     2.037532053033     0.580835894182     1.007825032230
         H           -0.894508954776    -0.295467946967    -2.158164105818     1.007825032230
         H            2.355491045224     3.332532053033    -1.301164105818     1.007825032230
         H            0.029491045224     1.016532053033    -4.051164105818     1.007825032230
         H            1.652491045224     2.536532053033    -4.891164105818     1.007825032230
         H            2.913491045224     3.127532053033    -3.812164105818     1.007825032230
         H            1.415065045224     4.075558553033    -4.008865105818     1.007825032230

  Running in c1 symmetry.

  Rotational constants: A =      0.10213  B =      0.00773  C =      0.00751 [cm^-1]
  Rotational constants: A =   3061.85226  B =    231.62124  C =    225.21528 [MHz]
  Nuclear repulsion =  619.174871902354312

  Charge       = 0
  Multiplicity = 1
  Electrons    = 90
  Nalpha       = 45
  Nbeta        = 45

  ==> Algorithm <==

  SCF Algorithm Type is PK.
  DIIS enabled.
  MOM disabled.
  Fractional occupation disabled.
  Guess Type is SAD.
  Energy threshold   = 1.00e-06
  Density threshold  = 1.00e-10
  Integral threshold = 0.00e+00

  ==> Primary Basis <==

  Basis Set: CC-PVDZ
    Blend: CC-PVDZ
    Number of shells: 111
    Number of basis function: 233
    Number of Cartesian functions: 245
    Spherical Harmonics?: true
    Max angular momentum: 2

  ==> Pre-Iterations <==

   -------------------------------------------------------
    Irrep   Nso     Nmo     Nalpha   Nbeta   Ndocc  Nsocc
   -------------------------------------------------------
     A        233     233       0       0       0       0
   -------------------------------------------------------
    Total     233     233      45      45      45       0
   -------------------------------------------------------

  ==> Integral Setup <==

  Using integral reordering PK algorithm.
  Sizing the integral batches needed.
  Building batch lookup table.
   Calculation information:
      Number of atoms:                  25
      Number of AO shells:             111
      Number of primitives:            329
      Number of atomic orbitals:       245
      Number of basis functions:       233

      Integral cutoff                 1.00e-12
      Number of threads:                 1

	Batch   1 pq = [       0,    9405] index = [             0,44231715] size =     44231715
	Batch   2 pq = [    9405,   13301] index = [      44231715,88464951] size =     44233236
	Batch   3 pq = [   13301,   16290] index = [      88464951,132690195] size =     44225244
	Batch   4 pq = [   16290,   18810] index = [     132690195,176917455] size =     44227260
	Batch   5 pq = [   18810,   21030] index = [     176917455,221140965] size =     44223510
	Batch   6 pq = [   21030,   23037] index = [     221140965,265363203] size =     44222238
	Batch   7 pq = [   23037,   24883] index = [     265363203,309594286] size =     44231083
	Batch   8 pq = [   24883,   26601] index = [     309594286,353819901] size =     44225615
	Batch   9 pq = [   26601,   27261] index = [     353819901,371594691] size =     17774790
  Task number: 34
  Buffer size: 11059200
  Buffer per thread: 2
  We computed 12600690 shell quartets total.
  Whereas there are 19322436 unique shell quartets.

  ==> DiskJK: Disk-Based J/K Matrices <==

    J tasked:                  Yes
    K tasked:                  Yes
    wK tasked:                  No
    Memory [MiB]:              375
    Schwarz Cutoff:          1E-12

    OpenMP threads:              1

  Minimum eigenvalue in the overlap matrix is 3.2744443042E-04.
  Using Symmetric Orthogonalization.

  SCF Guess: Superposition of Atomic Densities via on-the-fly atomic UHF.

  ==> Iterations <==

                        Total Energy        Delta E     RMS |[F,P]|

   @RHF iter SAD:  -551.31502280567258   -5.51315e+02   0.00000e+00
   @RHF iter   1:  -552.28578559259597   -9.70763e-01   3.24490e-03 DIIS
   @RHF iter   2:  -552.54703939776095   -2.61254e-01   1.70031e-03 DIIS
   @RHF iter   3:  -552.60877432343750   -6.17349e-02   3.90829e-04 DIIS
   @RHF iter   4:  -552.61357117473995   -4.79685e-03   1.56319e-04 DIIS
   @RHF iter   5:  -552.61436333158179   -7.92157e-04   2.38601e-05 DIIS
   @RHF iter   6:  -552.61440178112412   -3.84495e-05   1.10833e-05 DIIS
   @RHF iter   7:  -552.61440818819267   -6.40707e-06   4.14966e-06 DIIS
   @RHF iter   8:  -552.61440951238319   -1.32419e-06   1.58568e-06 DIIS
   @RHF iter   9:  -552.61440968535976   -1.72977e-07   5.91253e-07 DIIS
   @RHF iter  10:  -552.61440970843398   -2.30742e-08   2.14443e-07 DIIS
   @RHF iter  11:  -552.61440971186198   -3.42800e-09   6.69667e-08 DIIS
   @RHF iter  12:  -552.61440971227012   -4.08136e-10   3.45958e-08 DIIS
   @RHF iter  13:  -552.61440971237175   -1.01636e-10   1.48174e-08 DIIS
   @RHF iter  14:  -552.61440971240575   -3.39924e-11   6.41618e-09 DIIS
   @RHF iter  15:  -552.61440971241109   -5.34328e-12   2.48300e-09 DIIS
   @RHF iter  16:  -552.61440971241382   -2.72848e-12   7.81537e-10 DIIS
   @RHF iter  17:  -552.61440971241348    3.41061e-13   3.05610e-10 DIIS
   @RHF iter  18:  -552.61440971241109    2.38742e-12   8.31922e-11 DIIS
  Energy and wave function converged.

  ==> Post-Iterations <==

    Orbital Energies [Eh]
    ---------------------

    Doubly Occupied:

       1A    -20.593867     2A    -20.497493     3A    -15.586457
       4A    -11.341643     5A    -11.306719     6A    -11.244096
       7A    -11.243988     8A    -11.239390     9A    -11.238078
      10A    -11.237564    11A    -11.237302    12A    -11.231970
      13A     -1.414107    14A     -1.366751    15A     -1.217701
      16A     -1.154789    17A     -1.041992    18A     -1.022488
      19A     -1.000287    20A     -0.930631    21A     -0.850214
      22A     -0.810541    23A     -0.797142    24A     -0.740645
      25A     -0.729543    26A     -0.675720    27A     -0.653515
      28A     -0.646989    29A     -0.612598    30A     -0.610140
      31A     -0.595869    32A     -0.592253    33A     -0.576136
      34A     -0.574262    35A     -0.567958    36A     -0.557984
      37A     -0.531462    38A     -0.517409    39A     -0.503034
      40A     -0.489900    41A     -0.472423    42A     -0.405691
      43A     -0.400735    44A     -0.343718    45A     -0.306543

    Virtual:

      46A      0.124468    47A      0.147382    48A      0.151107
      49A      0.182147    50A      0.187067    51A      0.202842
      52A      0.212726    53A      0.215850    54A      0.228778
      55A      0.247926    56A      0.252952    57A      0.269003
      58A      0.272501    59A      0.280798    60A      0.289308
      61A      0.295176    62A      0.365675    63A      0.368194
      64A      0.386699    65A      0.423995    66A      0.453372
      67A      0.466051    68A      0.480645    69A      0.490282
      70A      0.501984    71A      0.560685    72A      0.607634
      73A      0.627997    74A      0.632151    75A      0.642080
      76A      0.642642    77A      0.674305    78A      0.682089
      79A      0.687005    80A      0.701122    81A      0.708547
      82A      0.723271    83A      0.725747    84A      0.731593
      85A      0.737232    86A      0.743352    87A      0.754641
      88A      0.767558    89A      0.777793    90A      0.786570
      91A      0.802951    92A      0.822295    93A      0.841796
      94A      0.845336    95A      0.856321    96A      0.864038
      97A      0.873287    98A      0.879974    99A      0.890421
     100A      0.891982   101A      0.894658   102A      0.921913
     103A      0.925828   104A      0.929246   105A      0.934752
     106A      0.940781   107A      0.945136   108A      0.995287
     109A      1.005081   110A      1.012025   111A      1.047843
     112A      1.055508   113A      1.068131   114A      1.114901
     115A      1.119760   116A      1.134513   117A      1.137708
     118A      1.138232   119A      1.162848   120A      1.198058
     121A      1.236624   122A      1.240530   123A      1.264960
     124A      1.283010   125A      1.291251   126A      1.301109
     127A      1.304270   128A      1.314769   129A      1.346149
     130A      1.355439   131A      1.371002   132A      1.375480
     133A      1.385228   134A      1.411636   135A      1.425702
     136A      1.469578   137A      1.479821   138A      1.491457
     139A      1.505548   140A      1.524708   141A      1.552004
     142A      1.606035   143A      1.611965   144A      1.651158
     145A      1.659496   146A      1.676735   147A      1.689322
     148A      1.719660   149A      1.723757   150A      1.739077
     151A      1.775133   152A      1.794527   153A      1.796807
     154A      1.824180   155A      1.857214   156A      1.862909
     157A      1.876939   158A      1.883695   159A      1.889679
     160A      1.902932   161A      1.904669   162A      1.906609
     163A      1.916184   164A      1.918252   165A      1.939053
     166A      1.954956   167A      1.957105   168A      1.963345
     169A      1.988277   170A      1.993587   171A      2.021901
     172A      2.034743   173A      2.047886   174A      2.057136
     175A      2.058660   176A      2.062128   177A      2.081743
     178A      2.119728   179A      2.142238   180A      2.167394
     181A      2.188886   182A      2.191540   183A      2.214743
     184A      2.223798   185A      2.252018   186A      2.264314
     187A      2.282186   188A      2.291210   189A      2.337133
     190A      2.367927   191A      2.399191   192A      2.413906
     193A      2.461568   194A      2.464638   195A      2.468523
     196A      2.475825   197A      2.493196   198A      2.517903
     199A      2.533803   200A      2.550581   201A      2.572515
     202A      2.602939   203A      2.633493   204A      2.642221
     205A      2.735956   206A      2.738544   207A      2.764229
     208A      2.769866   209A      2.782966   210A      2.797414
     211A      2.815057   212A      2.836706   213A      2.871039
     214A      2.889683   215A      2.950834   216A      2.978599
     217A      2.989677   218A      3.078963   219A      3.094786
     220A      3.110866   221A      3.145152   222A      3.247235
     223A      3.268844   224A      3.298041   225A      3.336575
     226A      3.491793   227A      3.569552   228A      3.579485
     229A      3.663109   230A      3.880175   231A      3.913860
     232A      3.973349   233A      4.185757

    Final Occupation by Irrep:
              A
    DOCC [    45 ]

  @RHF Final Energy:  -552.61440971241109

   => Energetics <=

    Nuclear Repulsion Energy =            619.1748719023543117
    One-Electron Energy =               -1980.1590865354999096
    Two-Electron Energy =                 808.3698049207346230
    Total Energy =                       -552.6144097124110885

Computation Completed

Properties will be evaluated at   0.000000,   0.000000,   0.000000 [a0]

Properties computed using the SCF density matrix

  Nuclear Dipole Moment: [e a0]
     X:     6.3059      Y:     0.6500      Z:    -2.3863

  Electronic Dipole Moment: [e a0]
     X:    -4.2896      Y:     0.0499      Z:     2.3469

  Dipole Moment: [e a0]
     X:     2.0163      Y:     0.6999      Z:    -0.0394     Total:     2.1347

  Dipole Moment: [D]
     X:     5.1250      Y:     1.7790      Z:    -0.1001     Total:     5.4259

*** tstop() called on ds3 at Mon Apr 27 07:03:23 2020
Module time:
	user time   =     107.86 seconds =       1.80 minutes
	system time =      54.03 seconds =       0.90 minutes
	total time  =        277 seconds =       4.62 minutes
Total time:
	user time   =     107.86 seconds =       1.80 minutes
	system time =      54.03 seconds =       0.90 minutes
	total time  =        277 seconds =       4.62 minutes
                                     G D M A

                                 by Anthony Stone

                           version 2.2.06, 22 June 2011

               Distributed Multipoles from Gaussian wavefunctions

Starting at 7:3:24 on 27 Apr 2020

Using SCF density matrix from file ./SSI/SSI-010GLN-102TYR-1-dimer.test.15503.fchk

                         Distributed Multipole Analysis

Standard DMA

Positions and radii in angstrom
Multipole moments in atomic units, ea_0^k for rank k

C          x = -0.656509  y = -4.031468  z =  3.301836 angstrom
           Maximum rank =  0   Radius =  0.650 angstrom
                   Q00  =  -0.265037

C          x = -1.422509  y = -2.752468  z =  3.111836 angstrom
           Maximum rank =  0   Radius =  0.650 angstrom
                   Q00  =   0.822837

O          x = -2.646509  y = -2.752468  z =  3.108836 angstrom
           Maximum rank =  0   Radius =  0.650 angstrom
                   Q00  =  -0.791855

N          x = -0.717509  y = -1.642468  z =  2.995836 angstrom
           Maximum rank =  0   Radius =  0.650 angstrom
                   Q00  =  -0.524678

H          x = -1.217509  y = -0.799468  z =  2.762836 angstrom
           Maximum rank =  0   Radius =  0.325 angstrom
                   Q00  =   0.220120

H          x =  0.289491  y = -1.681468  z =  2.979836 angstrom
           Maximum rank =  0   Radius =  0.325 angstrom
                   Q00  =   0.199042

H          x = -0.537509  y = -4.190468  z =  4.373836 angstrom
           Maximum rank =  0   Radius =  0.325 angstrom
                   Q00  =   0.126908

H          x =  0.337491  y = -3.943468  z =  2.881836 angstrom
           Maximum rank =  0   Radius =  0.325 angstrom
                   Q00  =   0.076727

H          x = -1.173328  y = -4.903420  z =  2.874522 angstrom
           Maximum rank =  0   Radius =  0.325 angstrom
                   Q00  =   0.133717

C          x =  1.832491  y =  3.059532  z = -3.950164 angstrom
           Maximum rank =  0   Radius =  0.650 angstrom
                   Q00  =  -0.195949

C          x =  0.213491  y =  0.787532  z = -0.667164 angstrom
           Maximum rank =  0   Radius =  0.650 angstrom
                   Q00  =   0.273228

C          x =  1.123491  y =  1.812532  z = -0.428164 angstrom
           Maximum rank =  0   Radius =  0.650 angstrom
                   Q00  =  -0.185566

C          x = -0.191509  y =  0.500532  z = -1.976164 angstrom
           Maximum rank =  0   Radius =  0.650 angstrom
                   Q00  =  -0.116288

C          x =  1.638491  y =  2.544532  z = -1.495164 angstrom
           Maximum rank =  0   Radius =  0.650 angstrom
                   Q00  =   0.034552

C          x =  0.332491  y =  1.244532  z = -3.037164 angstrom
           Maximum rank =  0   Radius =  0.650 angstrom
                   Q00  =  -0.009570

C          x =  1.257491  y =  2.264532  z = -2.807164 angstrom
           Maximum rank =  0   Radius =  0.650 angstrom
                   Q00  =  -0.139188

O          x = -0.246509  y =  0.072532  z =  0.391836 angstrom
           Maximum rank =  0   Radius =  0.650 angstrom
                   Q00  =  -0.630136

H          x =  0.128491  y =  0.389532  z =  1.214836 angstrom
           Maximum rank =  0   Radius =  0.325 angstrom
                   Q00  =   0.389803

H          x =  1.440491  y =  2.037532  z =  0.580836 angstrom
           Maximum rank =  0   Radius =  0.325 angstrom
                   Q00  =   0.067151

H          x = -0.894509  y = -0.295468  z = -2.158164 angstrom
           Maximum rank =  0   Radius =  0.325 angstrom
                   Q00  =   0.084099

H          x =  2.355491  y =  3.332532  z = -1.301164 angstrom
           Maximum rank =  0   Radius =  0.325 angstrom
                   Q00  =   0.068610

H          x =  0.029491  y =  1.016532  z = -4.051164 angstrom
           Maximum rank =  0   Radius =  0.325 angstrom
                   Q00  =   0.067825

H          x =  1.652491  y =  2.536532  z = -4.891164 angstrom
           Maximum rank =  0   Radius =  0.325 angstrom
                   Q00  =   0.097747

H          x =  2.913491  y =  3.127532  z = -3.812164 angstrom
           Maximum rank =  0   Radius =  0.325 angstrom
                   Q00  =   0.095201

H          x =  1.415065  y =  4.075559  z = -4.008865 angstrom
           Maximum rank =  0   Radius =  0.325 angstrom
                   Q00  =   0.100701

Total multipoles referred to origin at
           x =   0.000000,  y =    0.000000,  z =    0.000000 angstrom
                   Q00  =  -0.000000

Finished at 7:3:24 on 27 Apr 2020

  DMA results are available in the Python driver through the
	  variable('DMA DISTRIBUTED MULTIPOLES')
  and
	  variable('DMA TOTAL MULTIPOLES')
  commands.

    Psi4 stopped on: Monday, 27 April 2020 07:03AM
    Psi4 wall time for execution: 0:04:37.91

*** Psi4 exiting successfully. Buy a developer a beer!
