                               Psi4 1.3.2 release

  ==> Input File <==

--------------------------------------------------------------------------
import numpy as np
set {scf_type pk
basis cc-pvdz
d_convergence 10
gdma_switch   0
gdma_limit    0
gdma_origin   [ 0.0,  0.0,  0.0 ]
}
molecule test {
    units Angstrom
    0 1
    --
    0 1
    C                0.308715404827095     0.121852020739529     2.352255893631972
    C                1.437715404827095    -1.529147979260471     0.831255893631972
    N                0.714715404827095    -0.434147979260471     1.047255893631972
    N                1.909715404827095    -2.263147979260471     1.828255893631972
    N                1.689715404827095    -1.890147979260471    -0.414744106368028
    H                0.432715404827095     0.102852020739529     0.232255893631972
    H                0.944715404827095     0.974852020739529     2.597255893631972
    H                0.426715404827095    -0.622147979260471     3.141255893631972
    H                1.770715404827095    -1.962147979260470     2.777255893631972
    H                2.464715404827095    -3.083147979260470     1.639255893631972
    H                1.329715404827095    -1.341147979260470    -1.179744106368028
    H                2.240715404827095    -2.712147979260470    -0.606744106368028
    H               -0.739854595172905     0.453572020739529     2.330465893631972
    C               -2.673284595172905     2.352852020739530    -1.221744106368028
    C               -1.469284595172905     1.458852020739529    -1.444744106368028
    O               -0.427284595172905     1.783852020739530    -0.818744106368028
    O               -1.551284595172905     0.451852020739529    -2.193744106368028
    H               -2.448284595172905     3.337852020739529    -1.639744106368028
    H               -2.825284595172905     2.485852020739530    -0.148744106368028
    H               -3.607104595172905     1.994192020739530    -1.679274106368028

}
e, wfn = energy('scf', return_wfn=True)
gdma(wfn)
dmavals = variable('DMA DISTRIBUTED MULTIPOLES')
charges = np.array(dmavals)
print(charges)
np.save('SSI-228ARG-232GLU-2-dimer.npy', np.array(charges))--------------------------------------------------------------------------

*** tstart() called on ds3
*** at Mon Apr 27 18:01:03 2020

   => Loading Basis Set <=

    Name: CC-PVDZ
    Role: ORBITAL
    Keyword: BASIS
    atoms 1-2, 14-15  entry C          line   138 file /theoryfs2/ds/metcalf/miniconda2/envs/tf2gpu/share/psi4/basis/cc-pvdz.gbs
    atoms 3-5         entry N          line   168 file /theoryfs2/ds/metcalf/miniconda2/envs/tf2gpu/share/psi4/basis/cc-pvdz.gbs
    atoms 6-13, 18-20 entry H          line    22 file /theoryfs2/ds/metcalf/miniconda2/envs/tf2gpu/share/psi4/basis/cc-pvdz.gbs
    atoms 16-17       entry O          line   198 file /theoryfs2/ds/metcalf/miniconda2/envs/tf2gpu/share/psi4/basis/cc-pvdz.gbs

         ---------------------------------------------------------
                                   SCF
               by Justin Turney, Rob Parrish, Andy Simmonett
                          and Daniel G. A. Smith
                              RHF Reference
                        1 Threads,    500 MiB Core
         ---------------------------------------------------------

  ==> Geometry <==

    Molecular point group: c1
    Full point group: C1

    Geometry (in Angstrom), charge = 0, multiplicity = 1:

       Center              X                  Y                   Z               Mass
    ------------   -----------------  -----------------  -----------------  -----------------
         C            0.308715404827     0.121852020740     2.352255893632    12.000000000000
         C            1.437715404827    -1.529147979260     0.831255893632    12.000000000000
         N            0.714715404827    -0.434147979260     1.047255893632    14.003074004430
         N            1.909715404827    -2.263147979260     1.828255893632    14.003074004430
         N            1.689715404827    -1.890147979260    -0.414744106368    14.003074004430
         H            0.432715404827     0.102852020740     0.232255893632     1.007825032230
         H            0.944715404827     0.974852020740     2.597255893632     1.007825032230
         H            0.426715404827    -0.622147979260     3.141255893632     1.007825032230
         H            1.770715404827    -1.962147979260     2.777255893632     1.007825032230
         H            2.464715404827    -3.083147979260     1.639255893632     1.007825032230
         H            1.329715404827    -1.341147979260    -1.179744106368     1.007825032230
         H            2.240715404827    -2.712147979260    -0.606744106368     1.007825032230
         H           -0.739854595173     0.453572020740     2.330465893632     1.007825032230
         C           -2.673284595173     2.352852020740    -1.221744106368    12.000000000000
         C           -1.469284595173     1.458852020740    -1.444744106368    12.000000000000
         O           -0.427284595173     1.783852020740    -0.818744106368    15.994914619570
         O           -1.551284595173     0.451852020740    -2.193744106368    15.994914619570
         H           -2.448284595173     3.337852020740    -1.639744106368     1.007825032230
         H           -2.825284595173     2.485852020740    -0.148744106368     1.007825032230
         H           -3.607104595173     1.994192020740    -1.679274106368     1.007825032230

  Running in c1 symmetry.

  Rotational constants: A =      0.09303  B =      0.02053  C =      0.01772 [cm^-1]
  Rotational constants: A =   2788.96049  B =    615.39996  C =    531.24615 [MHz]
  Nuclear repulsion =  447.260073154873453

  Charge       = 0
  Multiplicity = 1
  Electrons    = 72
  Nalpha       = 36
  Nbeta        = 36

  ==> Algorithm <==

  SCF Algorithm Type is PK.
  DIIS enabled.
  MOM disabled.
  Fractional occupation disabled.
  Guess Type is SAD.
  Energy threshold   = 1.00e-06
  Density threshold  = 1.00e-10
  Integral threshold = 0.00e+00

  ==> Primary Basis <==

  Basis Set: CC-PVDZ
    Blend: CC-PVDZ
    Number of shells: 87
    Number of basis function: 181
    Number of Cartesian functions: 190
    Spherical Harmonics?: true
    Max angular momentum: 2

  ==> Pre-Iterations <==

   -------------------------------------------------------
    Irrep   Nso     Nmo     Nalpha   Nbeta   Ndocc  Nsocc
   -------------------------------------------------------
     A        181     181       0       0       0       0
   -------------------------------------------------------
    Total     181     181      36      36      36       0
   -------------------------------------------------------

  ==> Integral Setup <==

  Using integral reordering PK algorithm.
  Sizing the integral batches needed.
  Building batch lookup table.
   Calculation information:
      Number of atoms:                  20
      Number of AO shells:              87
      Number of primitives:            253
      Number of atomic orbitals:       190
      Number of basis functions:       181

      Integral cutoff                 1.00e-12
      Number of threads:                 1

	Batch   1 pq = [       0,    9405] index = [             0,44231715] size =     44231715
	Batch   2 pq = [    9405,   13301] index = [      44231715,88464951] size =     44233236
	Batch   3 pq = [   13301,   16471] index = [      88464951,135655156] size =     47190205
  Task number: 13
  Buffer size: 11059200
  Buffer per thread: 2
  We computed 5654755 shell quartets total.
  Whereas there are 7328706 unique shell quartets.

  ==> DiskJK: Disk-Based J/K Matrices <==

    J tasked:                  Yes
    K tasked:                  Yes
    wK tasked:                  No
    Memory [MiB]:              375
    Schwarz Cutoff:          1E-12

    OpenMP threads:              1

  Minimum eigenvalue in the overlap matrix is 3.8618286569E-03.
  Using Symmetric Orthogonalization.

  SCF Guess: Superposition of Atomic Densities via on-the-fly atomic UHF.

  ==> Iterations <==

                        Total Energy        Delta E     RMS |[F,P]|

   @RHF iter SAD:  -469.55790439183397   -4.69558e+02   0.00000e+00
   @RHF iter   1:  -470.67231479139286   -1.11441e+00   4.29915e-03 DIIS
   @RHF iter   2:  -470.90226819426420   -2.29953e-01   2.28523e-03 DIIS
   @RHF iter   3:  -470.96405542222374   -6.17872e-02   3.95183e-04 DIIS
   @RHF iter   4:  -470.96734086320487   -3.28544e-03   1.37381e-04 DIIS
   @RHF iter   5:  -470.96773177941662   -3.90916e-04   2.55223e-05 DIIS
   @RHF iter   6:  -470.96775214420609   -2.03648e-05   1.15793e-05 DIIS
   @RHF iter   7:  -470.96775492449535   -2.78029e-06   3.38195e-06 DIIS
   @RHF iter   8:  -470.96775540365763   -4.79162e-07   1.60776e-06 DIIS
   @RHF iter   9:  -470.96775548590557   -8.22479e-08   5.30232e-07 DIIS
   @RHF iter  10:  -470.96775550231712   -1.64115e-08   2.03206e-07 DIIS
   @RHF iter  11:  -470.96775550447404   -2.15692e-09   5.19323e-08 DIIS
   @RHF iter  12:  -470.96775550459404   -1.19996e-10   1.90721e-08 DIIS
   @RHF iter  13:  -470.96775550460654   -1.25056e-11   6.19408e-09 DIIS
   @RHF iter  14:  -470.96775550460910   -2.55795e-12   1.72236e-09 DIIS
   @RHF iter  15:  -470.96775550460916   -5.68434e-14   8.19186e-10 DIIS
   @RHF iter  16:  -470.96775550460870    4.54747e-13   3.00029e-10 DIIS
   @RHF iter  17:  -470.96775550460745    1.25056e-12   1.19705e-10 DIIS
   @RHF iter  18:  -470.96775550460694    5.11591e-13   4.72778e-11 DIIS
  Energy and wave function converged.

  ==> Post-Iterations <==

    Orbital Energies [Eh]
    ---------------------

    Doubly Occupied:

       1A    -20.393847     2A    -20.385028     3A    -15.674217
       4A    -15.658563     5A    -15.640251     6A    -11.462389
       7A    -11.317180     8A    -11.240395     9A    -11.152230
      10A     -1.414368    11A     -1.273144    12A     -1.270564
      13A     -1.260922    14A     -1.161136    15A     -1.011250
      16A     -0.911366    17A     -0.901184    18A     -0.849053
      19A     -0.814405    20A     -0.735090    21A     -0.729181
      22A     -0.691635    23A     -0.656780    24A     -0.619601
      25A     -0.617966    26A     -0.596842    27A     -0.524095
      28A     -0.519412    29A     -0.516028    30A     -0.500187
      31A     -0.455932    32A     -0.444903    33A     -0.420478
      34A     -0.310456    35A     -0.297763    36A     -0.291229

    Virtual:

      37A      0.101556    38A      0.137165    39A      0.154349
      40A      0.176630    41A      0.195836    42A      0.209682
      43A      0.234226    44A      0.259194    45A      0.271562
      46A      0.282969    47A      0.301617    48A      0.326318
      49A      0.356160    50A      0.383600    51A      0.394918
      52A      0.453098    53A      0.463794    54A      0.477286
      55A      0.551799    56A      0.564761    57A      0.586491
      58A      0.618792    59A      0.644242    60A      0.656495
      61A      0.662945    62A      0.673883    63A      0.683042
      64A      0.694218    65A      0.716953    66A      0.772232
      67A      0.791861    68A      0.798727    69A      0.820307
      70A      0.832593    71A      0.861914    72A      0.866227
      73A      0.874759    74A      0.890676    75A      0.908732
      76A      0.917062    77A      0.931129    78A      0.937466
      79A      0.946556    80A      0.959143    81A      0.980224
      82A      0.999778    83A      1.020693    84A      1.031254
      85A      1.056176    86A      1.089220    87A      1.115201
      88A      1.143969    89A      1.181783    90A      1.223575
      91A      1.242582    92A      1.258706    93A      1.267727
      94A      1.280965    95A      1.297283    96A      1.314409
      97A      1.336976    98A      1.352293    99A      1.406782
     100A      1.419443   101A      1.453056   102A      1.467376
     103A      1.487201   104A      1.514630   105A      1.525734
     106A      1.570344   107A      1.602445   108A      1.611070
     109A      1.615241   110A      1.657639   111A      1.671282
     112A      1.732860   113A      1.745607   114A      1.748156
     115A      1.766235   116A      1.778870   117A      1.819359
     118A      1.837512   119A      1.850816   120A      1.866594
     121A      1.879541   122A      1.908611   123A      1.917213
     124A      1.931993   125A      1.941042   126A      1.975608
     127A      2.003290   128A      2.013307   129A      2.013580
     130A      2.034709   131A      2.109691   132A      2.119541
     133A      2.138206   134A      2.162523   135A      2.193137
     136A      2.209928   137A      2.242992   138A      2.266799
     139A      2.281218   140A      2.318773   141A      2.336279
     142A      2.374683   143A      2.381803   144A      2.423468
     145A      2.445874   146A      2.473958   147A      2.490434
     148A      2.509375   149A      2.548758   150A      2.550569
     151A      2.581469   152A      2.611190   153A      2.637441
     154A      2.668418   155A      2.706277   156A      2.715872
     157A      2.754323   158A      2.812598   159A      2.859120
     160A      2.863167   161A      2.870754   162A      2.892787
     163A      2.895075   164A      2.934759   165A      2.954109
     166A      3.049683   167A      3.118202   168A      3.144784
     169A      3.175694   170A      3.188772   171A      3.227707
     172A      3.228993   173A      3.247336   174A      3.496323
     175A      3.668081   176A      3.695347   177A      3.705879
     178A      3.760381   179A      3.927737   180A      3.960741
     181A      4.064474

    Final Occupation by Irrep:
              A
    DOCC [    36 ]

  @RHF Final Energy:  -470.96775550460694

   => Energetics <=

    Nuclear Repulsion Energy =            447.2600731548734529
    One-Electron Energy =               -1531.0175146493347711
    Two-Electron Energy =                 612.7896859898543198
    Total Energy =                       -470.9677555046069983

Computation Completed

Properties will be evaluated at   0.000000,   0.000000,   0.000000 [a0]

Properties computed using the SCF density matrix

  Nuclear Dipole Moment: [e a0]
     X:    -0.0319      Y:    -0.3243      Z:     6.9752

  Electronic Dipole Moment: [e a0]
     X:     3.6112      Y:    -3.5553      Z:    -3.0074

  Dipole Moment: [e a0]
     X:     3.5793      Y:    -3.8795      Z:     3.9678     Total:     6.6034

  Dipole Moment: [D]
     X:     9.0976      Y:    -9.8608      Z:    10.0851     Total:    16.7843

*** tstop() called on ds3 at Mon Apr 27 18:02:06 2020
Module time:
	user time   =      42.12 seconds =       0.70 minutes
	system time =      22.77 seconds =       0.38 minutes
	total time  =         63 seconds =       1.05 minutes
Total time:
	user time   =      42.12 seconds =       0.70 minutes
	system time =      22.77 seconds =       0.38 minutes
	total time  =         63 seconds =       1.05 minutes
                                     G D M A

                                 by Anthony Stone

                           version 2.2.06, 22 June 2011

               Distributed Multipoles from Gaussian wavefunctions

Starting at 18:2:6 on 27 Apr 2020

Using SCF density matrix from file ./SSI/SSI-228ARG-232GLU-2-dimer.test.18644.fchk

                         Distributed Multipole Analysis

Standard DMA

Positions and radii in angstrom
Multipole moments in atomic units, ea_0^k for rank k

C          x =  0.308715  y =  0.121852  z =  2.352256 angstrom
           Maximum rank =  0   Radius =  0.650 angstrom
                   Q00  =  -0.097503

C          x =  1.437715  y = -1.529148  z =  0.831256 angstrom
           Maximum rank =  0   Radius =  0.650 angstrom
                   Q00  =   1.066084

N          x =  0.714715  y = -0.434148  z =  1.047256 angstrom
           Maximum rank =  0   Radius =  0.650 angstrom
                   Q00  =  -0.487728

N          x =  1.909715  y = -2.263148  z =  1.828256 angstrom
           Maximum rank =  0   Radius =  0.650 angstrom
                   Q00  =  -0.580634

N          x =  1.689715  y = -1.890148  z = -0.414744 angstrom
           Maximum rank =  0   Radius =  0.650 angstrom
                   Q00  =  -0.588847

H          x =  0.432715  y =  0.102852  z =  0.232256 angstrom
           Maximum rank =  0   Radius =  0.325 angstrom
                   Q00  =   0.276195

H          x =  0.944715  y =  0.974852  z =  2.597256 angstrom
           Maximum rank =  0   Radius =  0.325 angstrom
                   Q00  =   0.126225

H          x =  0.426715  y = -0.622148  z =  3.141256 angstrom
           Maximum rank =  0   Radius =  0.325 angstrom
                   Q00  =   0.071744

H          x =  1.770715  y = -1.962148  z =  2.777256 angstrom
           Maximum rank =  0   Radius =  0.325 angstrom
                   Q00  =   0.252570

H          x =  2.464715  y = -3.083148  z =  1.639256 angstrom
           Maximum rank =  0   Radius =  0.325 angstrom
                   Q00  =   0.245701

H          x =  1.329715  y = -1.341148  z = -1.179744 angstrom
           Maximum rank =  0   Radius =  0.325 angstrom
                   Q00  =   0.286091

H          x =  2.240715  y = -2.712148  z = -0.606744 angstrom
           Maximum rank =  0   Radius =  0.325 angstrom
                   Q00  =   0.238737

H          x = -0.739855  y =  0.453572  z =  2.330466 angstrom
           Maximum rank =  0   Radius =  0.325 angstrom
                   Q00  =   0.159684

C          x = -2.673285  y =  2.352852  z = -1.221744 angstrom
           Maximum rank =  0   Radius =  0.650 angstrom
                   Q00  =  -0.272896

C          x = -1.469285  y =  1.458852  z = -1.444744 angstrom
           Maximum rank =  0   Radius =  0.650 angstrom
                   Q00  =   0.927504

O          x = -0.427285  y =  1.783852  z = -0.818744 angstrom
           Maximum rank =  0   Radius =  0.650 angstrom
                   Q00  =  -0.954837

O          x = -1.551285  y =  0.451852  z = -2.193744 angstrom
           Maximum rank =  0   Radius =  0.650 angstrom
                   Q00  =  -0.904792

H          x = -2.448285  y =  3.337852  z = -1.639744 angstrom
           Maximum rank =  0   Radius =  0.325 angstrom
                   Q00  =   0.096011

H          x = -2.825285  y =  2.485852  z = -0.148744 angstrom
           Maximum rank =  0   Radius =  0.325 angstrom
                   Q00  =   0.069648

H          x = -3.607105  y =  1.994192  z = -1.679274 angstrom
           Maximum rank =  0   Radius =  0.325 angstrom
                   Q00  =   0.071044

Total multipoles referred to origin at
           x =   0.000000,  y =    0.000000,  z =    0.000000 angstrom
                   Q00  =  -0.000000

Finished at 18:2:6 on 27 Apr 2020

  DMA results are available in the Python driver through the
	  variable('DMA DISTRIBUTED MULTIPOLES')
  and
	  variable('DMA TOTAL MULTIPOLES')
  commands.

    Psi4 stopped on: Monday, 27 April 2020 06:02PM
    Psi4 wall time for execution: 0:01:02.86

*** Psi4 exiting successfully. Buy a developer a beer!
