                               Psi4 1.3.2 release

  ==> Input File <==

--------------------------------------------------------------------------
import numpy as np
set {scf_type pk
basis cc-pvdz
d_convergence 10
gdma_switch   0
gdma_limit    0
gdma_origin   [ 0.0,  0.0,  0.0 ]
}
molecule test {
    units Angstrom
    0 1
    --
    0 1
    C                1.372976789015399    -0.966865432797758    -0.690514858628289
    C                1.554976789015399    -2.221865432797758    -1.516514858628289
    O                2.489976789015399    -0.741865432797758     0.149485141371711
    H                1.205976789015399    -0.105865432797758    -1.339514858628289
    H                0.503976789015399    -1.108865432797758    -0.053514858628289
    H                2.329976789015399    -2.049865432797758    -2.264514858628289
    H                3.074976789015399    -0.084865432797758    -0.309514858628289
    H                0.599986789015399    -2.455290432797759    -2.009974858628290
    H                1.864366789015399    -3.025123432797758    -0.831634858628289
    C               -1.452023210984601     1.257134567202242     0.430485141371711
    C               -2.804023210984601     0.793134567202242    -0.108514858628289
    C               -1.481023210984601     1.965134567202242     1.771485141371711
    H               -0.819023210984601     0.383134567202242     0.537485141371711
    H               -0.995023210984601     1.914134567202242    -0.309514858628289
    H               -3.438023210984601     1.669134567202242    -0.251514858628289
    H               -1.969023210984601     1.336134567202242     2.515485141371711
    H               -3.270183210984601     0.087864567202242     0.595245141371711
    H               -2.673613210984601     0.312804567202242    -1.089464858628289
    H               -0.448893210984601     2.146384567202241     2.105935141371710
    H               -2.035553210984601     2.911174567202241     1.684885141371710

}
e, wfn = energy('scf', return_wfn=True)
gdma(wfn)
dmavals = variable('DMA DISTRIBUTED MULTIPOLES')
charges = np.array(dmavals)
print(charges)
np.save('SSI-018SER-024LEU-1-dimer.npy', np.array(charges))--------------------------------------------------------------------------

*** tstart() called on ds3
*** at Mon Apr 27 15:01:00 2020

   => Loading Basis Set <=

    Name: CC-PVDZ
    Role: ORBITAL
    Keyword: BASIS
    atoms 1-2, 10-12 entry C          line   138 file /theoryfs2/ds/metcalf/miniconda2/envs/tf2gpu/share/psi4/basis/cc-pvdz.gbs
    atoms 3          entry O          line   198 file /theoryfs2/ds/metcalf/miniconda2/envs/tf2gpu/share/psi4/basis/cc-pvdz.gbs
    atoms 4-9, 13-20 entry H          line    22 file /theoryfs2/ds/metcalf/miniconda2/envs/tf2gpu/share/psi4/basis/cc-pvdz.gbs

         ---------------------------------------------------------
                                   SCF
               by Justin Turney, Rob Parrish, Andy Simmonett
                          and Daniel G. A. Smith
                              RHF Reference
                        1 Threads,    500 MiB Core
         ---------------------------------------------------------

  ==> Geometry <==

    Molecular point group: c1
    Full point group: C1

    Geometry (in Angstrom), charge = 0, multiplicity = 1:

       Center              X                  Y                   Z               Mass
    ------------   -----------------  -----------------  -----------------  -----------------
         C            1.372976789015    -0.966865432798    -0.690514858628    12.000000000000
         C            1.554976789015    -2.221865432798    -1.516514858628    12.000000000000
         O            2.489976789015    -0.741865432798     0.149485141372    15.994914619570
         H            1.205976789015    -0.105865432798    -1.339514858628     1.007825032230
         H            0.503976789015    -1.108865432798    -0.053514858628     1.007825032230
         H            2.329976789015    -2.049865432798    -2.264514858628     1.007825032230
         H            3.074976789015    -0.084865432798    -0.309514858628     1.007825032230
         H            0.599986789015    -2.455290432798    -2.009974858628     1.007825032230
         H            1.864366789015    -3.025123432798    -0.831634858628     1.007825032230
         C           -1.452023210985     1.257134567202     0.430485141372    12.000000000000
         C           -2.804023210985     0.793134567202    -0.108514858628    12.000000000000
         C           -1.481023210985     1.965134567202     1.771485141372    12.000000000000
         H           -0.819023210985     0.383134567202     0.537485141372     1.007825032230
         H           -0.995023210985     1.914134567202    -0.309514858628     1.007825032230
         H           -3.438023210985     1.669134567202    -0.251514858628     1.007825032230
         H           -1.969023210985     1.336134567202     2.515485141372     1.007825032230
         H           -3.270183210985     0.087864567202     0.595245141372     1.007825032230
         H           -2.673613210985     0.312804567202    -1.089464858628     1.007825032230
         H           -0.448893210985     2.146384567202     2.105935141372     1.007825032230
         H           -2.035553210985     2.911174567202     1.684885141372     1.007825032230

  Running in c1 symmetry.

  Rotational constants: A =      0.14676  B =      0.03070  C =      0.02625 [cm^-1]
  Rotational constants: A =   4399.77517  B =    920.37028  C =    786.85761 [MHz]
  Nuclear repulsion =  237.353878943253790

  Charge       = 0
  Multiplicity = 1
  Electrons    = 52
  Nalpha       = 26
  Nbeta        = 26

  ==> Algorithm <==

  SCF Algorithm Type is PK.
  DIIS enabled.
  MOM disabled.
  Fractional occupation disabled.
  Guess Type is SAD.
  Energy threshold   = 1.00e-06
  Density threshold  = 1.00e-10
  Integral threshold = 0.00e+00

  ==> Primary Basis <==

  Basis Set: CC-PVDZ
    Blend: CC-PVDZ
    Number of shells: 78
    Number of basis function: 154
    Number of Cartesian functions: 160
    Spherical Harmonics?: true
    Max angular momentum: 2

  ==> Pre-Iterations <==

   -------------------------------------------------------
    Irrep   Nso     Nmo     Nalpha   Nbeta   Ndocc  Nsocc
   -------------------------------------------------------
     A        154     154       0       0       0       0
   -------------------------------------------------------
    Total     154     154      26      26      26       0
   -------------------------------------------------------

  ==> Integral Setup <==

  Using integral reordering PK algorithm.
  Sizing the integral batches needed.
  Building batch lookup table.
   Calculation information:
      Number of atoms:                  20
      Number of AO shells:              78
      Number of primitives:            202
      Number of atomic orbitals:       160
      Number of basis functions:       154

      Integral cutoff                 1.00e-12
      Number of threads:                 1

	Batch   1 pq = [       0,    9405] index = [             0,44231715] size =     44231715
	Batch   2 pq = [    9405,   11935] index = [      44231715,71228080] size =     26996365
  Task number: 7
  Buffer size: 11059200
  Buffer per thread: 2
  We computed 3723677 shell quartets total.
  Whereas there are 4747821 unique shell quartets.

  ==> DiskJK: Disk-Based J/K Matrices <==

    J tasked:                  Yes
    K tasked:                  Yes
    wK tasked:                  No
    Memory [MiB]:              375
    Schwarz Cutoff:          1E-12

    OpenMP threads:              1

  Minimum eigenvalue in the overlap matrix is 4.9841906885E-03.
  Using Symmetric Orthogonalization.

  SCF Guess: Superposition of Atomic Densities via on-the-fly atomic UHF.

  ==> Iterations <==

                        Total Energy        Delta E     RMS |[F,P]|

   @RHF iter SAD:  -271.11753164948237   -2.71118e+02   0.00000e+00
   @RHF iter   1:  -272.13949393610108   -1.02196e+00   3.83825e-03 DIIS
   @RHF iter   2:  -272.31838908599525   -1.78895e-01   1.78983e-03 DIIS
   @RHF iter   3:  -272.35302782514134   -3.46387e-02   3.54199e-04 DIIS
   @RHF iter   4:  -272.35556541517366   -2.53759e-03   1.12777e-04 DIIS
   @RHF iter   5:  -272.35572932618459   -1.63911e-04   2.30887e-05 DIIS
   @RHF iter   6:  -272.35573926586852   -9.93968e-06   4.95302e-06 DIIS
   @RHF iter   7:  -272.35573982355834   -5.57690e-07   1.35135e-06 DIIS
   @RHF iter   8:  -272.35573986431615   -4.07578e-08   4.20298e-07 DIIS
   @RHF iter   9:  -272.35573986970240   -5.38625e-09   1.02062e-07 DIIS
   @RHF iter  10:  -272.35573987008200   -3.79600e-10   2.60626e-08 DIIS
   @RHF iter  11:  -272.35573987010451   -2.25100e-11   7.90018e-09 DIIS
   @RHF iter  12:  -272.35573987010741   -2.89901e-12   2.74396e-09 DIIS
   @RHF iter  13:  -272.35573987010480    2.61480e-12   7.26032e-10 DIIS
   @RHF iter  14:  -272.35573987010537   -5.68434e-13   1.99689e-10 DIIS
   @RHF iter  15:  -272.35573987010639   -1.02318e-12   8.03755e-11 DIIS
  Energy and wave function converged.

  ==> Post-Iterations <==

    Orbital Energies [Eh]
    ---------------------

    Doubly Occupied:

       1A    -20.550430     2A    -11.271765     3A    -11.218585
       4A    -11.218465     5A    -11.216708     6A    -11.215814
       7A     -1.347636     8A     -1.054902     9A     -1.009772
      10A     -0.926117    11A     -0.832751    12A     -0.793685
      13A     -0.689984    14A     -0.632479    15A     -0.623182
      16A     -0.593771    17A     -0.575119    18A     -0.549319
      19A     -0.547071    20A     -0.534672    21A     -0.520678
      22A     -0.476798    23A     -0.474600    24A     -0.467093
      25A     -0.463302    26A     -0.429064

    Virtual:

      27A      0.165510    28A      0.185269    29A      0.208860
      30A      0.220085    31A      0.231875    32A      0.236081
      33A      0.257373    34A      0.258300    35A      0.271283
      36A      0.279468    37A      0.291748    38A      0.299483
      39A      0.303488    40A      0.350525    41A      0.383826
      42A      0.386873    43A      0.404336    44A      0.433889
      45A      0.569517    46A      0.582219    47A      0.607444
      48A      0.613770    49A      0.616343    50A      0.620278
      51A      0.671874    52A      0.730174    53A      0.733888
      54A      0.763114    55A      0.790263    56A      0.802485
      57A      0.815821    58A      0.846724    59A      0.871018
      60A      0.882537    61A      0.886181    62A      0.887626
      63A      0.894047    64A      0.900308    65A      0.904139
      66A      0.906013    67A      0.908332    68A      0.916452
      69A      0.922810    70A      0.952453    71A      0.964086
      72A      0.966825    73A      1.035312    74A      1.120627
      75A      1.127250    76A      1.135948    77A      1.154508
      78A      1.182200    79A      1.253694    80A      1.274483
      81A      1.338705    82A      1.341095    83A      1.383715
      84A      1.476331    85A      1.486537    86A      1.503936
      87A      1.514233    88A      1.549537    89A      1.610253
      90A      1.637147    91A      1.656101    92A      1.675908
      93A      1.678543    94A      1.679742    95A      1.693018
      96A      1.729268    97A      1.839036    98A      1.852910
      99A      1.871046   100A      1.876956   101A      1.885390
     102A      1.901396   103A      1.916770   104A      1.919982
     105A      1.936058   106A      1.940702   107A      1.962925
     108A      1.969560   109A      1.975211   110A      1.990821
     111A      1.992677   112A      1.999915   113A      2.014632
     114A      2.025092   115A      2.037609   116A      2.052401
     117A      2.094724   118A      2.129787   119A      2.164439
     120A      2.184787   121A      2.245931   122A      2.284214
     123A      2.290532   124A      2.302457   125A      2.328038
     126A      2.339286   127A      2.364256   128A      2.427128
     129A      2.498441   130A      2.512239   131A      2.532836
     132A      2.542678   133A      2.559954   134A      2.590444
     135A      2.618249   136A      2.626088   137A      2.751147
     138A      2.752901   139A      2.756756   140A      2.770944
     141A      2.782088   142A      2.794073   143A      2.804148
     144A      2.884768   145A      2.922553   146A      2.936029
     147A      2.968097   148A      2.972683   149A      3.092562
     150A      3.314244   151A      3.397492   152A      3.465846
     153A      3.627493   154A      4.062133

    Final Occupation by Irrep:
              A
    DOCC [    26 ]

  @RHF Final Energy:  -272.35573987010639

   => Energetics <=

    Nuclear Repulsion Energy =            237.3538789432537897
    One-Electron Energy =                -838.9517125342038071
    Two-Electron Energy =                 329.2420937208436271
    Total Energy =                       -272.3557398701063903

Computation Completed

Properties will be evaluated at   0.000000,   0.000000,   0.000000 [a0]

Properties computed using the SCF density matrix

  Nuclear Dipole Moment: [e a0]
     X:    -5.6785      Y:     1.8066      Z:    -0.9556

  Electronic Dipole Moment: [e a0]
     X:     5.6385      Y:    -1.5001      Z:     0.3506

  Dipole Moment: [e a0]
     X:    -0.0401      Y:     0.3065      Z:    -0.6050     Total:     0.6794

  Dipole Moment: [D]
     X:    -0.1018      Y:     0.7791      Z:    -1.5377     Total:     1.7268

*** tstop() called on ds3 at Mon Apr 27 15:01:27 2020
Module time:
	user time   =      19.00 seconds =       0.32 minutes
	system time =       9.30 seconds =       0.15 minutes
	total time  =         27 seconds =       0.45 minutes
Total time:
	user time   =      19.00 seconds =       0.32 minutes
	system time =       9.30 seconds =       0.15 minutes
	total time  =         27 seconds =       0.45 minutes
                                     G D M A

                                 by Anthony Stone

                           version 2.2.06, 22 June 2011

               Distributed Multipoles from Gaussian wavefunctions

Starting at 15:1:27 on 27 Apr 2020

Using SCF density matrix from file ./SSI/SSI-018SER-024LEU-1-dimer.test.15594.fchk

                         Distributed Multipole Analysis

Standard DMA

Positions and radii in angstrom
Multipole moments in atomic units, ea_0^k for rank k

C          x =  1.372977  y = -0.966865  z = -0.690515 angstrom
           Maximum rank =  0   Radius =  0.650 angstrom
                   Q00  =   0.131741

C          x =  1.554977  y = -2.221865  z = -1.516515 angstrom
           Maximum rank =  0   Radius =  0.650 angstrom
                   Q00  =  -0.258051

O          x =  2.489977  y = -0.741865  z =  0.149485 angstrom
           Maximum rank =  0   Radius =  0.650 angstrom
                   Q00  =  -0.616555

H          x =  1.205977  y = -0.105865  z = -1.339515 angstrom
           Maximum rank =  0   Radius =  0.325 angstrom
                   Q00  =   0.033967

H          x =  0.503977  y = -1.108865  z = -0.053515 angstrom
           Maximum rank =  0   Radius =  0.325 angstrom
                   Q00  =   0.067021

H          x =  2.329977  y = -2.049865  z = -2.264515 angstrom
           Maximum rank =  0   Radius =  0.325 angstrom
                   Q00  =   0.076352

H          x =  3.074977  y = -0.084865  z = -0.309515 angstrom
           Maximum rank =  0   Radius =  0.325 angstrom
                   Q00  =   0.398702

H          x =  0.599987  y = -2.455290  z = -2.009975 angstrom
           Maximum rank =  0   Radius =  0.325 angstrom
                   Q00  =   0.077746

H          x =  1.864367  y = -3.025123  z = -0.831635 angstrom
           Maximum rank =  0   Radius =  0.325 angstrom
                   Q00  =   0.094093

C          x = -1.452023  y =  1.257135  z =  0.430485 angstrom
           Maximum rank =  0   Radius =  0.650 angstrom
                   Q00  =  -0.069794

C          x = -2.804023  y =  0.793135  z = -0.108515 angstrom
           Maximum rank =  0   Radius =  0.650 angstrom
                   Q00  =  -0.247602

C          x = -1.481023  y =  1.965135  z =  1.771485 angstrom
           Maximum rank =  0   Radius =  0.650 angstrom
                   Q00  =  -0.241688

H          x = -0.819023  y =  0.383135  z =  0.537485 angstrom
           Maximum rank =  0   Radius =  0.325 angstrom
                   Q00  =   0.041908

H          x = -0.995023  y =  1.914135  z = -0.309515 angstrom
           Maximum rank =  0   Radius =  0.325 angstrom
                   Q00  =   0.040378

H          x = -3.438023  y =  1.669135  z = -0.251515 angstrom
           Maximum rank =  0   Radius =  0.325 angstrom
                   Q00  =   0.076256

H          x = -1.969023  y =  1.336135  z =  2.515485 angstrom
           Maximum rank =  0   Radius =  0.325 angstrom
                   Q00  =   0.076696

H          x = -3.270183  y =  0.087865  z =  0.595245 angstrom
           Maximum rank =  0   Radius =  0.325 angstrom
                   Q00  =   0.077618

H          x = -2.673613  y =  0.312805  z = -1.089465 angstrom
           Maximum rank =  0   Radius =  0.325 angstrom
                   Q00  =   0.081248

H          x = -0.448893  y =  2.146385  z =  2.105935 angstrom
           Maximum rank =  0   Radius =  0.325 angstrom
                   Q00  =   0.086524

H          x = -2.035553  y =  2.911175  z =  1.684885 angstrom
           Maximum rank =  0   Radius =  0.325 angstrom
                   Q00  =   0.073439

Total multipoles referred to origin at
           x =   0.000000,  y =    0.000000,  z =    0.000000 angstrom
                   Q00  =  -0.000000

Finished at 15:1:27 on 27 Apr 2020

  DMA results are available in the Python driver through the
	  variable('DMA DISTRIBUTED MULTIPOLES')
  and
	  variable('DMA TOTAL MULTIPOLES')
  commands.

    Psi4 stopped on: Monday, 27 April 2020 03:01PM
    Psi4 wall time for execution: 0:00:27.92

*** Psi4 exiting successfully. Buy a developer a beer!
