                               Psi4 1.3.2 release

  ==> Input File <==

--------------------------------------------------------------------------
import numpy as np
set {scf_type pk
basis cc-pvdz
d_convergence 10
gdma_switch   0
gdma_limit    0
gdma_origin   [ 0.0,  0.0,  0.0 ]
}
molecule test {
    units Angstrom
    0 1
    --
    0 1
    C                0.989476222459293     3.037351323050958     0.932594352188407
    C               -1.874523777540707     1.188351323050958    -0.721405647811593
    C               -0.751523777540707     1.986351323050959    -0.545405647811593
    C               -2.470523777540707     0.577351323050958     0.363594352188407
    C               -0.213523777540707     2.167351323050958     0.728594352188407
    C               -1.946523777540707     0.764351323050959     1.635594352188408
    C               -0.825523777540707     1.566351323050959     1.818594352188407
    H               -2.280523777540707     1.035351323050959    -1.710405647811593
    H               -0.291523777540707     2.458351323050959    -1.402405647811593
    H               -3.338523777540707    -0.051648676949041     0.222594352188407
    H               -2.410523777540707     0.287351323050959     2.487594352188407
    H                1.718476222459293     2.829351323050959     0.150594352188407
    H                1.449476222459293     2.766351323050959     1.884594352188408
    H               -0.429523777540707     1.714351323050959     2.811594352188408
    H                0.752792222459293     4.111421323050958     0.951294352188407
    C                0.859476222459293    -1.381648676949041    -0.029405647811593
    C                2.826476222459293    -2.775648676949042    -1.404405647811593
    S                1.053476222459293    -2.788648676949042    -1.091405647811593
    H               -0.200523777540707    -1.240648676949042     0.181594352188407
    H                1.382476222459293    -1.533648676949042     0.914594352188407
    H                1.234476222459293    -0.486648676949041    -0.524405647811593
    H                3.101476222459293    -1.872648676949042    -1.950405647811593
    H                3.073476222459293    -3.639648676949041    -2.019405647811593
    H                3.381351222459293    -2.808633676949042    -0.455185647811592

}
e, wfn = energy('scf', return_wfn=True)
gdma(wfn)
dmavals = variable('DMA DISTRIBUTED MULTIPOLES')
charges = np.array(dmavals)
print(charges)
np.save('SSI-052PHE-141MET-1-dimer.npy', np.array(charges))--------------------------------------------------------------------------

*** tstart() called on ds3
*** at Sun Apr 26 17:04:39 2020

   => Loading Basis Set <=

    Name: CC-PVDZ
    Role: ORBITAL
    Keyword: BASIS
    atoms 1-7, 16-17  entry C          line   138 file /theoryfs2/ds/metcalf/miniconda2/envs/tf2gpu/share/psi4/basis/cc-pvdz.gbs
    atoms 8-15, 19-24 entry H          line    22 file /theoryfs2/ds/metcalf/miniconda2/envs/tf2gpu/share/psi4/basis/cc-pvdz.gbs
    atoms 18          entry S          line   598 file /theoryfs2/ds/metcalf/miniconda2/envs/tf2gpu/share/psi4/basis/cc-pvdz.gbs

         ---------------------------------------------------------
                                   SCF
               by Justin Turney, Rob Parrish, Andy Simmonett
                          and Daniel G. A. Smith
                              RHF Reference
                        1 Threads,    500 MiB Core
         ---------------------------------------------------------

  ==> Geometry <==

    Molecular point group: c1
    Full point group: C1

    Geometry (in Angstrom), charge = 0, multiplicity = 1:

       Center              X                  Y                   Z               Mass
    ------------   -----------------  -----------------  -----------------  -----------------
         C            0.989476222459     3.037351323051     0.932594352188    12.000000000000
         C           -1.874523777541     1.188351323051    -0.721405647812    12.000000000000
         C           -0.751523777541     1.986351323051    -0.545405647812    12.000000000000
         C           -2.470523777541     0.577351323051     0.363594352188    12.000000000000
         C           -0.213523777541     2.167351323051     0.728594352188    12.000000000000
         C           -1.946523777541     0.764351323051     1.635594352188    12.000000000000
         C           -0.825523777541     1.566351323051     1.818594352188    12.000000000000
         H           -2.280523777541     1.035351323051    -1.710405647812     1.007825032230
         H           -0.291523777541     2.458351323051    -1.402405647812     1.007825032230
         H           -3.338523777541    -0.051648676949     0.222594352188     1.007825032230
         H           -2.410523777541     0.287351323051     2.487594352188     1.007825032230
         H            1.718476222459     2.829351323051     0.150594352188     1.007825032230
         H            1.449476222459     2.766351323051     1.884594352188     1.007825032230
         H           -0.429523777541     1.714351323051     2.811594352188     1.007825032230
         H            0.752792222459     4.111421323051     0.951294352188     1.007825032230
         C            0.859476222459    -1.381648676949    -0.029405647812    12.000000000000
         C            2.826476222459    -2.775648676949    -1.404405647812    12.000000000000
         S            1.053476222459    -2.788648676949    -1.091405647812    31.972071174400
         H           -0.200523777541    -1.240648676949     0.181594352188     1.007825032230
         H            1.382476222459    -1.533648676949     0.914594352188     1.007825032230
         H            1.234476222459    -0.486648676949    -0.524405647812     1.007825032230
         H            3.101476222459    -1.872648676949    -1.950405647812     1.007825032230
         H            3.073476222459    -3.639648676949    -2.019405647812     1.007825032230
         H            3.381351222459    -2.808633676949    -0.455185647812     1.007825032230

  Running in c1 symmetry.

  Rotational constants: A =      0.05363  B =      0.01572  C =      0.01405 [cm^-1]
  Rotational constants: A =   1607.87464  B =    471.18720  C =    421.13818 [MHz]
  Nuclear repulsion =  557.424024582840616

  Charge       = 0
  Multiplicity = 1
  Electrons    = 84
  Nalpha       = 42
  Nbeta        = 42

  ==> Algorithm <==

  SCF Algorithm Type is PK.
  DIIS enabled.
  MOM disabled.
  Fractional occupation disabled.
  Guess Type is SAD.
  Energy threshold   = 1.00e-06
  Density threshold  = 1.00e-10
  Integral threshold = 0.00e+00

  ==> Primary Basis <==

  Basis Set: CC-PVDZ
    Blend: CC-PVDZ
    Number of shells: 104
    Number of basis function: 214
    Number of Cartesian functions: 224
    Spherical Harmonics?: true
    Max angular momentum: 2

  ==> Pre-Iterations <==

   -------------------------------------------------------
    Irrep   Nso     Nmo     Nalpha   Nbeta   Ndocc  Nsocc
   -------------------------------------------------------
     A        214     214       0       0       0       0
   -------------------------------------------------------
    Total     214     214      42      42      42       0
   -------------------------------------------------------

  ==> Integral Setup <==

  Using integral reordering PK algorithm.
  Sizing the integral batches needed.
  Building batch lookup table.
   Calculation information:
      Number of atoms:                  24
      Number of AO shells:             104
      Number of primitives:            318
      Number of atomic orbitals:       224
      Number of basis functions:       214

      Integral cutoff                 1.00e-12
      Number of threads:                 1

	Batch   1 pq = [       0,    9405] index = [             0,44231715] size =     44231715
	Batch   2 pq = [    9405,   13301] index = [      44231715,88464951] size =     44233236
	Batch   3 pq = [   13301,   16290] index = [      88464951,132690195] size =     44225244
	Batch   4 pq = [   16290,   18810] index = [     132690195,176917455] size =     44227260
	Batch   5 pq = [   18810,   21030] index = [     176917455,221140965] size =     44223510
	Batch   6 pq = [   21030,   23005] index = [     221140965,264626515] size =     43485550
  Task number: 24
  Buffer size: 11059200
  Buffer per thread: 2
  We computed 13437525 shell quartets total.
  Whereas there are 14908530 unique shell quartets.

  ==> DiskJK: Disk-Based J/K Matrices <==

    J tasked:                  Yes
    K tasked:                  Yes
    wK tasked:                  No
    Memory [MiB]:              375
    Schwarz Cutoff:          1E-12

    OpenMP threads:              1

  Minimum eigenvalue in the overlap matrix is 3.0537235586E-04.
  Using Symmetric Orthogonalization.

  SCF Guess: Superposition of Atomic Densities via on-the-fly atomic UHF.

  ==> Iterations <==

                        Total Energy        Delta E     RMS |[F,P]|

   @RHF iter SAD:  -745.52009194829429   -7.45520e+02   0.00000e+00
   @RHF iter   1:  -746.30576521232842   -7.85673e-01   2.51995e-03 DIIS
   @RHF iter   2:  -746.48931191831969   -1.83547e-01   9.91786e-04 DIIS
   @RHF iter   3:  -746.51445166916346   -2.51398e-02   2.47043e-04 DIIS
   @RHF iter   4:  -746.51697807181631   -2.52640e-03   5.47266e-05 DIIS
   @RHF iter   5:  -746.51707237971868   -9.43079e-05   1.72543e-05 DIIS
   @RHF iter   6:  -746.51708092095623   -8.54124e-06   4.86865e-06 DIIS
   @RHF iter   7:  -746.51708175187161   -8.30915e-07   1.25911e-06 DIIS
   @RHF iter   8:  -746.51708181501374   -6.31421e-08   3.18009e-07 DIIS
   @RHF iter   9:  -746.51708182248251   -7.46877e-09   1.11759e-07 DIIS
   @RHF iter  10:  -746.51708182363132   -1.14881e-09   4.90840e-08 DIIS
   @RHF iter  11:  -746.51708182392258   -2.91266e-10   2.09785e-08 DIIS
   @RHF iter  12:  -746.51708182399727   -7.46923e-11   8.04426e-09 DIIS
   @RHF iter  13:  -746.51708182400978   -1.25056e-11   3.39573e-09 DIIS
   @RHF iter  14:  -746.51708182401103   -1.25056e-12   9.29661e-10 DIIS
   @RHF iter  15:  -746.51708182400898    2.04636e-12   2.83315e-10 DIIS
   @RHF iter  16:  -746.51708182401057   -1.59162e-12   9.72017e-11 DIIS
  Energy and wave function converged.

  ==> Post-Iterations <==

    Orbital Energies [Eh]
    ---------------------

    Doubly Occupied:

       1A    -91.924935     2A    -11.250854     3A    -11.243247
       4A    -11.240229     5A    -11.238620     6A    -11.237228
       7A    -11.233543     8A    -11.233209     9A    -11.232811
      10A    -11.232150    11A     -8.929449    12A     -6.611617
      13A     -6.609958    14A     -6.607726    15A     -1.159845
      16A     -1.057611    17A     -1.050890    18A     -1.016841
      19A     -0.944935    20A     -0.935652    21A     -0.830091
      22A     -0.799144    23A     -0.794431    24A     -0.695913
      25A     -0.637021    26A     -0.632965    27A     -0.595398
      28A     -0.593990    29A     -0.587074    30A     -0.582326
      31A     -0.567112    32A     -0.566847    33A     -0.554357
      34A     -0.537963    35A     -0.501364    36A     -0.488460
      37A     -0.485613    38A     -0.481581    39A     -0.417373
      40A     -0.337575    41A     -0.327688    42A     -0.321237

    Virtual:

      43A      0.130712    44A      0.138474    45A      0.170594
      46A      0.188157    47A      0.196037    48A      0.210826
      49A      0.214003    50A      0.239223    51A      0.243191
      52A      0.249471    53A      0.255069    54A      0.261157
      55A      0.264909    56A      0.276728    57A      0.289595
      58A      0.294855    59A      0.300524    60A      0.317985
      61A      0.364417    62A      0.373958    63A      0.450115
      64A      0.460985    65A      0.474755    66A      0.491737
      67A      0.512736    68A      0.556767    69A      0.559479
      70A      0.566848    71A      0.595326    72A      0.610788
      73A      0.631764    74A      0.650919    75A      0.679662
      76A      0.687671    77A      0.694279    78A      0.705615
      79A      0.730304    80A      0.736040    81A      0.736353
      82A      0.741264    83A      0.753236    84A      0.759484
      85A      0.765288    86A      0.769646    87A      0.780666
      88A      0.812804    89A      0.823511    90A      0.834913
      91A      0.846856    92A      0.853107    93A      0.859530
      94A      0.862281    95A      0.873795    96A      0.877280
      97A      0.887687    98A      0.893088    99A      0.895271
     100A      0.897878   101A      0.908364   102A      0.913076
     103A      0.923022   104A      0.926848   105A      0.935600
     106A      0.946953   107A      0.967748   108A      0.979078
     109A      0.993168   110A      1.001685   111A      1.040599
     112A      1.058254   113A      1.123054   114A      1.144763
     115A      1.152354   116A      1.155493   117A      1.187499
     118A      1.213392   119A      1.234244   120A      1.241852
     121A      1.252617   122A      1.261235   123A      1.290269
     124A      1.299004   125A      1.311104   126A      1.316766
     127A      1.319456   128A      1.323500   129A      1.328464
     130A      1.380988   131A      1.408598   132A      1.412770
     133A      1.462951   134A      1.500433   135A      1.512388
     136A      1.522828   137A      1.557554   138A      1.599823
     139A      1.668444   140A      1.674186   141A      1.682264
     142A      1.694869   143A      1.732177   144A      1.750631
     145A      1.756636   146A      1.787956   147A      1.817270
     148A      1.859352   149A      1.879218   150A      1.884122
     151A      1.887533   152A      1.902189   153A      1.904433
     154A      1.915472   155A      1.917602   156A      1.921286
     157A      1.939618   158A      1.940717   159A      1.944822
     160A      1.956336   161A      1.967099   162A      1.981616
     163A      1.984988   164A      1.990628   165A      2.009994
     166A      2.027336   167A      2.044980   168A      2.054817
     169A      2.073824   170A      2.088377   171A      2.097526
     172A      2.121881   173A      2.140461   174A      2.158995
     175A      2.170339   176A      2.182784   177A      2.187794
     178A      2.223202   179A      2.248485   180A      2.261044
     181A      2.275848   182A      2.296781   183A      2.301605
     184A      2.318345   185A      2.323095   186A      2.407666
     187A      2.450702   188A      2.457898   189A      2.463658
     190A      2.468952   191A      2.477117   192A      2.505539
     193A      2.543610   194A      2.624785   195A      2.736826
     196A      2.741767   197A      2.756861   198A      2.761800
     199A      2.770315   200A      2.773403   201A      2.789122
     202A      2.807146   203A      2.808732   204A      2.816931
     205A      2.848195   206A      2.866257   207A      2.877748
     208A      2.995395   209A      3.017819   210A      3.029448
     211A      3.156917   212A      3.206825   213A      3.304187
     214A      3.983858

    Final Occupation by Irrep:
              A
    DOCC [    42 ]

  @RHF Final Energy:  -746.51708182401057

   => Energetics <=

    Nuclear Repulsion Energy =            557.4240245828406159
    One-Electron Energy =               -2127.2284724179753539
    Two-Electron Energy =                 823.2873660111242771
    Total Energy =                       -746.5170818240105746

Computation Completed

Properties will be evaluated at   0.000000,   0.000000,   0.000000 [a0]

Properties computed using the SCF density matrix

  Nuclear Dipole Moment: [e a0]
     X:     6.7240      Y:     3.2722      Z:     1.4170

  Electronic Dipole Moment: [e a0]
     X:    -6.2925      Y:    -2.6636      Z:    -1.1549

  Dipole Moment: [e a0]
     X:     0.4315      Y:     0.6087      Z:     0.2621     Total:     0.7908

  Dipole Moment: [D]
     X:     1.0968      Y:     1.5471      Z:     0.6661     Total:     2.0101

*** tstop() called on ds3 at Sun Apr 26 17:07:17 2020
Module time:
	user time   =     122.58 seconds =       2.04 minutes
	system time =      42.90 seconds =       0.72 minutes
	total time  =        158 seconds =       2.63 minutes
Total time:
	user time   =     122.58 seconds =       2.04 minutes
	system time =      42.90 seconds =       0.72 minutes
	total time  =        158 seconds =       2.63 minutes
                                     G D M A

                                 by Anthony Stone

                           version 2.2.06, 22 June 2011

               Distributed Multipoles from Gaussian wavefunctions

Starting at 17:7:17 on 26 Apr 2020

Using SCF density matrix from file ./SSI/SSI-052PHE-141MET-1-dimer.test.17455.fchk

                         Distributed Multipole Analysis

Standard DMA

Positions and radii in angstrom
Multipole moments in atomic units, ea_0^k for rank k

C          x =  0.989476  y =  3.037351  z =  0.932594 angstrom
           Maximum rank =  0   Radius =  0.650 angstrom
                   Q00  =  -0.201007

C          x = -1.874524  y =  1.188351  z = -0.721406 angstrom
           Maximum rank =  0   Radius =  0.650 angstrom
                   Q00  =  -0.036616

C          x = -0.751524  y =  1.986351  z = -0.545406 angstrom
           Maximum rank =  0   Radius =  0.650 angstrom
                   Q00  =  -0.053449

C          x = -2.470524  y =  0.577351  z =  0.363594 angstrom
           Maximum rank =  0   Radius =  0.650 angstrom
                   Q00  =  -0.084866

C          x = -0.213524  y =  2.167351  z =  0.728594 angstrom
           Maximum rank =  0   Radius =  0.650 angstrom
                   Q00  =  -0.095070

C          x = -1.946524  y =  0.764351  z =  1.635594 angstrom
           Maximum rank =  0   Radius =  0.650 angstrom
                   Q00  =  -0.045996

C          x = -0.825524  y =  1.566351  z =  1.818594 angstrom
           Maximum rank =  0   Radius =  0.650 angstrom
                   Q00  =  -0.087651

H          x = -2.280524  y =  1.035351  z = -1.710406 angstrom
           Maximum rank =  0   Radius =  0.325 angstrom
                   Q00  =   0.066809

H          x = -0.291524  y =  2.458351  z = -1.402406 angstrom
           Maximum rank =  0   Radius =  0.325 angstrom
                   Q00  =   0.056613

H          x = -3.338524  y = -0.051649  z =  0.222594 angstrom
           Maximum rank =  0   Radius =  0.325 angstrom
                   Q00  =   0.062327

H          x = -2.410524  y =  0.287351  z =  2.487594 angstrom
           Maximum rank =  0   Radius =  0.325 angstrom
                   Q00  =   0.065993

H          x =  1.718476  y =  2.829351  z =  0.150594 angstrom
           Maximum rank =  0   Radius =  0.325 angstrom
                   Q00  =   0.097716

H          x =  1.449476  y =  2.766351  z =  1.884594 angstrom
           Maximum rank =  0   Radius =  0.325 angstrom
                   Q00  =   0.094697

H          x = -0.429524  y =  1.714351  z =  2.811594 angstrom
           Maximum rank =  0   Radius =  0.325 angstrom
                   Q00  =   0.057944

H          x =  0.752792  y =  4.111421  z =  0.951294 angstrom
           Maximum rank =  0   Radius =  0.325 angstrom
                   Q00  =   0.106656

C          x =  0.859476  y = -1.381649  z = -0.029406 angstrom
           Maximum rank =  0   Radius =  0.650 angstrom
                   Q00  =  -0.338857

C          x =  2.826476  y = -2.775649  z = -1.404406 angstrom
           Maximum rank =  0   Radius =  0.650 angstrom
                   Q00  =  -0.353541

S          x =  1.053476  y = -2.788649  z = -1.091406 angstrom
           Maximum rank =  0   Radius =  0.650 angstrom
                   Q00  =   0.111347

H          x = -0.200524  y = -1.240649  z =  0.181594 angstrom
           Maximum rank =  0   Radius =  0.325 angstrom
                   Q00  =   0.131662

H          x =  1.382476  y = -1.533649  z =  0.914594 angstrom
           Maximum rank =  0   Radius =  0.325 angstrom
                   Q00  =   0.076466

H          x =  1.234476  y = -0.486649  z = -0.524406 angstrom
           Maximum rank =  0   Radius =  0.325 angstrom
                   Q00  =   0.081974

H          x =  3.101476  y = -1.872649  z = -1.950406 angstrom
           Maximum rank =  0   Radius =  0.325 angstrom
                   Q00  =   0.082437

H          x =  3.073476  y = -3.639649  z = -2.019406 angstrom
           Maximum rank =  0   Radius =  0.325 angstrom
                   Q00  =   0.120347

H          x =  3.381351  y = -2.808634  z = -0.455186 angstrom
           Maximum rank =  0   Radius =  0.325 angstrom
                   Q00  =   0.084066

Total multipoles referred to origin at
           x =   0.000000,  y =    0.000000,  z =    0.000000 angstrom
                   Q00  =  -0.000000

Finished at 17:7:17 on 26 Apr 2020

  DMA results are available in the Python driver through the
	  variable('DMA DISTRIBUTED MULTIPOLES')
  and
	  variable('DMA TOTAL MULTIPOLES')
  commands.

    Psi4 stopped on: Sunday, 26 April 2020 05:07PM
    Psi4 wall time for execution: 0:02:38.54

*** Psi4 exiting successfully. Buy a developer a beer!
