                               Psi4 1.3.2 release

  ==> Input File <==

--------------------------------------------------------------------------
import numpy as np
set {scf_type pk
basis cc-pvdz
d_convergence 10
gdma_switch   0
gdma_limit    0
gdma_origin   [ 0.0,  0.0,  0.0 ]
}
molecule test {
    units Angstrom
    0 1
    --
    0 1
    C                4.285721080154046     2.794589174906877    -1.032401124657439
    C                0.653721080154046     1.761589174906877    -1.484401124657439
    C                1.853721080154046     2.161589174906877    -0.912401124657439
    C                0.574721080154046     1.583589174906877    -2.865401124657439
    C                2.985721080154046     2.380589174906877    -1.690401124657439
    C                1.691721080154046     1.796589174906877    -3.671401124657439
    C                2.894721080154046     2.187589174906877    -3.069401124657439
    O               -0.632278919845954     1.235589174906877    -3.359401124657439
    H               -0.203278919845954     1.577589174906877    -0.866401124657439
    H                1.904721080154046     2.304589174906877     0.157598875342561
    H               -1.288278919845954     1.167589174906877    -2.666401124657439
    H                1.610721080154046     1.675589174906877    -4.739401124657439
    H                4.041721080154046     3.580589174906878    -0.320401124657439
    H                4.950721080154047     3.232589174906877    -1.778401124657439
    H                3.766721080154046     2.352589174906877    -3.688401124657439
    H                4.803621080154046     1.982184174906877    -0.501571124657439
    C               -1.928278919845954    -2.564410825093122     4.644598875342561
    C               -0.737278919845954    -1.606410825093123     1.224598875342561
    C               -1.773278919845954    -1.634410825093123     2.200598875342561
    C               -1.212278919845954    -2.224410825093123     3.385598875342561
    C                0.085721080154046    -2.502410825093123     3.112598875342561
    C               -2.172278919845954    -0.611410825093123    -0.377401124657439
    C               -0.915278919845954    -1.071410825093123    -0.038401124657439
    C               -3.236278919845954    -0.620410825093123     0.550598875342561
    C               -3.048278919845954    -1.165410825093123     1.838598875342561
    N                0.374721080154046    -2.120410825093123     1.827598875342561
    H               -2.347278919845954    -0.229410825093123    -1.373401124657439
    H               -0.102278919845954    -1.059410825093123    -0.749401124657439
    H               -4.209278919845954    -0.251410825093123     0.260598875342561
    H               -3.865278919845954    -1.206410825093123     2.514598875342561
    H                1.269721080154046    -2.269410825093123     1.365598875342561
    H                0.778721080154046    -2.983410825093123     3.796598875342561
    H               -2.518278919845954    -1.716410825093123     4.981598875342561
    H               -1.200278919845954    -2.802410825093123     5.421598875342561
    H               -2.594428919845954    -3.426110825093123     4.490598875342561

}
e, wfn = energy('scf', return_wfn=True)
gdma(wfn)
dmavals = variable('DMA DISTRIBUTED MULTIPOLES')
charges = np.array(dmavals)
print(charges)
np.save('SSI-062TYR-095TRP-1-dimer.npy', np.array(charges))--------------------------------------------------------------------------

*** tstart() called on ds3
*** at Tue Apr 28 14:56:04 2020

   => Loading Basis Set <=

    Name: CC-PVDZ
    Role: ORBITAL
    Keyword: BASIS
    atoms 1-7, 17-25  entry C          line   138 file /theoryfs2/ds/metcalf/miniconda2/envs/tf2gpu/share/psi4/basis/cc-pvdz.gbs
    atoms 8           entry O          line   198 file /theoryfs2/ds/metcalf/miniconda2/envs/tf2gpu/share/psi4/basis/cc-pvdz.gbs
    atoms 9-16, 27-35 entry H          line    22 file /theoryfs2/ds/metcalf/miniconda2/envs/tf2gpu/share/psi4/basis/cc-pvdz.gbs
    atoms 26          entry N          line   168 file /theoryfs2/ds/metcalf/miniconda2/envs/tf2gpu/share/psi4/basis/cc-pvdz.gbs

         ---------------------------------------------------------
                                   SCF
               by Justin Turney, Rob Parrish, Andy Simmonett
                          and Daniel G. A. Smith
                              RHF Reference
                        1 Threads,    500 MiB Core
         ---------------------------------------------------------

  ==> Geometry <==

    Molecular point group: c1
    Full point group: C1

    Geometry (in Angstrom), charge = 0, multiplicity = 1:

       Center              X                  Y                   Z               Mass
    ------------   -----------------  -----------------  -----------------  -----------------
         C            4.285721080154     2.794589174907    -1.032401124657    12.000000000000
         C            0.653721080154     1.761589174907    -1.484401124657    12.000000000000
         C            1.853721080154     2.161589174907    -0.912401124657    12.000000000000
         C            0.574721080154     1.583589174907    -2.865401124657    12.000000000000
         C            2.985721080154     2.380589174907    -1.690401124657    12.000000000000
         C            1.691721080154     1.796589174907    -3.671401124657    12.000000000000
         C            2.894721080154     2.187589174907    -3.069401124657    12.000000000000
         O           -0.632278919846     1.235589174907    -3.359401124657    15.994914619570
         H           -0.203278919846     1.577589174907    -0.866401124657     1.007825032230
         H            1.904721080154     2.304589174907     0.157598875343     1.007825032230
         H           -1.288278919846     1.167589174907    -2.666401124657     1.007825032230
         H            1.610721080154     1.675589174907    -4.739401124657     1.007825032230
         H            4.041721080154     3.580589174907    -0.320401124657     1.007825032230
         H            4.950721080154     3.232589174907    -1.778401124657     1.007825032230
         H            3.766721080154     2.352589174907    -3.688401124657     1.007825032230
         H            4.803621080154     1.982184174907    -0.501571124657     1.007825032230
         C           -1.928278919846    -2.564410825093     4.644598875343    12.000000000000
         C           -0.737278919846    -1.606410825093     1.224598875343    12.000000000000
         C           -1.773278919846    -1.634410825093     2.200598875343    12.000000000000
         C           -1.212278919846    -2.224410825093     3.385598875343    12.000000000000
         C            0.085721080154    -2.502410825093     3.112598875343    12.000000000000
         C           -2.172278919846    -0.611410825093    -0.377401124657    12.000000000000
         C           -0.915278919846    -1.071410825093    -0.038401124657    12.000000000000
         C           -3.236278919846    -0.620410825093     0.550598875343    12.000000000000
         C           -3.048278919846    -1.165410825093     1.838598875343    12.000000000000
         N            0.374721080154    -2.120410825093     1.827598875343    14.003074004430
         H           -2.347278919846    -0.229410825093    -1.373401124657     1.007825032230
         H           -0.102278919846    -1.059410825093    -0.749401124657     1.007825032230
         H           -4.209278919846    -0.251410825093     0.260598875343     1.007825032230
         H           -3.865278919846    -1.206410825093     2.514598875343     1.007825032230
         H            1.269721080154    -2.269410825093     1.365598875343     1.007825032230
         H            0.778721080154    -2.983410825093     3.796598875343     1.007825032230
         H           -2.518278919846    -1.716410825093     4.981598875343     1.007825032230
         H           -1.200278919846    -2.802410825093     5.421598875343     1.007825032230
         H           -2.594428919846    -3.426110825093     4.490598875343     1.007825032230

  Running in c1 symmetry.

  Rotational constants: A =      0.02479  B =      0.00597  C =      0.00509 [cm^-1]
  Rotational constants: A =    743.24039  B =    178.97164  C =    152.45333 [MHz]
  Nuclear repulsion = 1163.898271941382063

  Charge       = 0
  Multiplicity = 1
  Electrons    = 128
  Nalpha       = 64
  Nbeta        = 64

  ==> Algorithm <==

  SCF Algorithm Type is PK.
  DIIS enabled.
  MOM disabled.
  Fractional occupation disabled.
  Guess Type is SAD.
  Energy threshold   = 1.00e-06
  Density threshold  = 1.00e-10
  Integral threshold = 0.00e+00

  ==> Primary Basis <==

  Basis Set: CC-PVDZ
    Blend: CC-PVDZ
    Number of shells: 159
    Number of basis function: 337
    Number of Cartesian functions: 355
    Spherical Harmonics?: true
    Max angular momentum: 2

  ==> Pre-Iterations <==

   -------------------------------------------------------
    Irrep   Nso     Nmo     Nalpha   Nbeta   Ndocc  Nsocc
   -------------------------------------------------------
     A        337     337       0       0       0       0
   -------------------------------------------------------
    Total     337     337      64      64      64       0
   -------------------------------------------------------

  ==> Integral Setup <==

  Using integral reordering PK algorithm.
  Sizing the integral batches needed.
  Building batch lookup table.
   Calculation information:
      Number of atoms:                  35
      Number of AO shells:             159
      Number of primitives:            481
      Number of atomic orbitals:       355
      Number of basis functions:       337

      Integral cutoff                 1.00e-12
      Number of threads:                 1

	Batch   1 pq = [       0,    9405] index = [             0,44231715] size =     44231715
	Batch   2 pq = [    9405,   13301] index = [      44231715,88464951] size =     44233236
	Batch   3 pq = [   13301,   16290] index = [      88464951,132690195] size =     44225244
	Batch   4 pq = [   16290,   18810] index = [     132690195,176917455] size =     44227260
	Batch   5 pq = [   18810,   21030] index = [     176917455,221140965] size =     44223510
	Batch   6 pq = [   21030,   23037] index = [     221140965,265363203] size =     44222238
	Batch   7 pq = [   23037,   24883] index = [     265363203,309594286] size =     44231083
	Batch   8 pq = [   24883,   26601] index = [     309594286,353819901] size =     44225615
	Batch   9 pq = [   26601,   28214] index = [     353819901,398029005] size =     44209104
	Batch  10 pq = [   28214,   29740] index = [     398029005,442248670] size =     44219665
	Batch  11 pq = [   29740,   31191] index = [     442248670,486454836] size =     44206166
	Batch  12 pq = [   31191,   32578] index = [     486454836,530679331] size =     44224495
	Batch  13 pq = [   32578,   33908] index = [     530679331,574893186] size =     44213855
	Batch  14 pq = [   33908,   35188] index = [     574893186,619115266] size =     44222080
	Batch  15 pq = [   35188,   36423] index = [     619115266,663335676] size =     44220410
	Batch  16 pq = [   36423,   37617] index = [     663335676,707538153] size =     44202477
	Batch  17 pq = [   37617,   38775] index = [     707538153,751769700] size =     44231547
	Batch  18 pq = [   38775,   39899] index = [     751769700,795985050] size =     44215350
	Batch  19 pq = [   39899,   40992] index = [     795985050,840192528] size =     44207478
	Batch  20 pq = [   40992,   42057] index = [     840192528,884416653] size =     44224125
	Batch  21 pq = [   42057,   43095] index = [     884416653,928611060] size =     44194407
	Batch  22 pq = [   43095,   44109] index = [     928611060,972823995] size =     44212935
	Batch  23 pq = [   44109,   45100] index = [     972823995,1017027550] size =     44203555
	Batch  24 pq = [   45100,   46070] index = [    1017027550,1061245485] size =     44217935
	Batch  25 pq = [   46070,   47020] index = [    1061245485,1105463710] size =     44218225
	Batch  26 pq = [   47020,   47951] index = [    1105463710,1149673176] size =     44209466
	Batch  27 pq = [   47951,   48864] index = [    1149673176,1193869680] size =     44196504
	Batch  28 pq = [   48864,   49761] index = [    1193869680,1238103441] size =     44233761
	Batch  29 pq = [   49761,   50642] index = [    1238103441,1282331403] size =     44227962
	Batch  30 pq = [   50642,   51508] index = [    1282331403,1326562786] size =     44231383
	Batch  31 pq = [   51508,   52359] index = [    1326562786,1370758620] size =     44195834
	Batch  32 pq = [   52359,   53197] index = [    1370758620,1414987003] size =     44228383
	Batch  33 pq = [   53197,   54022] index = [    1414987003,1459215253] size =     44228250
	Batch  34 pq = [   54022,   54834] index = [    1459215253,1503411195] size =     44195942
	Batch  35 pq = [   54834,   55634] index = [    1503411195,1547598795] size =     44187600
	Batch  36 pq = [   55634,   56423] index = [    1547598795,1591805676] size =     44206881
	Batch  37 pq = [   56423,   56953] index = [    1591805676,1621850581] size =     30044905
  Task number: 147
  Buffer size: 11059200
  Buffer per thread: 2
  We computed 74357853 shell quartets total.
  Whereas there are 80905560 unique shell quartets.

  ==> DiskJK: Disk-Based J/K Matrices <==

    J tasked:                  Yes
    K tasked:                  Yes
    wK tasked:                  No
    Memory [MiB]:              375
    Schwarz Cutoff:          1E-12

    OpenMP threads:              1

  Minimum eigenvalue in the overlap matrix is 2.4840430889E-04.
  Using Symmetric Orthogonalization.

  SCF Guess: Superposition of Atomic Densities via on-the-fly atomic UHF.

  ==> Iterations <==

                        Total Energy        Delta E     RMS |[F,P]|

   @RHF iter SAD:  -744.41697968637357   -7.44417e+02   0.00000e+00
   @RHF iter   1:  -744.78593875728336   -3.68959e-01   2.19384e-03 DIIS
   @RHF iter   2:  -745.09917111056018   -3.13232e-01   9.42319e-04 DIIS
   @RHF iter   3:  -745.15026532930221   -5.10942e-02   2.54594e-04 DIIS
   @RHF iter   4:  -745.15520984670320   -4.94452e-03   1.14229e-04 DIIS
   @RHF iter   5:  -745.15606094427415   -8.51098e-04   1.66845e-05 DIIS
   @RHF iter   6:  -745.15609774824634   -3.68040e-05   7.66722e-06 DIIS
   @RHF iter   7:  -745.15610513624483   -7.38800e-06   2.97208e-06 DIIS
   @RHF iter   8:  -745.15610698029479   -1.84405e-06   1.17109e-06 DIIS
   @RHF iter   9:  -745.15610732555547   -3.45261e-07   5.35596e-07 DIIS
   @RHF iter  10:  -745.15610740616580   -8.06103e-08   2.55989e-07 DIIS
   @RHF iter  11:  -745.15610742818603   -2.20202e-08   1.02363e-07 DIIS
   @RHF iter  12:  -745.15610743125740   -3.07136e-09   3.99206e-08 DIIS
   @RHF iter  13:  -745.15610743162131   -3.63912e-10   1.41575e-08 DIIS
   @RHF iter  14:  -745.15610743164632   -2.50111e-11   5.35912e-09 DIIS
   @RHF iter  15:  -745.15610743166314   -1.68257e-11   2.20258e-09 DIIS
   @RHF iter  16:  -745.15610743166405   -9.09495e-13   1.08916e-09 DIIS
   @RHF iter  17:  -745.15610743166098    3.06954e-12   5.47415e-10 DIIS
   @RHF iter  18:  -745.15610743166576   -4.77485e-12   2.11501e-10 DIIS
   @RHF iter  19:  -745.15610743166781   -2.04636e-12   8.49792e-11 DIIS
  Energy and wave function converged.

  ==> Post-Iterations <==

    Orbital Energies [Eh]
    ---------------------

    Doubly Occupied:

       1A    -20.580897     2A    -15.604570     3A    -11.297477
       4A    -11.268045     5A    -11.267358     6A    -11.238876
       7A    -11.238508     8A    -11.237517     9A    -11.235087
      10A    -11.234491    11A    -11.231283    12A    -11.231137
      13A    -11.230327    14A    -11.228169    15A    -11.228161
      16A    -11.227160    17A    -11.226157    18A    -11.219835
      19A     -1.406113    20A     -1.301434    21A     -1.147932
      22A     -1.131664    23A     -1.079671    24A     -1.034350
      25A     -1.015613    26A     -1.002100    27A     -0.993536
      28A     -0.935258    29A     -0.924736    30A     -0.845985
      31A     -0.843462    32A     -0.809782    33A     -0.802558
      34A     -0.756949    35A     -0.733056    36A     -0.724941
      37A     -0.671366    38A     -0.668776    39A     -0.648365
      40A     -0.640893    41A     -0.607977    42A     -0.604930
      43A     -0.597912    44A     -0.595105    45A     -0.587107
      46A     -0.585159    47A     -0.573256    48A     -0.571046
      49A     -0.565443    50A     -0.555853    51A     -0.542255
      52A     -0.534915    53A     -0.524589    54A     -0.503306
      55A     -0.496235    56A     -0.482243    57A     -0.475815
      58A     -0.465524    59A     -0.464266    60A     -0.377324
      61A     -0.336493    62A     -0.299832    63A     -0.298551
      64A     -0.280447

    Virtual:

      65A      0.117811    66A      0.131574    67A      0.156781
      68A      0.158458    69A      0.174339    70A      0.179397
      71A      0.189127    72A      0.190563    73A      0.217021
      74A      0.217358    75A      0.223302    76A      0.229026
      77A      0.231123    78A      0.250499    79A      0.255664
      80A      0.269829    81A      0.271773    82A      0.281525
      83A      0.286814    84A      0.290044    85A      0.295544
      86A      0.332949    87A      0.368480    88A      0.369350
      89A      0.374705    90A      0.381089    91A      0.406515
      92A      0.408842    93A      0.433591    94A      0.446375
      95A      0.457924    96A      0.469408    97A      0.476148
      98A      0.488984    99A      0.493319   100A      0.504356
     101A      0.509178   102A      0.514920   103A      0.592844
     104A      0.608205   105A      0.614563   106A      0.627496
     107A      0.633298   108A      0.635478   109A      0.649071
     110A      0.655881   111A      0.660884   112A      0.679979
     113A      0.692402   114A      0.696216   115A      0.702833
     116A      0.709604   117A      0.714636   118A      0.724230
     119A      0.725574   120A      0.729956   121A      0.735074
     122A      0.738508   123A      0.740567   124A      0.745734
     125A      0.753877   126A      0.761926   127A      0.768023
     128A      0.775414   129A      0.781935   130A      0.785010
     131A      0.787929   132A      0.788102   133A      0.794956
     134A      0.814167   135A      0.823660   136A      0.834878
     137A      0.847982   138A      0.854192   139A      0.870240
     140A      0.874583   141A      0.878979   142A      0.884889
     143A      0.888943   144A      0.895839   145A      0.896872
     146A      0.900287   147A      0.912703   148A      0.920599
     149A      0.930139   150A      0.935978   151A      0.942100
     152A      0.943191   153A      0.950404   154A      0.953677
     155A      0.963794   156A      0.971158   157A      0.977735
     158A      1.003576   159A      1.015625   160A      1.026949
     161A      1.039909   162A      1.050350   163A      1.062473
     164A      1.072717   165A      1.094318   166A      1.115818
     167A      1.118749   168A      1.132778   169A      1.137048
     170A      1.143590   171A      1.145232   172A      1.153051
     173A      1.173834   174A      1.197366   175A      1.204480
     176A      1.211726   177A      1.215057   178A      1.224783
     179A      1.234504   180A      1.245580   181A      1.253561
     182A      1.262846   183A      1.266276   184A      1.277857
     185A      1.286252   186A      1.290218   187A      1.298364
     188A      1.309199   189A      1.311011   190A      1.322830
     191A      1.336186   192A      1.343478   193A      1.359635
     194A      1.361658   195A      1.374631   196A      1.389041
     197A      1.400973   198A      1.410866   199A      1.445479
     200A      1.497840   201A      1.515917   202A      1.525204
     203A      1.529262   204A      1.555078   205A      1.564420
     206A      1.583221   207A      1.595202   208A      1.617751
     209A      1.629844   210A      1.630699   211A      1.641674
     212A      1.662378   213A      1.680789   214A      1.682154
     215A      1.690718   216A      1.697841   217A      1.725314
     218A      1.740767   219A      1.744487   220A      1.760315
     221A      1.775128   222A      1.781463   223A      1.785373
     224A      1.798965   225A      1.803619   226A      1.806110
     227A      1.829736   228A      1.830654   229A      1.859531
     230A      1.877119   231A      1.888213   232A      1.890368
     233A      1.895373   234A      1.905902   235A      1.905971
     236A      1.914995   237A      1.916972   238A      1.922188
     239A      1.922950   240A      1.938120   241A      1.949187
     242A      1.952268   243A      1.954860   244A      1.964482
     245A      1.974432   246A      1.978324   247A      1.993553
     248A      2.000201   249A      2.005346   250A      2.018625
     251A      2.027182   252A      2.036060   253A      2.045036
     254A      2.063753   255A      2.067828   256A      2.073681
     257A      2.075266   258A      2.078939   259A      2.091431
     260A      2.099781   261A      2.114087   262A      2.119108
     263A      2.131736   264A      2.140687   265A      2.148297
     266A      2.151853   267A      2.171031   268A      2.182582
     269A      2.187895   270A      2.204186   271A      2.213274
     272A      2.229381   273A      2.241543   274A      2.263008
     275A      2.278891   276A      2.289086   277A      2.295163
     278A      2.309336   279A      2.316013   280A      2.330961
     281A      2.344202   282A      2.351235   283A      2.371380
     284A      2.397944   285A      2.418574   286A      2.426977
     287A      2.445099   288A      2.455862   289A      2.472161
     290A      2.489983   291A      2.507525   292A      2.523698
     293A      2.529571   294A      2.548567   295A      2.581538
     296A      2.602953   297A      2.605070   298A      2.638673
     299A      2.659322   300A      2.674037   301A      2.679773
     302A      2.704501   303A      2.753403   304A      2.768135
     305A      2.772837   306A      2.775207   307A      2.781090
     308A      2.796255   309A      2.804163   310A      2.818836
     311A      2.822578   312A      2.845132   313A      2.873492
     314A      2.879664   315A      2.895930   316A      2.905710
     317A      2.958171   318A      2.971315   319A      3.003501
     320A      3.034491   321A      3.043807   322A      3.074893
     323A      3.093298   324A      3.111286   325A      3.116244
     326A      3.196181   327A      3.266407   328A      3.286986
     329A      3.308116   330A      3.361593   331A      3.385972
     332A      3.596881   333A      3.679747   334A      3.736937
     335A      3.931005   336A      3.999494   337A      4.212515

    Final Occupation by Irrep:
              A
    DOCC [    64 ]

  @RHF Final Energy:  -745.15610743166781

   => Energetics <=

    Nuclear Repulsion Energy =           1163.8982719413820632
    One-Electron Energy =               -3321.9704051650242036
    Two-Electron Energy =                1412.9160257919743344
    Total Energy =                       -745.1561074316678059

Computation Completed

Properties will be evaluated at   0.000000,   0.000000,   0.000000 [a0]

Properties computed using the SCF density matrix

  Nuclear Dipole Moment: [e a0]
     X:     4.4939      Y:     1.8204      Z:     5.8893

  Electronic Dipole Moment: [e a0]
     X:    -3.8254      Y:    -2.1876      Z:    -5.1037

  Dipole Moment: [e a0]
     X:     0.6685      Y:    -0.3672      Z:     0.7856     Total:     1.0949

  Dipole Moment: [D]
     X:     1.6992      Y:    -0.9333      Z:     1.9967     Total:     2.7830

*** tstop() called on ds3 at Tue Apr 28 15:30:47 2020
Module time:
	user time   =     723.86 seconds =      12.06 minutes
	system time =     267.69 seconds =       4.46 minutes
	total time  =       2083 seconds =      34.72 minutes
Total time:
	user time   =     723.86 seconds =      12.06 minutes
	system time =     267.69 seconds =       4.46 minutes
	total time  =       2083 seconds =      34.72 minutes
                                     G D M A

                                 by Anthony Stone

                           version 2.2.06, 22 June 2011

               Distributed Multipoles from Gaussian wavefunctions

Starting at 15:30:47 on 28 Apr 2020

Using SCF density matrix from file ./SSI/SSI-062TYR-095TRP-1-dimer.test.21934.fchk

                         Distributed Multipole Analysis

Standard DMA

Positions and radii in angstrom
Multipole moments in atomic units, ea_0^k for rank k

C          x =  4.285721  y =  2.794589  z = -1.032401 angstrom
           Maximum rank =  0   Radius =  0.650 angstrom
                   Q00  =  -0.195896

C          x =  0.653721  y =  1.761589  z = -1.484401 angstrom
           Maximum rank =  0   Radius =  0.650 angstrom
                   Q00  =  -0.181198

C          x =  1.853721  y =  2.161589  z = -0.912401 angstrom
           Maximum rank =  0   Radius =  0.650 angstrom
                   Q00  =   0.033297

C          x =  0.574721  y =  1.583589  z = -2.865401 angstrom
           Maximum rank =  0   Radius =  0.650 angstrom
                   Q00  =   0.267500

C          x =  2.985721  y =  2.380589  z = -1.690401 angstrom
           Maximum rank =  0   Radius =  0.650 angstrom
                   Q00  =  -0.148321

C          x =  1.691721  y =  1.796589  z = -3.671401 angstrom
           Maximum rank =  0   Radius =  0.650 angstrom
                   Q00  =  -0.125096

C          x =  2.894721  y =  2.187589  z = -3.069401 angstrom
           Maximum rank =  0   Radius =  0.650 angstrom
                   Q00  =  -0.011052

O          x = -0.632279  y =  1.235589  z = -3.359401 angstrom
           Maximum rank =  0   Radius =  0.650 angstrom
                   Q00  =  -0.631648

H          x = -0.203279  y =  1.577589  z = -0.866401 angstrom
           Maximum rank =  0   Radius =  0.325 angstrom
                   Q00  =   0.082409

H          x =  1.904721  y =  2.304589  z =  0.157599 angstrom
           Maximum rank =  0   Radius =  0.325 angstrom
                   Q00  =   0.065651

H          x = -1.288279  y =  1.167589  z = -2.666401 angstrom
           Maximum rank =  0   Radius =  0.325 angstrom
                   Q00  =   0.410569

H          x =  1.610721  y =  1.675589  z = -4.739401 angstrom
           Maximum rank =  0   Radius =  0.325 angstrom
                   Q00  =   0.080870

H          x =  4.041721  y =  3.580589  z = -0.320401 angstrom
           Maximum rank =  0   Radius =  0.325 angstrom
                   Q00  =   0.095103

H          x =  4.950721  y =  3.232589  z = -1.778401 angstrom
           Maximum rank =  0   Radius =  0.325 angstrom
                   Q00  =   0.097455

H          x =  3.766721  y =  2.352589  z = -3.688401 angstrom
           Maximum rank =  0   Radius =  0.325 angstrom
                   Q00  =   0.064047

H          x =  4.803621  y =  1.982184  z = -0.501571 angstrom
           Maximum rank =  0   Radius =  0.325 angstrom
                   Q00  =   0.097537

C          x = -1.928279  y = -2.564411  z =  4.644599 angstrom
           Maximum rank =  0   Radius =  0.650 angstrom
                   Q00  =  -0.203260

C          x = -0.737279  y = -1.606411  z =  1.224599 angstrom
           Maximum rank =  0   Radius =  0.650 angstrom
                   Q00  =   0.287992

C          x = -1.773279  y = -1.634411  z =  2.200599 angstrom
           Maximum rank =  0   Radius =  0.650 angstrom
                   Q00  =  -0.055721

C          x = -1.212279  y = -2.224411  z =  3.385599 angstrom
           Maximum rank =  0   Radius =  0.650 angstrom
                   Q00  =  -0.119292

C          x =  0.085721  y = -2.502411  z =  3.112599 angstrom
           Maximum rank =  0   Radius =  0.650 angstrom
                   Q00  =   0.077811

C          x = -2.172279  y = -0.611411  z = -0.377401 angstrom
           Maximum rank =  0   Radius =  0.650 angstrom
                   Q00  =  -0.054692

C          x = -0.915279  y = -1.071411  z = -0.038401 angstrom
           Maximum rank =  0   Radius =  0.650 angstrom
                   Q00  =  -0.126802

C          x = -3.236279  y = -0.620411  z =  0.550599 angstrom
           Maximum rank =  0   Radius =  0.650 angstrom
                   Q00  =  -0.095976

C          x = -3.048279  y = -1.165411  z =  1.838599 angstrom
           Maximum rank =  0   Radius =  0.650 angstrom
                   Q00  =  -0.100332

N          x =  0.374721  y = -2.120411  z =  1.827599 angstrom
           Maximum rank =  0   Radius =  0.650 angstrom
                   Q00  =  -0.499586

H          x = -2.347279  y = -0.229411  z = -1.373401 angstrom
           Maximum rank =  0   Radius =  0.325 angstrom
                   Q00  =   0.042020

H          x = -0.102279  y = -1.059411  z = -0.749401 angstrom
           Maximum rank =  0   Radius =  0.325 angstrom
                   Q00  =   0.089180

H          x = -4.209279  y = -0.251411  z =  0.260599 angstrom
           Maximum rank =  0   Radius =  0.325 angstrom
                   Q00  =   0.066124

H          x = -3.865279  y = -1.206411  z =  2.514599 angstrom
           Maximum rank =  0   Radius =  0.325 angstrom
                   Q00  =   0.073148

H          x =  1.269721  y = -2.269411  z =  1.365599 angstrom
           Maximum rank =  0   Radius =  0.325 angstrom
                   Q00  =   0.216620

H          x =  0.778721  y = -2.983411  z =  3.796599 angstrom
           Maximum rank =  0   Radius =  0.325 angstrom
                   Q00  =   0.102822

H          x = -2.518279  y = -1.716411  z =  4.981599 angstrom
           Maximum rank =  0   Radius =  0.325 angstrom
                   Q00  =   0.099344

H          x = -1.200279  y = -2.802411  z =  5.421599 angstrom
           Maximum rank =  0   Radius =  0.325 angstrom
                   Q00  =   0.102965

H          x = -2.594429  y = -3.426111  z =  4.490599 angstrom
           Maximum rank =  0   Radius =  0.325 angstrom
                   Q00  =   0.096410

Total multipoles referred to origin at
           x =   0.000000,  y =    0.000000,  z =    0.000000 angstrom
                   Q00  =  -0.000000

Finished at 15:30:47 on 28 Apr 2020

  DMA results are available in the Python driver through the
	  variable('DMA DISTRIBUTED MULTIPOLES')
  and
	  variable('DMA TOTAL MULTIPOLES')
  commands.

    Psi4 stopped on: Tuesday, 28 April 2020 03:30PM
    Psi4 wall time for execution: 0:34:43.21

*** Psi4 exiting successfully. Buy a developer a beer!
