                               Psi4 1.3.2 release

  ==> Input File <==

--------------------------------------------------------------------------
import numpy as np
set {scf_type pk
basis cc-pvdz
d_convergence 10
gdma_switch   0
gdma_limit    0
gdma_origin   [ 0.0,  0.0,  0.0 ]
}
molecule test {
    units Angstrom
    0 1
    --
    0 1
    C                0.381194182070000     3.756431636213531    -0.286712812528554
    C                1.749194182070000     1.645431636213531    -0.914712812528554
    C                1.124194182070000     2.818431636213531    -1.187712812528553
    C                1.919194182070000     2.028431636213531    -3.075712812528554
    N                2.240194182070000     1.175431636213531    -2.110712812528554
    N                1.237194182070000     3.039431636213531    -2.547712812528554
    H                1.854194182070000     1.192431636213531     0.060287187471446
    H                2.701194182070000     0.277431636213531    -2.271712812528554
    H                0.808194182070000     4.749431636213531    -0.427712812528554
    H                0.532194182070000     3.466431636213531     0.753287187471446
    H                2.157194182070000     1.904431636213531    -4.126712812528553
    H               -0.693675817930000     3.791711636213531    -0.517813712528554
    C               -3.120805817930000    -3.233568363786469     0.298287187471446
    C                0.002194182070000    -1.167568363786469     1.052287187471446
    C               -1.032805817930000    -1.771568363786469     0.346287187471446
    C                0.088194182070000    -1.326568363786468     2.422287187471447
    C               -1.976805817930000    -2.557568363786469     1.007287187471446
    C               -0.843805817930000    -2.100568363786469     3.081287187471446
    C               -1.868805817930000    -2.714568363786469     2.377287187471446
    H                0.739194182070000    -0.582568363786469     0.525287187471446
    H               -1.070805817930000    -1.609568363786469    -0.719712812528554
    H                0.891194182070000    -0.855568363786469     2.973287187471446
    H               -0.760805817930000    -2.246568363786469     4.149287187471447
    H               -4.063805817930001    -2.833568363786469     0.670287187471446
    H               -3.101805817930000    -4.281568363786469     0.585287187471446
    H               -2.592805817930000    -3.317568363786469     2.907287187471447
    H               -3.102785817930000    -3.169408363786469    -0.799691992528554

}
e, wfn = energy('scf', return_wfn=True)
gdma(wfn)
dmavals = variable('DMA DISTRIBUTED MULTIPOLES')
charges = np.array(dmavals)
print(charges)
np.save('SSI-048HIE-052PHE-1-dimer.npy', np.array(charges))--------------------------------------------------------------------------

*** tstart() called on ds3
*** at Mon Apr 27 15:59:54 2020

   => Loading Basis Set <=

    Name: CC-PVDZ
    Role: ORBITAL
    Keyword: BASIS
    atoms 1-4, 13-19  entry C          line   138 file /theoryfs2/ds/metcalf/miniconda2/envs/tf2gpu/share/psi4/basis/cc-pvdz.gbs
    atoms 5-6         entry N          line   168 file /theoryfs2/ds/metcalf/miniconda2/envs/tf2gpu/share/psi4/basis/cc-pvdz.gbs
    atoms 7-12, 20-27 entry H          line    22 file /theoryfs2/ds/metcalf/miniconda2/envs/tf2gpu/share/psi4/basis/cc-pvdz.gbs

         ---------------------------------------------------------
                                   SCF
               by Justin Turney, Rob Parrish, Andy Simmonett
                          and Daniel G. A. Smith
                              RHF Reference
                        1 Threads,    500 MiB Core
         ---------------------------------------------------------

  ==> Geometry <==

    Molecular point group: c1
    Full point group: C1

    Geometry (in Angstrom), charge = 0, multiplicity = 1:

       Center              X                  Y                   Z               Mass
    ------------   -----------------  -----------------  -----------------  -----------------
         C            0.381194182070     3.756431636214    -0.286712812529    12.000000000000
         C            1.749194182070     1.645431636214    -0.914712812529    12.000000000000
         C            1.124194182070     2.818431636214    -1.187712812529    12.000000000000
         C            1.919194182070     2.028431636214    -3.075712812529    12.000000000000
         N            2.240194182070     1.175431636214    -2.110712812529    14.003074004430
         N            1.237194182070     3.039431636214    -2.547712812529    14.003074004430
         H            1.854194182070     1.192431636214     0.060287187471     1.007825032230
         H            2.701194182070     0.277431636214    -2.271712812529     1.007825032230
         H            0.808194182070     4.749431636214    -0.427712812529     1.007825032230
         H            0.532194182070     3.466431636214     0.753287187471     1.007825032230
         H            2.157194182070     1.904431636214    -4.126712812529     1.007825032230
         H           -0.693675817930     3.791711636214    -0.517813712529     1.007825032230
         C           -3.120805817930    -3.233568363786     0.298287187471    12.000000000000
         C            0.002194182070    -1.167568363786     1.052287187471    12.000000000000
         C           -1.032805817930    -1.771568363786     0.346287187471    12.000000000000
         C            0.088194182070    -1.326568363786     2.422287187471    12.000000000000
         C           -1.976805817930    -2.557568363786     1.007287187471    12.000000000000
         C           -0.843805817930    -2.100568363786     3.081287187471    12.000000000000
         C           -1.868805817930    -2.714568363786     2.377287187471    12.000000000000
         H            0.739194182070    -0.582568363786     0.525287187471     1.007825032230
         H           -1.070805817930    -1.609568363786    -0.719712812529     1.007825032230
         H            0.891194182070    -0.855568363786     2.973287187471     1.007825032230
         H           -0.760805817930    -2.246568363786     4.149287187471     1.007825032230
         H           -4.063805817930    -2.833568363786     0.670287187471     1.007825032230
         H           -3.101805817930    -4.281568363786     0.585287187471     1.007825032230
         H           -2.592805817930    -3.317568363786     2.907287187471     1.007825032230
         H           -3.102785817930    -3.169408363786    -0.799691992529     1.007825032230

  Running in c1 symmetry.

  Rotational constants: A =      0.04770  B =      0.00882  C =      0.00836 [cm^-1]
  Rotational constants: A =   1429.94036  B =    264.29676  C =    250.49596 [MHz]
  Nuclear repulsion =  681.738540898703036

  Charge       = 0
  Multiplicity = 1
  Electrons    = 94
  Nalpha       = 47
  Nbeta        = 47

  ==> Algorithm <==

  SCF Algorithm Type is PK.
  DIIS enabled.
  MOM disabled.
  Fractional occupation disabled.
  Guess Type is SAD.
  Energy threshold   = 1.00e-06
  Density threshold  = 1.00e-10
  Integral threshold = 0.00e+00

  ==> Primary Basis <==

  Basis Set: CC-PVDZ
    Blend: CC-PVDZ
    Number of shells: 120
    Number of basis function: 252
    Number of Cartesian functions: 265
    Spherical Harmonics?: true
    Max angular momentum: 2

  ==> Pre-Iterations <==

   -------------------------------------------------------
    Irrep   Nso     Nmo     Nalpha   Nbeta   Ndocc  Nsocc
   -------------------------------------------------------
     A        252     252       0       0       0       0
   -------------------------------------------------------
    Total     252     252      47      47      47       0
   -------------------------------------------------------

  ==> Integral Setup <==

  Using integral reordering PK algorithm.
  Sizing the integral batches needed.
  Building batch lookup table.
   Calculation information:
      Number of atoms:                  27
      Number of AO shells:             120
      Number of primitives:            356
      Number of atomic orbitals:       265
      Number of basis functions:       252

      Integral cutoff                 1.00e-12
      Number of threads:                 1

	Batch   1 pq = [       0,    9405] index = [             0,44231715] size =     44231715
	Batch   2 pq = [    9405,   13301] index = [      44231715,88464951] size =     44233236
	Batch   3 pq = [   13301,   16290] index = [      88464951,132690195] size =     44225244
	Batch   4 pq = [   16290,   18810] index = [     132690195,176917455] size =     44227260
	Batch   5 pq = [   18810,   21030] index = [     176917455,221140965] size =     44223510
	Batch   6 pq = [   21030,   23037] index = [     221140965,265363203] size =     44222238
	Batch   7 pq = [   23037,   24883] index = [     265363203,309594286] size =     44231083
	Batch   8 pq = [   24883,   26601] index = [     309594286,353819901] size =     44225615
	Batch   9 pq = [   26601,   28214] index = [     353819901,398029005] size =     44209104
	Batch  10 pq = [   28214,   29740] index = [     398029005,442248670] size =     44219665
	Batch  11 pq = [   29740,   31191] index = [     442248670,486454836] size =     44206166
	Batch  12 pq = [   31191,   31878] index = [     486454836,508119381] size =     21664545
  Task number: 46
  Buffer size: 11059200
  Buffer per thread: 2
  We computed 19335975 shell quartets total.
  Whereas there are 26357430 unique shell quartets.

  ==> DiskJK: Disk-Based J/K Matrices <==

    J tasked:                  Yes
    K tasked:                  Yes
    wK tasked:                  No
    Memory [MiB]:              375
    Schwarz Cutoff:          1E-12

    OpenMP threads:              1

  Minimum eigenvalue in the overlap matrix is 2.8816549966E-04.
  Using Symmetric Orthogonalization.

  SCF Guess: Superposition of Atomic Densities via on-the-fly atomic UHF.

  ==> Iterations <==

                        Total Energy        Delta E     RMS |[F,P]|

   @RHF iter SAD:  -532.79866372807362   -5.32799e+02   0.00000e+00
   @RHF iter   1:  -533.34318506210946   -5.44521e-01   2.58588e-03 DIIS
   @RHF iter   2:  -533.57693704852727   -2.33752e-01   1.26249e-03 DIIS
   @RHF iter   3:  -533.62564949109526   -4.87124e-02   3.38454e-04 DIIS
   @RHF iter   4:  -533.63010258686620   -4.45310e-03   1.39235e-04 DIIS
   @RHF iter   5:  -533.63078026797814   -6.77681e-04   2.02310e-05 DIIS
   @RHF iter   6:  -533.63080493353095   -2.46656e-05   8.67336e-06 DIIS
   @RHF iter   7:  -533.63080918180094   -4.24827e-06   2.91181e-06 DIIS
   @RHF iter   8:  -533.63081003222248   -8.50422e-07   1.20971e-06 DIIS
   @RHF iter   9:  -533.63081020680090   -1.74578e-07   4.68457e-07 DIIS
   @RHF iter  10:  -533.63081022914355   -2.23426e-08   1.45230e-07 DIIS
   @RHF iter  11:  -533.63081023184611   -2.70256e-09   5.95863e-08 DIIS
   @RHF iter  12:  -533.63081023217990   -3.33785e-10   2.65956e-08 DIIS
   @RHF iter  13:  -533.63081023224413   -6.42331e-11   7.80226e-09 DIIS
   @RHF iter  14:  -533.63081023224959   -5.45697e-12   3.09527e-09 DIIS
   @RHF iter  15:  -533.63081023225391   -4.32010e-12   1.30589e-09 DIIS
   @RHF iter  16:  -533.63081023225504   -1.13687e-12   4.37632e-10 DIIS
   @RHF iter  17:  -533.63081023225368    1.36424e-12   1.91425e-10 DIIS
   @RHF iter  18:  -533.63081023225357    1.13687e-13   6.31499e-11 DIIS
  Energy and wave function converged.

  ==> Post-Iterations <==

    Orbital Energies [Eh]
    ---------------------

    Doubly Occupied:

       1A    -15.621984     2A    -15.528162     3A    -11.293502
       4A    -11.250675     5A    -11.242141     6A    -11.241601
       7A    -11.234811     8A    -11.234473     9A    -11.231217
      10A    -11.230410    11A    -11.229847    12A    -11.229370
      13A    -11.222565    14A     -1.342097    15A     -1.158075
      16A     -1.152656    17A     -1.048491    18A     -1.031554
      19A     -1.014408    20A     -0.941113    21A     -0.934499
      22A     -0.827363    23A     -0.816042    24A     -0.798821
      25A     -0.762358    26A     -0.740992    27A     -0.694466
      28A     -0.634784    29A     -0.632236    30A     -0.610573
      31A     -0.604644    32A     -0.598621    33A     -0.581775
      34A     -0.576510    35A     -0.566207    36A     -0.550982
      37A     -0.539748    38A     -0.538617    39A     -0.522132
      40A     -0.490354    41A     -0.487028    42A     -0.482861
      43A     -0.411410    44A     -0.377260    45A     -0.334349
      46A     -0.324818    47A     -0.310713

    Virtual:

      48A      0.134012    49A      0.143849    50A      0.163727
      51A      0.182883    52A      0.186588    53A      0.194098
      54A      0.210549    55A      0.217623    56A      0.223733
      57A      0.228913    58A      0.238195    59A      0.255785
      60A      0.268399    61A      0.271338    62A      0.280064
      63A      0.284437    64A      0.300469    65A      0.341406
      66A      0.370236    67A      0.376686    68A      0.387278
      69A      0.399402    70A      0.414166    71A      0.449560
      72A      0.467119    73A      0.469937    74A      0.475186
      75A      0.497053    76A      0.505577    77A      0.560117
      78A      0.590893    79A      0.611402    80A      0.617313
      81A      0.619957    82A      0.648561    83A      0.669764
      84A      0.683511    85A      0.692880    86A      0.696286
      87A      0.701002    88A      0.705273    89A      0.715204
      90A      0.729658    91A      0.737483    92A      0.741930
      93A      0.747981    94A      0.752217    95A      0.762310
      96A      0.767633    97A      0.779268    98A      0.797103
      99A      0.805390   100A      0.814221   101A      0.825154
     102A      0.842115   103A      0.846275   104A      0.858309
     105A      0.863653   106A      0.873759   107A      0.888015
     108A      0.892831   109A      0.898031   110A      0.905284
     111A      0.913396   112A      0.920740   113A      0.927923
     114A      0.934751   115A      0.942528   116A      0.953934
     117A      0.957221   118A      0.992851   119A      0.999383
     120A      1.025245   121A      1.038111   122A      1.053507
     123A      1.058683   124A      1.099526   125A      1.112606
     126A      1.124155   127A      1.136797   128A      1.146783
     129A      1.152085   130A      1.155701   131A      1.172097
     132A      1.185333   133A      1.203641   134A      1.235311
     135A      1.237771   136A      1.253962   137A      1.254811
     138A      1.262450   139A      1.278821   140A      1.287622
     141A      1.309285   142A      1.315689   143A      1.326481
     144A      1.329125   145A      1.343075   146A      1.352267
     147A      1.422128   148A      1.441276   149A      1.442126
     150A      1.483293   151A      1.512356   152A      1.517493
     153A      1.540097   154A      1.566694   155A      1.573613
     156A      1.598345   157A      1.610961   158A      1.632268
     159A      1.667395   160A      1.684646   161A      1.687988
     162A      1.705171   163A      1.738780   164A      1.740861
     165A      1.760410   166A      1.771223   167A      1.794779
     168A      1.807505   169A      1.812050   170A      1.818000
     171A      1.847724   172A      1.850131   173A      1.887669
     174A      1.894266   175A      1.898379   176A      1.912398
     177A      1.913835   178A      1.922318   179A      1.928228
     180A      1.944347   181A      1.949896   182A      1.955842
     183A      1.963523   184A      1.974329   185A      1.986510
     186A      1.989489   187A      1.996138   188A      2.011608
     189A      2.026597   190A      2.032411   191A      2.057228
     192A      2.081605   193A      2.085567   194A      2.113557
     195A      2.118319   196A      2.129480   197A      2.133415
     198A      2.160702   199A      2.171798   200A      2.177984
     201A      2.183329   202A      2.205470   203A      2.212229
     204A      2.229179   205A      2.241255   206A      2.273092
     207A      2.283073   208A      2.300967   209A      2.305002
     210A      2.328087   211A      2.351069   212A      2.390654
     213A      2.399891   214A      2.433061   215A      2.449359
     216A      2.452706   217A      2.477605   218A      2.498622
     219A      2.515920   220A      2.533375   221A      2.540955
     222A      2.610377   223A      2.644615   224A      2.699118
     225A      2.729671   226A      2.736879   227A      2.743780
     228A      2.750620   229A      2.770715   230A      2.780132
     231A      2.789365   232A      2.799297   233A      2.822659
     234A      2.830476   235A      2.849519   236A      2.862997
     237A      2.874523   238A      2.892051   239A      2.902213
     240A      2.959420   241A      2.991392   242A      3.015521
     243A      3.052891   244A      3.059177   245A      3.163868
     246A      3.177051   247A      3.215976   248A      3.242219
     249A      3.315741   250A      3.473832   251A      3.787738
     252A      3.988901

    Final Occupation by Irrep:
              A
    DOCC [    47 ]

  @RHF Final Energy:  -533.63081023225357

   => Energetics <=

    Nuclear Repulsion Energy =            681.7385408987030360
    One-Electron Energy =               -2074.2800780554430276
    Two-Electron Energy =                 858.9107269244865392
    Total Energy =                       -533.6308102322535660

Computation Completed

Properties will be evaluated at   0.000000,   0.000000,   0.000000 [a0]

Properties computed using the SCF density matrix

  Nuclear Dipole Moment: [e a0]
     X:    -5.3566      Y:    -3.3070      Z:     3.5393

  Electronic Dipole Moment: [e a0]
     X:     5.8076      Y:     2.0570      Z:    -3.3976

  Dipole Moment: [e a0]
     X:     0.4510      Y:    -1.2500      Z:     0.1417     Total:     1.3364

  Dipole Moment: [D]
     X:     1.1462      Y:    -3.1771      Z:     0.3602     Total:     3.3967

*** tstop() called on ds3 at Mon Apr 27 16:04:56 2020
Module time:
	user time   =     169.38 seconds =       2.82 minutes
	system time =      85.61 seconds =       1.43 minutes
	total time  =        302 seconds =       5.03 minutes
Total time:
	user time   =     169.38 seconds =       2.82 minutes
	system time =      85.61 seconds =       1.43 minutes
	total time  =        302 seconds =       5.03 minutes
                                     G D M A

                                 by Anthony Stone

                           version 2.2.06, 22 June 2011

               Distributed Multipoles from Gaussian wavefunctions

Starting at 16:4:56 on 27 Apr 2020

Using SCF density matrix from file ./SSI/SSI-048HIE-052PHE-1-dimer.test.21817.fchk

                         Distributed Multipole Analysis

Standard DMA

Positions and radii in angstrom
Multipole moments in atomic units, ea_0^k for rank k

C          x =  0.381194  y =  3.756432  z = -0.286713 angstrom
           Maximum rank =  0   Radius =  0.650 angstrom
                   Q00  =  -0.190420

C          x =  1.749194  y =  1.645432  z = -0.914713 angstrom
           Maximum rank =  0   Radius =  0.650 angstrom
                   Q00  =  -0.004653

C          x =  1.124194  y =  2.818432  z = -1.187713 angstrom
           Maximum rank =  0   Radius =  0.650 angstrom
                   Q00  =   0.225420

C          x =  1.919194  y =  2.028432  z = -3.075713 angstrom
           Maximum rank =  0   Radius =  0.650 angstrom
                   Q00  =   0.464667

N          x =  2.240194  y =  1.175432  z = -2.110713 angstrom
           Maximum rank =  0   Radius =  0.650 angstrom
                   Q00  =  -0.484922

N          x =  1.237194  y =  3.039432  z = -2.547713 angstrom
           Maximum rank =  0   Radius =  0.650 angstrom
                   Q00  =  -0.771031

H          x =  1.854194  y =  1.192432  z =  0.060287 angstrom
           Maximum rank =  0   Radius =  0.325 angstrom
                   Q00  =   0.102646

H          x =  2.701194  y =  0.277432  z = -2.271713 angstrom
           Maximum rank =  0   Radius =  0.325 angstrom
                   Q00  =   0.220474

H          x =  0.808194  y =  4.749432  z = -0.427713 angstrom
           Maximum rank =  0   Radius =  0.325 angstrom
                   Q00  =   0.110904

H          x =  0.532194  y =  3.466432  z =  0.753287 angstrom
           Maximum rank =  0   Radius =  0.325 angstrom
                   Q00  =   0.092062

H          x =  2.157194  y =  1.904432  z = -4.126713 angstrom
           Maximum rank =  0   Radius =  0.325 angstrom
                   Q00  =   0.123666

H          x = -0.693676  y =  3.791712  z = -0.517814 angstrom
           Maximum rank =  0   Radius =  0.325 angstrom
                   Q00  =   0.111809

C          x = -3.120806  y = -3.233568  z =  0.298287 angstrom
           Maximum rank =  0   Radius =  0.650 angstrom
                   Q00  =  -0.210843

C          x =  0.002194  y = -1.167568  z =  1.052287 angstrom
           Maximum rank =  0   Radius =  0.650 angstrom
                   Q00  =  -0.057753

C          x = -1.032806  y = -1.771568  z =  0.346287 angstrom
           Maximum rank =  0   Radius =  0.650 angstrom
                   Q00  =  -0.070486

C          x =  0.088194  y = -1.326568  z =  2.422287 angstrom
           Maximum rank =  0   Radius =  0.650 angstrom
                   Q00  =  -0.090358

C          x = -1.976806  y = -2.557568  z =  1.007287 angstrom
           Maximum rank =  0   Radius =  0.650 angstrom
                   Q00  =  -0.091353

C          x = -0.843806  y = -2.100568  z =  3.081287 angstrom
           Maximum rank =  0   Radius =  0.650 angstrom
                   Q00  =  -0.018755

C          x = -1.868806  y = -2.714568  z =  2.377287 angstrom
           Maximum rank =  0   Radius =  0.650 angstrom
                   Q00  =  -0.043528

H          x =  0.739194  y = -0.582568  z =  0.525287 angstrom
           Maximum rank =  0   Radius =  0.325 angstrom
                   Q00  =   0.053232

H          x = -1.070806  y = -1.609568  z = -0.719713 angstrom
           Maximum rank =  0   Radius =  0.325 angstrom
                   Q00  =   0.055780

H          x =  0.891194  y = -0.855568  z =  2.973287 angstrom
           Maximum rank =  0   Radius =  0.325 angstrom
                   Q00  =   0.053674

H          x = -0.760806  y = -2.246568  z =  4.149287 angstrom
           Maximum rank =  0   Radius =  0.325 angstrom
                   Q00  =   0.062445

H          x = -4.063806  y = -2.833568  z =  0.670287 angstrom
           Maximum rank =  0   Radius =  0.325 angstrom
                   Q00  =   0.103796

H          x = -3.101806  y = -4.281568  z =  0.585287 angstrom
           Maximum rank =  0   Radius =  0.325 angstrom
                   Q00  =   0.098256

H          x = -2.592806  y = -3.317568  z =  2.907287 angstrom
           Maximum rank =  0   Radius =  0.325 angstrom
                   Q00  =   0.053073

H          x = -3.102786  y = -3.169408  z = -0.799692 angstrom
           Maximum rank =  0   Radius =  0.325 angstrom
                   Q00  =   0.102199

Total multipoles referred to origin at
           x =   0.000000,  y =    0.000000,  z =    0.000000 angstrom
                   Q00  =  -0.000000

Finished at 16:4:56 on 27 Apr 2020

  DMA results are available in the Python driver through the
	  variable('DMA DISTRIBUTED MULTIPOLES')
  and
	  variable('DMA TOTAL MULTIPOLES')
  commands.

    Psi4 stopped on: Monday, 27 April 2020 04:04PM
    Psi4 wall time for execution: 0:05:02.49

*** Psi4 exiting successfully. Buy a developer a beer!
