                               Psi4 1.3.2 release

  ==> Input File <==

--------------------------------------------------------------------------
import numpy as np
set {scf_type pk
basis cc-pvdz
d_convergence 10
gdma_switch   0
gdma_limit    0
gdma_origin   [ 0.0,  0.0,  0.0 ]
}
molecule test {
    units Angstrom
    0 1
    --
    0 1
    C                1.322562529241957    -1.859085500076770     1.057099488862609
    C                0.946562529241957    -1.450085500076770     2.474099488862609
    C                2.077562529241957    -0.798085500076770     0.307099488862609
    C                3.107562529241957    -0.036085500076770     0.755099488862609
    C                1.838562529241957    -0.377085500076770    -1.046900511137391
    C                2.772562529241957     0.640914499923230    -1.357900511137391
    C                0.943562529241957    -0.795085500076770    -2.037900511137391
    C                2.814562529241957     1.252914499923230    -2.601900511137390
    C                0.985562529241957    -0.195085500076770    -3.278900511137391
    C                1.906562529241957     0.818914499923230    -3.556900511137390
    N                3.540562529241957     0.820914499923230    -0.236900511137391
    H                1.897562529241957    -2.779085500076770     1.051099488862609
    H                0.419562529241957    -2.046085500076770     0.482099488862609
    H                0.670562529241957    -0.410085500076770     2.406099488862609
    H                3.544562529241957    -0.100085500076770     1.742099488862609
    H                4.303562529241957     1.482914499923230    -0.129900511137391
    H                0.220562529241957    -1.569085500076770    -1.830900511137391
    H                3.528562529241957     2.032914499923230    -2.811900511137391
    H                0.304562529241957    -0.523085500076770    -4.045900511137391
    H                1.913562529241957     1.254914499923230    -4.539900511137390
    H                1.810342529241957    -1.528265500076770     3.150689488862609
    H                0.051762529241957    -1.977155500076770     2.836779488862609
    C               -4.555437470758043    -0.752085500076770    -0.951900511137391
    C               -1.425437470758043     0.568914499923230     0.737099488862609
    C               -2.302437470758043     0.072914499923230    -0.228900511137391
    C               -1.872437470758043     0.753914499923230     2.040099488862609
    C               -3.607437470758043    -0.242085500076770     0.099099488862609
    C               -3.178437470758043     0.430914499923230     2.388099488862609
    C               -4.031437470758043    -0.074085500076770     1.411099488862609
    O               -0.983437470758043     1.241914499923230     2.948099488862610
    H               -0.406437470758043     0.797914499923230     0.463099488862609
    H               -1.951437470758043    -0.061085500076770    -1.244900511137391
    H               -0.090437470758043     1.036914499923230     2.682099488862609
    H               -3.518437470758043     0.571914499923230     3.404099488862609
    H               -5.088437470758042    -1.621085500076770    -0.561900511137391
    H               -3.980437470758043    -1.079085500076770    -1.817900511137391
    H               -5.049437470758043    -0.327085500076770     1.678099488862609
    H               -5.287139470758043     0.011054499923230    -1.255590511137391

}
e, wfn = energy('scf', return_wfn=True)
gdma(wfn)
dmavals = variable('DMA DISTRIBUTED MULTIPOLES')
charges = np.array(dmavals)
print(charges)
np.save('SSI-038TRP-081TYR-1-dimer.npy', np.array(charges))--------------------------------------------------------------------------

*** tstart() called on ds3
*** at Tue Apr 28 21:05:00 2020

   => Loading Basis Set <=

    Name: CC-PVDZ
    Role: ORBITAL
    Keyword: BASIS
    atoms 1-10, 23-29  entry C          line   138 file /theoryfs2/ds/metcalf/miniconda2/envs/tf2gpu/share/psi4/basis/cc-pvdz.gbs
    atoms 11           entry N          line   168 file /theoryfs2/ds/metcalf/miniconda2/envs/tf2gpu/share/psi4/basis/cc-pvdz.gbs
    atoms 12-22, 31-38 entry H          line    22 file /theoryfs2/ds/metcalf/miniconda2/envs/tf2gpu/share/psi4/basis/cc-pvdz.gbs
    atoms 30           entry O          line   198 file /theoryfs2/ds/metcalf/miniconda2/envs/tf2gpu/share/psi4/basis/cc-pvdz.gbs

         ---------------------------------------------------------
                                   SCF
               by Justin Turney, Rob Parrish, Andy Simmonett
                          and Daniel G. A. Smith
                              RHF Reference
                        1 Threads,    500 MiB Core
         ---------------------------------------------------------

  ==> Geometry <==

    Molecular point group: c1
    Full point group: C1

    Geometry (in Angstrom), charge = 0, multiplicity = 1:

       Center              X                  Y                   Z               Mass
    ------------   -----------------  -----------------  -----------------  -----------------
         C            1.322562529242    -1.859085500077     1.057099488863    12.000000000000
         C            0.946562529242    -1.450085500077     2.474099488863    12.000000000000
         C            2.077562529242    -0.798085500077     0.307099488863    12.000000000000
         C            3.107562529242    -0.036085500077     0.755099488863    12.000000000000
         C            1.838562529242    -0.377085500077    -1.046900511137    12.000000000000
         C            2.772562529242     0.640914499923    -1.357900511137    12.000000000000
         C            0.943562529242    -0.795085500077    -2.037900511137    12.000000000000
         C            2.814562529242     1.252914499923    -2.601900511137    12.000000000000
         C            0.985562529242    -0.195085500077    -3.278900511137    12.000000000000
         C            1.906562529242     0.818914499923    -3.556900511137    12.000000000000
         N            3.540562529242     0.820914499923    -0.236900511137    14.003074004430
         H            1.897562529242    -2.779085500077     1.051099488863     1.007825032230
         H            0.419562529242    -2.046085500077     0.482099488863     1.007825032230
         H            0.670562529242    -0.410085500077     2.406099488863     1.007825032230
         H            3.544562529242    -0.100085500077     1.742099488863     1.007825032230
         H            4.303562529242     1.482914499923    -0.129900511137     1.007825032230
         H            0.220562529242    -1.569085500077    -1.830900511137     1.007825032230
         H            3.528562529242     2.032914499923    -2.811900511137     1.007825032230
         H            0.304562529242    -0.523085500077    -4.045900511137     1.007825032230
         H            1.913562529242     1.254914499923    -4.539900511137     1.007825032230
         H            1.810342529242    -1.528265500077     3.150689488863     1.007825032230
         H            0.051762529242    -1.977155500077     2.836779488863     1.007825032230
         C           -4.555437470758    -0.752085500077    -0.951900511137    12.000000000000
         C           -1.425437470758     0.568914499923     0.737099488863    12.000000000000
         C           -2.302437470758     0.072914499923    -0.228900511137    12.000000000000
         C           -1.872437470758     0.753914499923     2.040099488863    12.000000000000
         C           -3.607437470758    -0.242085500077     0.099099488863    12.000000000000
         C           -3.178437470758     0.430914499923     2.388099488863    12.000000000000
         C           -4.031437470758    -0.074085500077     1.411099488863    12.000000000000
         O           -0.983437470758     1.241914499923     2.948099488863    15.994914619570
         H           -0.406437470758     0.797914499923     0.463099488863     1.007825032230
         H           -1.951437470758    -0.061085500077    -1.244900511137     1.007825032230
         H           -0.090437470758     1.036914499923     2.682099488863     1.007825032230
         H           -3.518437470758     0.571914499923     3.404099488863     1.007825032230
         H           -5.088437470758    -1.621085500077    -0.561900511137     1.007825032230
         H           -3.980437470758    -1.079085500077    -1.817900511137     1.007825032230
         H           -5.049437470758    -0.327085500077     1.678099488863     1.007825032230
         H           -5.287139470758     0.011054499923    -1.255590511137     1.007825032230

  Running in c1 symmetry.

  Rotational constants: A =      0.01785  B =      0.00797  C =      0.00635 [cm^-1]
  Rotational constants: A =    535.24624  B =    238.78579  C =    190.43132 [MHz]
  Nuclear repulsion = 1349.274350164246016

  Charge       = 0
  Multiplicity = 1
  Electrons    = 136
  Nalpha       = 68
  Nbeta        = 68

  ==> Algorithm <==

  SCF Algorithm Type is PK.
  DIIS enabled.
  MOM disabled.
  Fractional occupation disabled.
  Guess Type is SAD.
  Energy threshold   = 1.00e-06
  Density threshold  = 1.00e-10
  Integral threshold = 0.00e+00

  ==> Primary Basis <==

  Basis Set: CC-PVDZ
    Blend: CC-PVDZ
    Number of shells: 171
    Number of basis function: 361
    Number of Cartesian functions: 380
    Spherical Harmonics?: true
    Max angular momentum: 2

  ==> Pre-Iterations <==

   -------------------------------------------------------
    Irrep   Nso     Nmo     Nalpha   Nbeta   Ndocc  Nsocc
   -------------------------------------------------------
     A        361     361       0       0       0       0
   -------------------------------------------------------
    Total     361     361      68      68      68       0
   -------------------------------------------------------

  ==> Integral Setup <==

  Using Yoshimine PK algorithm.
  Sizing the integral batches needed.
  Building batch lookup table.
   Calculation information:
      Number of atoms:                  38
      Number of AO shells:             171
      Number of primitives:            513
      Number of atomic orbitals:       380
      Number of basis functions:       361

      Integral cutoff                 1.00e-12
      Number of threads:                 1

	Batch   1 pq = [       0,    9405] index = [             0,44231715] size =     44231715
	Batch   2 pq = [    9405,   13301] index = [      44231715,88464951] size =     44233236
	Batch   3 pq = [   13301,   16290] index = [      88464951,132690195] size =     44225244
	Batch   4 pq = [   16290,   18810] index = [     132690195,176917455] size =     44227260
	Batch   5 pq = [   18810,   21030] index = [     176917455,221140965] size =     44223510
	Batch   6 pq = [   21030,   23037] index = [     221140965,265363203] size =     44222238
	Batch   7 pq = [   23037,   24883] index = [     265363203,309594286] size =     44231083
	Batch   8 pq = [   24883,   26601] index = [     309594286,353819901] size =     44225615
	Batch   9 pq = [   26601,   28214] index = [     353819901,398029005] size =     44209104
	Batch  10 pq = [   28214,   29740] index = [     398029005,442248670] size =     44219665
	Batch  11 pq = [   29740,   31191] index = [     442248670,486454836] size =     44206166
	Batch  12 pq = [   31191,   32578] index = [     486454836,530679331] size =     44224495
	Batch  13 pq = [   32578,   33908] index = [     530679331,574893186] size =     44213855
	Batch  14 pq = [   33908,   35188] index = [     574893186,619115266] size =     44222080
	Batch  15 pq = [   35188,   36423] index = [     619115266,663335676] size =     44220410
	Batch  16 pq = [   36423,   37617] index = [     663335676,707538153] size =     44202477
	Batch  17 pq = [   37617,   38775] index = [     707538153,751769700] size =     44231547
	Batch  18 pq = [   38775,   39899] index = [     751769700,795985050] size =     44215350
	Batch  19 pq = [   39899,   40992] index = [     795985050,840192528] size =     44207478
	Batch  20 pq = [   40992,   42057] index = [     840192528,884416653] size =     44224125
	Batch  21 pq = [   42057,   43095] index = [     884416653,928611060] size =     44194407
	Batch  22 pq = [   43095,   44109] index = [     928611060,972823995] size =     44212935
	Batch  23 pq = [   44109,   45100] index = [     972823995,1017027550] size =     44203555
	Batch  24 pq = [   45100,   46070] index = [    1017027550,1061245485] size =     44217935
	Batch  25 pq = [   46070,   47020] index = [    1061245485,1105463710] size =     44218225
	Batch  26 pq = [   47020,   47951] index = [    1105463710,1149673176] size =     44209466
	Batch  27 pq = [   47951,   48864] index = [    1149673176,1193869680] size =     44196504
	Batch  28 pq = [   48864,   49761] index = [    1193869680,1238103441] size =     44233761
	Batch  29 pq = [   49761,   50642] index = [    1238103441,1282331403] size =     44227962
	Batch  30 pq = [   50642,   51508] index = [    1282331403,1326562786] size =     44231383
	Batch  31 pq = [   51508,   52359] index = [    1326562786,1370758620] size =     44195834
	Batch  32 pq = [   52359,   53197] index = [    1370758620,1414987003] size =     44228383
	Batch  33 pq = [   53197,   54022] index = [    1414987003,1459215253] size =     44228250
	Batch  34 pq = [   54022,   54834] index = [    1459215253,1503411195] size =     44195942
	Batch  35 pq = [   54834,   55634] index = [    1503411195,1547598795] size =     44187600
	Batch  36 pq = [   55634,   56423] index = [    1547598795,1591805676] size =     44206881
	Batch  37 pq = [   56423,   57201] index = [    1591805676,1636005801] size =     44200125
	Batch  38 pq = [   57201,   57969] index = [    1636005801,1680231465] size =     44225664
	Batch  39 pq = [   57969,   58727] index = [    1680231465,1724459628] size =     44228163
	Batch  40 pq = [   58727,   59475] index = [    1724459628,1768667550] size =     44207922
	Batch  41 pq = [   59475,   60214] index = [    1768667550,1812893005] size =     44225455
	Batch  42 pq = [   60214,   60944] index = [    1812893005,1857116040] size =     44223035
	Batch  43 pq = [   60944,   61665] index = [    1857116040,1901316945] size =     44200905
	Batch  44 pq = [   61665,   62378] index = [    1901316945,1945538631] size =     44221686
	Batch  45 pq = [   62378,   63083] index = [    1945538631,1989763986] size =     44225355
	Batch  46 pq = [   63083,   63780] index = [    1989763986,2033976090] size =     44212104
	Batch  47 pq = [   63780,   64469] index = [    2033976090,2078158215] size =     44182125
	Batch  48 pq = [   64469,   65151] index = [    2078158215,2122358976] size =     44200761
	Batch  49 pq = [   65151,   65341] index = [    2122358976,2134755811] size =     12396835
  ==> DiskJK: Disk-Based J/K Matrices <==

    J tasked:                  Yes
    K tasked:                  Yes
    wK tasked:                  No
    Memory [MiB]:              375
    Schwarz Cutoff:          1E-12

    OpenMP threads:              1

  Minimum eigenvalue in the overlap matrix is 2.3094666502E-04.
  Using Symmetric Orthogonalization.

  SCF Guess: Superposition of Atomic Densities via on-the-fly atomic UHF.

  ==> Iterations <==

                        Total Energy        Delta E     RMS |[F,P]|

   @RHF iter SAD:  -783.60913993765917   -7.83609e+02   0.00000e+00
   @RHF iter   1:  -783.78399730089700   -1.74857e-01   2.12888e-03 DIIS
   @RHF iter   2:  -784.12325844142276   -3.39261e-01   9.19116e-04 DIIS
   @RHF iter   3:  -784.17931609118205   -5.60576e-02   2.47415e-04 DIIS
   @RHF iter   4:  -784.18470308285237   -5.38699e-03   1.13933e-04 DIIS
   @RHF iter   5:  -784.18565222751022   -9.49145e-04   1.62284e-05 DIIS
   @RHF iter   6:  -784.18569229639388   -4.00689e-05   7.80140e-06 DIIS
   @RHF iter   7:  -784.18570066484097   -8.36845e-06   3.07895e-06 DIIS
   @RHF iter   8:  -784.18570288097612   -2.21614e-06   1.29995e-06 DIIS
   @RHF iter   9:  -784.18570336339781   -4.82422e-07   5.83293e-07 DIIS
   @RHF iter  10:  -784.18570347400225   -1.10604e-07   2.81345e-07 DIIS
   @RHF iter  11:  -784.18570350154198   -2.75397e-08   1.14254e-07 DIIS
   @RHF iter  12:  -784.18570350583366   -4.29168e-09   4.13951e-08 DIIS
   @RHF iter  13:  -784.18570350627169   -4.38035e-10   1.41992e-08 DIIS
   @RHF iter  14:  -784.18570350631342   -4.17231e-11   4.75259e-09 DIIS
   @RHF iter  15:  -784.18570350632672   -1.33014e-11   1.92415e-09 DIIS
   @RHF iter  16:  -784.18570350632319    3.52429e-12   8.90739e-10 DIIS
   @RHF iter  17:  -784.18570350631899    4.20641e-12   4.54624e-10 DIIS
   @RHF iter  18:  -784.18570350631649    2.50111e-12   1.85263e-10 DIIS
   @RHF iter  19:  -784.18570350630898    7.50333e-12   8.54262e-11 DIIS
  Energy and wave function converged.

  ==> Post-Iterations <==

    Orbital Energies [Eh]
    ---------------------

    Doubly Occupied:

       1A    -20.572256     2A    -15.607192     3A    -11.289513
       4A    -11.269441     5A    -11.268999     6A    -11.235654
       7A    -11.234074     8A    -11.233469     9A    -11.231462
      10A    -11.229695    11A    -11.228941    12A    -11.226877
      13A    -11.226468    14A    -11.225940    15A    -11.225427
      16A    -11.224038    17A    -11.223723    18A    -11.222012
      19A    -11.221548    20A     -1.395231    21A     -1.299783
      22A     -1.146783    23A     -1.136249    24A     -1.091539
      25A     -1.033131    26A     -1.023786    27A     -1.011012
      28A     -1.001206    29A     -0.972359    30A     -0.920962
      31A     -0.869855    32A     -0.845838    33A     -0.837903
      34A     -0.808817    35A     -0.796998    36A     -0.752650
      37A     -0.728158    38A     -0.723702    39A     -0.669472
      40A     -0.663716    41A     -0.650650    42A     -0.639672
      43A     -0.624170    44A     -0.607108    45A     -0.601956
      46A     -0.596790    47A     -0.589929    48A     -0.582602
      49A     -0.578974    50A     -0.576698    51A     -0.570032
      52A     -0.561355    53A     -0.555120    54A     -0.524277
      55A     -0.518678    56A     -0.510921    57A     -0.501438
      58A     -0.490286    59A     -0.485470    60A     -0.478871
      61A     -0.470547    62A     -0.467697    63A     -0.461286
      64A     -0.379518    65A     -0.331481    66A     -0.302324
      67A     -0.298661    68A     -0.281791

    Virtual:

      69A      0.118453    70A      0.134548    71A      0.157886
      72A      0.166513    73A      0.174676    74A      0.181306
      75A      0.184031    76A      0.201214    77A      0.211416
      78A      0.216507    79A      0.219329    80A      0.223757
      81A      0.226652    82A      0.246191    83A      0.253231
      84A      0.262874    85A      0.266614    86A      0.270118
      87A      0.278565    88A      0.280454    89A      0.293561
      90A      0.317733    91A      0.332888    92A      0.366730
      93A      0.370773    94A      0.375463    95A      0.379353
      96A      0.393552    97A      0.404404    98A      0.421971
      99A      0.430707   100A      0.434095   101A      0.442974
     102A      0.460840   103A      0.473204   104A      0.478108
     105A      0.484980   106A      0.502238   107A      0.508692
     108A      0.522351   109A      0.530360   110A      0.582628
     111A      0.596187   112A      0.617758   113A      0.622009
     114A      0.629945   115A      0.640572   116A      0.645924
     117A      0.647462   118A      0.656443   119A      0.664962
     120A      0.683174   121A      0.688339   122A      0.691898
     123A      0.701742   124A      0.706993   125A      0.718660
     126A      0.721837   127A      0.730482   128A      0.736310
     129A      0.740542   130A      0.744135   131A      0.748467
     132A      0.753044   133A      0.759093   134A      0.766672
     135A      0.774126   136A      0.779555   137A      0.784230
     138A      0.788651   139A      0.797698   140A      0.802707
     141A      0.812505   142A      0.815331   143A      0.825813
     144A      0.837262   145A      0.843433   146A      0.858842
     147A      0.865794   148A      0.873599   149A      0.880095
     150A      0.883719   151A      0.885081   152A      0.893557
     153A      0.897991   154A      0.902047   155A      0.906673
     156A      0.919114   157A      0.923606   158A      0.925636
     159A      0.933941   160A      0.943321   161A      0.945956
     162A      0.959581   163A      0.962224   164A      0.966346
     165A      0.968513   166A      0.986940   167A      0.996034
     168A      1.002317   169A      1.012022   170A      1.018377
     171A      1.045096   172A      1.049837   173A      1.067775
     174A      1.072138   175A      1.088569   176A      1.095041
     177A      1.106304   178A      1.129785   179A      1.131951
     180A      1.137213   181A      1.148850   182A      1.155169
     183A      1.156519   184A      1.172132   185A      1.176370
     186A      1.199142   187A      1.215013   188A      1.224063
     189A      1.227670   190A      1.238057   191A      1.245939
     192A      1.253401   193A      1.261421   194A      1.266209
     195A      1.276765   196A      1.280594   197A      1.286264
     198A      1.293724   199A      1.316919   200A      1.319994
     201A      1.328856   202A      1.330950   203A      1.336858
     204A      1.349816   205A      1.359335   206A      1.361294
     207A      1.379092   208A      1.394950   209A      1.411482
     210A      1.429297   211A      1.437249   212A      1.454458
     213A      1.470249   214A      1.485512   215A      1.508333
     216A      1.531520   217A      1.550589   218A      1.557312
     219A      1.570421   220A      1.576273   221A      1.606061
     222A      1.616924   223A      1.622764   224A      1.644861
     225A      1.656209   226A      1.676886   227A      1.684838
     228A      1.708668   229A      1.717779   230A      1.733373
     231A      1.736746   232A      1.748108   233A      1.755436
     234A      1.765085   235A      1.773621   236A      1.777751
     237A      1.789905   238A      1.799848   239A      1.814675
     240A      1.820837   241A      1.826852   242A      1.834522
     243A      1.848166   244A      1.867742   245A      1.874218
     246A      1.885734   247A      1.891126   248A      1.902749
     249A      1.906147   250A      1.911545   251A      1.925161
     252A      1.929391   253A      1.931856   254A      1.937261
     255A      1.942340   256A      1.950045   257A      1.950613
     258A      1.959995   259A      1.968798   260A      1.976834
     261A      1.984757   262A      1.989056   263A      1.999649
     264A      2.000487   265A      2.007763   266A      2.016702
     267A      2.022160   268A      2.030747   269A      2.035115
     270A      2.054032   271A      2.060072   272A      2.067174
     273A      2.071027   274A      2.084197   275A      2.086908
     276A      2.094003   277A      2.098558   278A      2.103027
     279A      2.108555   280A      2.123265   281A      2.137836
     282A      2.139209   283A      2.161749   284A      2.167508
     285A      2.171832   286A      2.178933   287A      2.187696
     288A      2.204394   289A      2.218163   290A      2.235786
     291A      2.244190   292A      2.260194   293A      2.267670
     294A      2.271182   295A      2.287624   296A      2.298700
     297A      2.312491   298A      2.326415   299A      2.334585
     300A      2.344654   301A      2.349701   302A      2.364173
     303A      2.397610   304A      2.401084   305A      2.426585
     306A      2.432665   307A      2.453401   308A      2.468306
     309A      2.489672   310A      2.497145   311A      2.509692
     312A      2.527284   313A      2.544158   314A      2.545970
     315A      2.559973   316A      2.580322   317A      2.601066
     318A      2.612132   319A      2.625004   320A      2.631245
     321A      2.658777   322A      2.673229   323A      2.710786
     324A      2.724706   325A      2.762705   326A      2.775633
     327A      2.779305   328A      2.784268   329A      2.788414
     330A      2.803039   331A      2.812383   332A      2.830971
     333A      2.835227   334A      2.846842   335A      2.872315
     336A      2.898878   337A      2.912254   338A      2.927654
     339A      2.933555   340A      2.964256   341A      2.985972
     342A      3.009848   343A      3.022212   344A      3.062977
     345A      3.076481   346A      3.084738   347A      3.111109
     348A      3.126504   349A      3.136400   350A      3.218246
     351A      3.294830   352A      3.308748   353A      3.328593
     354A      3.374650   355A      3.402045   356A      3.596288
     357A      3.696006   358A      3.736919   359A      3.965646
     360A      4.005697   361A      4.200091

    Final Occupation by Irrep:
              A
    DOCC [    68 ]

  @RHF Final Energy:  -784.18570350630898

   => Energetics <=

    Nuclear Repulsion Energy =           1349.2743501642460160
    One-Electron Energy =               -3744.5917447194092347
    Two-Electron Energy =                1611.1316910488544636
    Total Energy =                       -784.1857035063089825

Computation Completed

Properties will be evaluated at   0.000000,   0.000000,   0.000000 [a0]

Properties computed using the SCF density matrix

  Nuclear Dipole Moment: [e a0]
     X:    -6.3026      Y:    -6.4019      Z:     1.5687

  Electronic Dipole Moment: [e a0]
     X:     7.2318      Y:     6.3373      Z:    -1.6610

  Dipole Moment: [e a0]
     X:     0.9292      Y:    -0.0646      Z:    -0.0923     Total:     0.9360

  Dipole Moment: [D]
     X:     2.3617      Y:    -0.1642      Z:    -0.2347     Total:     2.3790

*** tstop() called on ds3 at Wed Apr 29 01:11:09 2020
Module time:
	user time   =     567.34 seconds =       9.46 minutes
	system time =     601.94 seconds =      10.03 minutes
	total time  =      14769 seconds =     246.15 minutes
Total time:
	user time   =     567.34 seconds =       9.46 minutes
	system time =     601.94 seconds =      10.03 minutes
	total time  =      14769 seconds =     246.15 minutes
                                     G D M A

                                 by Anthony Stone

                           version 2.2.06, 22 June 2011

               Distributed Multipoles from Gaussian wavefunctions

Starting at 1:11:9 on 29 Apr 2020

Using SCF density matrix from file ./SSI/SSI-038TRP-081TYR-1-dimer.test.8609.fchk

                         Distributed Multipole Analysis

Standard DMA

Positions and radii in angstrom
Multipole moments in atomic units, ea_0^k for rank k

C          x =  1.322563  y = -1.859086  z =  1.057099 angstrom
           Maximum rank =  0   Radius =  0.650 angstrom
                   Q00  =  -0.069598

C          x =  0.946563  y = -1.450085  z =  2.474099 angstrom
           Maximum rank =  0   Radius =  0.650 angstrom
                   Q00  =  -0.188337

C          x =  2.077563  y = -0.798086  z =  0.307099 angstrom
           Maximum rank =  0   Radius =  0.650 angstrom
                   Q00  =  -0.143237

C          x =  3.107563  y = -0.036086  z =  0.755099 angstrom
           Maximum rank =  0   Radius =  0.650 angstrom
                   Q00  =   0.060245

C          x =  1.838563  y = -0.377086  z = -1.046901 angstrom
           Maximum rank =  0   Radius =  0.650 angstrom
                   Q00  =  -0.059267

C          x =  2.772563  y =  0.640914  z = -1.357901 angstrom
           Maximum rank =  0   Radius =  0.650 angstrom
                   Q00  =   0.252698

C          x =  0.943563  y = -0.795085  z = -2.037901 angstrom
           Maximum rank =  0   Radius =  0.650 angstrom
                   Q00  =  -0.105047

C          x =  2.814563  y =  1.252914  z = -2.601901 angstrom
           Maximum rank =  0   Radius =  0.650 angstrom
                   Q00  =  -0.118777

C          x =  0.985563  y = -0.195086  z = -3.278901 angstrom
           Maximum rank =  0   Radius =  0.650 angstrom
                   Q00  =  -0.093854

C          x =  1.906563  y =  0.818915  z = -3.556901 angstrom
           Maximum rank =  0   Radius =  0.650 angstrom
                   Q00  =  -0.003043

N          x =  3.540563  y =  0.820915  z = -0.236901 angstrom
           Maximum rank =  0   Radius =  0.650 angstrom
                   Q00  =  -0.504075

H          x =  1.897563  y = -2.779085  z =  1.051099 angstrom
           Maximum rank =  0   Radius =  0.325 angstrom
                   Q00  =   0.086897

H          x =  0.419563  y = -2.046085  z =  0.482099 angstrom
           Maximum rank =  0   Radius =  0.325 angstrom
                   Q00  =   0.082111

H          x =  0.670563  y = -0.410086  z =  2.406099 angstrom
           Maximum rank =  0   Radius =  0.325 angstrom
                   Q00  =   0.006517

H          x =  3.544563  y = -0.100085  z =  1.742099 angstrom
           Maximum rank =  0   Radius =  0.325 angstrom
                   Q00  =   0.100797

H          x =  4.303563  y =  1.482914  z = -0.129901 angstrom
           Maximum rank =  0   Radius =  0.325 angstrom
                   Q00  =   0.219880

H          x =  0.220563  y = -1.569085  z = -1.830901 angstrom
           Maximum rank =  0   Radius =  0.325 angstrom
                   Q00  =   0.071761

H          x =  3.528563  y =  2.032915  z = -2.811901 angstrom
           Maximum rank =  0   Radius =  0.325 angstrom
                   Q00  =   0.076529

H          x =  0.304563  y = -0.523086  z = -4.045901 angstrom
           Maximum rank =  0   Radius =  0.325 angstrom
                   Q00  =   0.059779

H          x =  1.913563  y =  1.254915  z = -4.539901 angstrom
           Maximum rank =  0   Radius =  0.325 angstrom
                   Q00  =   0.066051

H          x =  1.810343  y = -1.528265  z =  3.150689 angstrom
           Maximum rank =  0   Radius =  0.325 angstrom
                   Q00  =   0.080218

H          x =  0.051763  y = -1.977155  z =  2.836779 angstrom
           Maximum rank =  0   Radius =  0.325 angstrom
                   Q00  =   0.100790

C          x = -4.555437  y = -0.752086  z = -0.951901 angstrom
           Maximum rank =  0   Radius =  0.650 angstrom
                   Q00  =  -0.192520

C          x = -1.425437  y =  0.568914  z =  0.737099 angstrom
           Maximum rank =  0   Radius =  0.650 angstrom
                   Q00  =  -0.172337

C          x = -2.302437  y =  0.072914  z = -0.228901 angstrom
           Maximum rank =  0   Radius =  0.650 angstrom
                   Q00  =  -0.020496

C          x = -1.872437  y =  0.753915  z =  2.040099 angstrom
           Maximum rank =  0   Radius =  0.650 angstrom
                   Q00  =   0.257916

C          x = -3.607437  y = -0.242086  z =  0.099099 angstrom
           Maximum rank =  0   Radius =  0.650 angstrom
                   Q00  =  -0.136104

C          x = -3.178437  y =  0.430915  z =  2.388099 angstrom
           Maximum rank =  0   Radius =  0.650 angstrom
                   Q00  =  -0.120598

C          x = -4.031437  y = -0.074086  z =  1.411099 angstrom
           Maximum rank =  0   Radius =  0.650 angstrom
                   Q00  =   0.036043

O          x = -0.983437  y =  1.241915  z =  2.948099 angstrom
           Maximum rank =  0   Radius =  0.650 angstrom
                   Q00  =  -0.624406

H          x = -0.406437  y =  0.797915  z =  0.463099 angstrom
           Maximum rank =  0   Radius =  0.325 angstrom
                   Q00  =   0.086200

H          x = -1.951437  y = -0.061085  z = -1.244901 angstrom
           Maximum rank =  0   Radius =  0.325 angstrom
                   Q00  =   0.067829

H          x = -0.090437  y =  1.036915  z =  2.682099 angstrom
           Maximum rank =  0   Radius =  0.325 angstrom
                   Q00  =   0.414654

H          x = -3.518437  y =  0.571914  z =  3.404099 angstrom
           Maximum rank =  0   Radius =  0.325 angstrom
                   Q00  =   0.078858

H          x = -5.088437  y = -1.621086  z = -0.561901 angstrom
           Maximum rank =  0   Radius =  0.325 angstrom
                   Q00  =   0.093897

H          x = -3.980437  y = -1.079086  z = -1.817901 angstrom
           Maximum rank =  0   Radius =  0.325 angstrom
                   Q00  =   0.094214

H          x = -5.049437  y = -0.327086  z =  1.678099 angstrom
           Maximum rank =  0   Radius =  0.325 angstrom
                   Q00  =   0.057998

H          x = -5.287139  y =  0.011054  z = -1.255591 angstrom
           Maximum rank =  0   Radius =  0.325 angstrom
                   Q00  =   0.099816

Total multipoles referred to origin at
           x =   0.000000,  y =    0.000000,  z =    0.000000 angstrom
                   Q00  =  -0.000000

Finished at 1:11:9 on 29 Apr 2020

  DMA results are available in the Python driver through the
	  variable('DMA DISTRIBUTED MULTIPOLES')
  and
	  variable('DMA TOTAL MULTIPOLES')
  commands.

    Psi4 stopped on: Wednesday, 29 April 2020 01:11AM
    Psi4 wall time for execution: 4:06:08.71

*** Psi4 exiting successfully. Buy a developer a beer!
