                               Psi4 1.3.2 release

  ==> Input File <==

--------------------------------------------------------------------------
import numpy as np
set {scf_type pk
basis cc-pvdz
d_convergence 10
gdma_switch   0
gdma_limit    0
gdma_origin   [ 0.0,  0.0,  0.0 ]
}
molecule test {
    units Angstrom
    0 1
    --
    0 1
    C               -1.102031035396458     1.360873951048491     2.482918637875613
    C               -0.367031035396458     0.386873951048491     0.271918637875613
    C               -0.080031035396458     0.654873951048491     1.621918637875613
    C                0.549968964603542    -0.264126048951509    -0.569081362124387
    C                1.771968964603542    -0.684126048951509    -0.082081362124387
    C                1.179968964603542     0.259873951048491     2.118918637875613
    C                2.096968964603543    -0.418126048951509     1.263918637875613
    O                2.703968964603542    -1.286126048951509    -0.892081362124387
    H               -1.329031035396458     0.663873951048491    -0.116081362124387
    H                0.292968964603542    -0.438126048951509    -1.603081362124387
    H               -0.683031035396458     1.565873951048491     3.469918637875613
    H               -1.945031035396458     0.682873951048491     2.601918637875613
    H                1.449968964603542     0.468873951048491     3.144918637875612
    H                2.287968964603542    -1.564126048951509    -1.710081362124387
    H                3.061968964603543    -0.724126048951509     1.641918637875613
    H               -1.439572035396458     2.296553951048491     2.013268637875612
    C               -3.116031035396458     0.563873951048491    -2.079081362124387
    C               -3.104031035396457    -0.425126048951509    -3.282081362124388
    H               -3.902031035396457     1.305873951048491    -2.214081362124388
    H               -3.315031035396458     0.024873951048491    -1.152081362124387
    H               -2.159031035396457     1.080873951048491    -2.031081362124387
    H               -4.129031035396458    -0.771126048951509    -3.420081362124388
    H               -2.765551885396457     0.050303951048491    -4.214491362124387
    H               -2.498340335396458    -1.315416048951509    -3.057321362124387

}
e, wfn = energy('scf', return_wfn=True)
gdma(wfn)
dmavals = variable('DMA DISTRIBUTED MULTIPOLES')
charges = np.array(dmavals)
print(charges)
np.save('SSI-034TYR-148VAL-1-dimer.npy', np.array(charges))--------------------------------------------------------------------------

*** tstart() called on ds3
*** at Tue Apr 28 12:33:37 2020

   => Loading Basis Set <=

    Name: CC-PVDZ
    Role: ORBITAL
    Keyword: BASIS
    atoms 1-7, 17-18  entry C          line   138 file /theoryfs2/ds/metcalf/miniconda2/envs/tf2gpu/share/psi4/basis/cc-pvdz.gbs
    atoms 8           entry O          line   198 file /theoryfs2/ds/metcalf/miniconda2/envs/tf2gpu/share/psi4/basis/cc-pvdz.gbs
    atoms 9-16, 19-24 entry H          line    22 file /theoryfs2/ds/metcalf/miniconda2/envs/tf2gpu/share/psi4/basis/cc-pvdz.gbs

         ---------------------------------------------------------
                                   SCF
               by Justin Turney, Rob Parrish, Andy Simmonett
                          and Daniel G. A. Smith
                              RHF Reference
                        1 Threads,    500 MiB Core
         ---------------------------------------------------------

  ==> Geometry <==

    Molecular point group: c1
    Full point group: C1

    Geometry (in Angstrom), charge = 0, multiplicity = 1:

       Center              X                  Y                   Z               Mass
    ------------   -----------------  -----------------  -----------------  -----------------
         C           -1.102031035396     1.360873951048     2.482918637876    12.000000000000
         C           -0.367031035396     0.386873951048     0.271918637876    12.000000000000
         C           -0.080031035396     0.654873951048     1.621918637876    12.000000000000
         C            0.549968964604    -0.264126048952    -0.569081362124    12.000000000000
         C            1.771968964604    -0.684126048952    -0.082081362124    12.000000000000
         C            1.179968964604     0.259873951048     2.118918637876    12.000000000000
         C            2.096968964604    -0.418126048952     1.263918637876    12.000000000000
         O            2.703968964604    -1.286126048952    -0.892081362124    15.994914619570
         H           -1.329031035396     0.663873951048    -0.116081362124     1.007825032230
         H            0.292968964604    -0.438126048952    -1.603081362124     1.007825032230
         H           -0.683031035396     1.565873951048     3.469918637876     1.007825032230
         H           -1.945031035396     0.682873951048     2.601918637876     1.007825032230
         H            1.449968964604     0.468873951048     3.144918637876     1.007825032230
         H            2.287968964604    -1.564126048952    -1.710081362124     1.007825032230
         H            3.061968964604    -0.724126048952     1.641918637876     1.007825032230
         H           -1.439572035396     2.296553951048     2.013268637876     1.007825032230
         C           -3.116031035396     0.563873951048    -2.079081362124    12.000000000000
         C           -3.104031035396    -0.425126048952    -3.282081362124    12.000000000000
         H           -3.902031035396     1.305873951048    -2.214081362124     1.007825032230
         H           -3.315031035396     0.024873951048    -1.152081362124     1.007825032230
         H           -2.159031035396     1.080873951048    -2.031081362124     1.007825032230
         H           -4.129031035396    -0.771126048952    -3.420081362124     1.007825032230
         H           -2.765551885396     0.050303951048    -4.214491362124     1.007825032230
         H           -2.498340335396    -1.315416048952    -3.057321362124     1.007825032230

  Running in c1 symmetry.

  Rotational constants: A =      0.04558  B =      0.02225  C =      0.01515 [cm^-1]
  Rotational constants: A =   1366.40641  B =    667.00496  C =    454.31432 [MHz]
  Nuclear repulsion =  485.462650962977534

  Charge       = 0
  Multiplicity = 1
  Electrons    = 76
  Nalpha       = 38
  Nbeta        = 38

  ==> Algorithm <==

  SCF Algorithm Type is PK.
  DIIS enabled.
  MOM disabled.
  Fractional occupation disabled.
  Guess Type is SAD.
  Energy threshold   = 1.00e-06
  Density threshold  = 1.00e-10
  Integral threshold = 0.00e+00

  ==> Primary Basis <==

  Basis Set: CC-PVDZ
    Blend: CC-PVDZ
    Number of shells: 102
    Number of basis function: 210
    Number of Cartesian functions: 220
    Spherical Harmonics?: true
    Max angular momentum: 2

  ==> Pre-Iterations <==

   -------------------------------------------------------
    Irrep   Nso     Nmo     Nalpha   Nbeta   Ndocc  Nsocc
   -------------------------------------------------------
     A        210     210       0       0       0       0
   -------------------------------------------------------
    Total     210     210      38      38      38       0
   -------------------------------------------------------

  ==> Integral Setup <==

  Using integral reordering PK algorithm.
  Sizing the integral batches needed.
  Building batch lookup table.
   Calculation information:
      Number of atoms:                  24
      Number of AO shells:             102
      Number of primitives:            290
      Number of atomic orbitals:       220
      Number of basis functions:       210

      Integral cutoff                 1.00e-12
      Number of threads:                 1

	Batch   1 pq = [       0,    9405] index = [             0,44231715] size =     44231715
	Batch   2 pq = [    9405,   13301] index = [      44231715,88464951] size =     44233236
	Batch   3 pq = [   13301,   16290] index = [      88464951,132690195] size =     44225244
	Batch   4 pq = [   16290,   18810] index = [     132690195,176917455] size =     44227260
	Batch   5 pq = [   18810,   21030] index = [     176917455,221140965] size =     44223510
	Batch   6 pq = [   21030,   22155] index = [     221140965,245433090] size =     24292125
  Task number: 23
  Buffer size: 11059200
  Buffer per thread: 2
  We computed 11166407 shell quartets total.
  Whereas there are 13799631 unique shell quartets.

  ==> DiskJK: Disk-Based J/K Matrices <==

    J tasked:                  Yes
    K tasked:                  Yes
    wK tasked:                  No
    Memory [MiB]:              375
    Schwarz Cutoff:          1E-12

    OpenMP threads:              1

  Minimum eigenvalue in the overlap matrix is 3.3330462838E-04.
  Using Symmetric Orthogonalization.

  SCF Guess: Superposition of Atomic Densities via on-the-fly atomic UHF.

  ==> Iterations <==

                        Total Energy        Delta E     RMS |[F,P]|

   @RHF iter SAD:  -422.49868585077007   -4.22499e+02   0.00000e+00
   @RHF iter   1:  -423.60473895543004   -1.10605e+00   2.92150e-03 DIIS
   @RHF iter   2:  -423.81565775044646   -2.10919e-01   1.21563e-03 DIIS
   @RHF iter   3:  -423.84821150550545   -3.25538e-02   2.81032e-04 DIIS
   @RHF iter   4:  -423.85104060448532   -2.82910e-03   1.13868e-04 DIIS
   @RHF iter   5:  -423.85137004256313   -3.29438e-04   2.09116e-05 DIIS
   @RHF iter   6:  -423.85138743321465   -1.73907e-05   6.44665e-06 DIIS
   @RHF iter   7:  -423.85138903938923   -1.60617e-06   2.08285e-06 DIIS
   @RHF iter   8:  -423.85138925292739   -2.13538e-07   7.58878e-07 DIIS
   @RHF iter   9:  -423.85138928477659   -3.18492e-08   2.80059e-07 DIIS
   @RHF iter  10:  -423.85138928996776   -5.19117e-09   1.12089e-07 DIIS
   @RHF iter  11:  -423.85138929148331   -1.51556e-09   5.16686e-08 DIIS
   @RHF iter  12:  -423.85138929180977   -3.26452e-10   2.69244e-08 DIIS
   @RHF iter  13:  -423.85138929188298   -7.32143e-11   8.27177e-09 DIIS
   @RHF iter  14:  -423.85138929189071   -7.73070e-12   2.22853e-09 DIIS
   @RHF iter  15:  -423.85138929189304   -2.33058e-12   7.15926e-10 DIIS
   @RHF iter  16:  -423.85138929189168    1.36424e-12   2.13832e-10 DIIS
   @RHF iter  17:  -423.85138929189151    1.70530e-13   6.80038e-11 DIIS
  Energy and wave function converged.

  ==> Post-Iterations <==

    Orbital Energies [Eh]
    ---------------------

    Doubly Occupied:

       1A    -20.583159     2A    -11.298842     3A    -11.243085
       4A    -11.237744     5A    -11.236440     6A    -11.234782
       7A    -11.233993     8A    -11.229837     9A    -11.227754
      10A    -11.226170    11A     -1.396360    12A     -1.141737
      13A     -1.036065    14A     -1.018819    15A     -1.008210
      16A     -0.925615    17A     -0.848239    18A     -0.840836
      19A     -0.796014    20A     -0.727314    21A     -0.664703
      22A     -0.638466    23A     -0.609327    24A     -0.604191
      25A     -0.599144    26A     -0.583783    27A     -0.577373
      28A     -0.573537    29A     -0.566213    30A     -0.527607
      31A     -0.504814    32A     -0.497855    33A     -0.495713
      34A     -0.493304    35A     -0.478603    36A     -0.461530
      37A     -0.332203    38A     -0.301385

    Virtual:

      39A      0.126327    40A      0.153454    41A      0.165276
      42A      0.184653    43A      0.196021    44A      0.214559
      45A      0.231798    46A      0.236821    47A      0.246575
      48A      0.255345    49A      0.260217    50A      0.271574
      51A      0.283904    52A      0.290241    53A      0.312690
      54A      0.326374    55A      0.369815    56A      0.378433
      57A      0.390258    58A      0.425870    59A      0.452639
      60A      0.485145    61A      0.488856    62A      0.508421
      63A      0.588263    64A      0.601473    65A      0.618197
      66A      0.620627    67A      0.629377    68A      0.648626
      69A      0.663793    70A      0.684284    71A      0.692455
      72A      0.694626    73A      0.713906    74A      0.728925
      75A      0.735849    76A      0.742817    77A      0.772785
      78A      0.781233    79A      0.784561    80A      0.788643
      81A      0.804760    82A      0.828367    83A      0.841242
      84A      0.845126    85A      0.849313    86A      0.876208
      87A      0.882288    88A      0.887419    89A      0.888721
      90A      0.898335    91A      0.906311    92A      0.907797
      93A      0.914764    94A      0.918950    95A      0.930068
      96A      0.945130    97A      0.953599    98A      0.970398
      99A      0.990841   100A      1.011619   101A      1.051836
     102A      1.057178   103A      1.112590   104A      1.113907
     105A      1.138700   106A      1.141931   107A      1.156396
     108A      1.200786   109A      1.213992   110A      1.222062
     111A      1.246085   112A      1.258688   113A      1.264183
     114A      1.286036   115A      1.302504   116A      1.307487
     117A      1.341048   118A      1.358037   119A      1.367647
     120A      1.382273   121A      1.453787   122A      1.475602
     123A      1.482297   124A      1.514095   125A      1.536484
     126A      1.563373   127A      1.574009   128A      1.618669
     129A      1.647113   130A      1.669761   131A      1.679042
     132A      1.682314   133A      1.705957   134A      1.721014
     135A      1.739104   136A      1.783538   137A      1.799303
     138A      1.802335   139A      1.856254   140A      1.860669
     141A      1.867733   142A      1.881360   143A      1.884924
     144A      1.894177   145A      1.901241   146A      1.911528
     147A      1.917999   148A      1.921018   149A      1.934703
     150A      1.942577   151A      1.948985   152A      1.952140
     153A      1.960649   154A      1.966269   155A      1.994798
     156A      2.002419   157A      2.026103   158A      2.037870
     159A      2.059491   160A      2.064368   161A      2.078283
     162A      2.086731   163A      2.112966   164A      2.127088
     165A      2.146976   166A      2.194454   167A      2.207154
     168A      2.228041   169A      2.254109   170A      2.267109
     171A      2.292146   172A      2.306385   173A      2.310879
     174A      2.348545   175A      2.368766   176A      2.391243
     177A      2.432213   178A      2.456681   179A      2.470514
     180A      2.477949   181A      2.492685   182A      2.521332
     183A      2.538133   184A      2.555336   185A      2.588107
     186A      2.609465   187A      2.619506   188A      2.739064
     189A      2.754446   190A      2.771419   191A      2.778630
     192A      2.790284   193A      2.819533   194A      2.834463
     195A      2.836621   196A      2.857474   197A      2.870763
     198A      2.935050   199A      2.946360   200A      2.976237
     201A      2.999788   202A      3.060115   203A      3.100192
     204A      3.265343   205A      3.271531   206A      3.344109
     207A      3.561478   208A      3.660363   209A      3.927057
     210A      4.174295

    Final Occupation by Irrep:
              A
    DOCC [    38 ]

  @RHF Final Energy:  -423.85138929189151

   => Energetics <=

    Nuclear Repulsion Energy =            485.4626509629775342
    One-Electron Energy =               -1536.6265499338774134
    Two-Electron Energy =                 627.3125096790083717
    Total Energy =                       -423.8513892918915644

Computation Completed

Properties will be evaluated at   0.000000,   0.000000,   0.000000 [a0]

Properties computed using the SCF density matrix

  Nuclear Dipole Moment: [e a0]
     X:   -15.9922      Y:     3.1128      Z:    -6.2351

  Electronic Dipole Moment: [e a0]
     X:    15.3561      Y:    -3.0811      Z:     5.9788

  Dipole Moment: [e a0]
     X:    -0.6361      Y:     0.0317      Z:    -0.2564     Total:     0.6866

  Dipole Moment: [D]
     X:    -1.6168      Y:     0.0807      Z:    -0.6516     Total:     1.7451

*** tstop() called on ds3 at Tue Apr 28 12:36:14 2020
Module time:
	user time   =      85.31 seconds =       1.42 minutes
	system time =      35.36 seconds =       0.59 minutes
	total time  =        157 seconds =       2.62 minutes
Total time:
	user time   =      85.31 seconds =       1.42 minutes
	system time =      35.36 seconds =       0.59 minutes
	total time  =        157 seconds =       2.62 minutes
                                     G D M A

                                 by Anthony Stone

                           version 2.2.06, 22 June 2011

               Distributed Multipoles from Gaussian wavefunctions

Starting at 12:36:14 on 28 Apr 2020

Using SCF density matrix from file ./SSI/SSI-034TYR-148VAL-1-dimer.test.15084.fchk

                         Distributed Multipole Analysis

Standard DMA

Positions and radii in angstrom
Multipole moments in atomic units, ea_0^k for rank k

C          x = -1.102031  y =  1.360874  z =  2.482919 angstrom
           Maximum rank =  0   Radius =  0.650 angstrom
                   Q00  =  -0.200166

C          x = -0.367031  y =  0.386874  z =  0.271919 angstrom
           Maximum rank =  0   Radius =  0.650 angstrom
                   Q00  =   0.044824

C          x = -0.080031  y =  0.654874  z =  1.621919 angstrom
           Maximum rank =  0   Radius =  0.650 angstrom
                   Q00  =  -0.132109

C          x =  0.549969  y = -0.264126  z = -0.569081 angstrom
           Maximum rank =  0   Radius =  0.650 angstrom
                   Q00  =  -0.180236

C          x =  1.771969  y = -0.684126  z = -0.082081 angstrom
           Maximum rank =  0   Radius =  0.650 angstrom
                   Q00  =   0.300510

C          x =  1.179969  y =  0.259874  z =  2.118919 angstrom
           Maximum rank =  0   Radius =  0.650 angstrom
                   Q00  =  -0.049529

C          x =  2.096969  y = -0.418126  z =  1.263919 angstrom
           Maximum rank =  0   Radius =  0.650 angstrom
                   Q00  =  -0.109363

O          x =  2.703969  y = -1.286126  z = -0.892081 angstrom
           Maximum rank =  0   Radius =  0.650 angstrom
                   Q00  =  -0.672204

H          x = -1.329031  y =  0.663874  z = -0.116081 angstrom
           Maximum rank =  0   Radius =  0.325 angstrom
                   Q00  =   0.071817

H          x =  0.292969  y = -0.438126  z = -1.603081 angstrom
           Maximum rank =  0   Radius =  0.325 angstrom
                   Q00  =   0.070762

H          x = -0.683031  y =  1.565874  z =  3.469919 angstrom
           Maximum rank =  0   Radius =  0.325 angstrom
                   Q00  =   0.099993

H          x = -1.945031  y =  0.682874  z =  2.601919 angstrom
           Maximum rank =  0   Radius =  0.325 angstrom
                   Q00  =   0.099827

H          x =  1.449969  y =  0.468874  z =  3.144919 angstrom
           Maximum rank =  0   Radius =  0.325 angstrom
                   Q00  =   0.070289

H          x =  2.287969  y = -1.564126  z = -1.710081 angstrom
           Maximum rank =  0   Radius =  0.325 angstrom
                   Q00  =   0.401611

H          x =  3.061969  y = -0.724126  z =  1.641919 angstrom
           Maximum rank =  0   Radius =  0.325 angstrom
                   Q00  =   0.083718

H          x = -1.439572  y =  2.296554  z =  2.013269 angstrom
           Maximum rank =  0   Radius =  0.325 angstrom
                   Q00  =   0.100791

C          x = -3.116031  y =  0.563874  z = -2.079081 angstrom
           Maximum rank =  0   Radius =  0.650 angstrom
                   Q00  =  -0.246206

C          x = -3.104031  y = -0.425126  z = -3.282081 angstrom
           Maximum rank =  0   Radius =  0.650 angstrom
                   Q00  =  -0.246458

H          x = -3.902031  y =  1.305874  z = -2.214081 angstrom
           Maximum rank =  0   Radius =  0.325 angstrom
                   Q00  =   0.085507

H          x = -3.315031  y =  0.024874  z = -1.152081 angstrom
           Maximum rank =  0   Radius =  0.325 angstrom
                   Q00  =   0.082272

H          x = -2.159031  y =  1.080874  z = -2.031081 angstrom
           Maximum rank =  0   Radius =  0.325 angstrom
                   Q00  =   0.078217

H          x = -4.129031  y = -0.771126  z = -3.420081 angstrom
           Maximum rank =  0   Radius =  0.325 angstrom
                   Q00  =   0.081026

H          x = -2.765552  y =  0.050304  z = -4.214491 angstrom
           Maximum rank =  0   Radius =  0.325 angstrom
                   Q00  =   0.085361

H          x = -2.498340  y = -1.315416  z = -3.057321 angstrom
           Maximum rank =  0   Radius =  0.325 angstrom
                   Q00  =   0.079747

Total multipoles referred to origin at
           x =   0.000000,  y =    0.000000,  z =    0.000000 angstrom
                   Q00  =  -0.000000

Finished at 12:36:15 on 28 Apr 2020

  DMA results are available in the Python driver through the
	  variable('DMA DISTRIBUTED MULTIPOLES')
  and
	  variable('DMA TOTAL MULTIPOLES')
  commands.

    Psi4 stopped on: Tuesday, 28 April 2020 12:36PM
    Psi4 wall time for execution: 0:02:37.85

*** Psi4 exiting successfully. Buy a developer a beer!
