                               Psi4 1.3.2 release

  ==> Input File <==

--------------------------------------------------------------------------
import numpy as np
set {scf_type pk
basis cc-pvdz
d_convergence 10
gdma_switch   0
gdma_limit    0
gdma_origin   [ 0.0,  0.0,  0.0 ]
}
molecule test {
    units Angstrom
    0 1
    --
    0 1
    C               -0.068801588975818    -2.869102558815079     2.244742381144398
    C                0.812198411024182    -3.309102558815079     3.445742381144398
    H               -0.312801588975818    -3.726102558815079     1.614742381144398
    H               -0.991801588975818    -2.425102558815079     2.612742381144398
    H                0.482198411024182    -2.130102558815079     1.667742381144398
    H                1.056198411024182    -2.428102558815080     4.033742381144398
    H                1.731578411024182    -3.718031558815079     3.001315381144398
    H                0.230798411024182    -3.986334558815079     4.088647381144398
    C               -1.024801588975818    -0.579102558815079    -2.546257618855602
    C               -0.142801588975818    -0.025102558815079    -0.271257618855602
    C               -0.479801588975818     0.402897441184921    -1.570257618855602
    C                0.392198411024182     0.865897441184921     0.672742381144398
    C               -0.286801588975818     1.738897441184921    -1.924257618855602
    C                0.583198411024182     2.202897441184921     0.326742381144398
    C                0.239198411024182     2.643897441184921    -0.984257618855602
    H               -0.317801588975818    -1.055102558815079    -0.002257618855602
    H                0.639198411024182     0.519897441184921     1.667742381144398
    H               -1.742801588975818    -0.083102558815079    -3.192257618855602
    H               -1.570801588975818    -1.338102558815079    -1.992257618855602
    H               -0.573801588975818     2.087897441184921    -2.905257618855602
    H                0.985198411024182     2.900897441184921     1.047742381144398
    H                0.355198411024182     3.681897441184921    -1.261257618855602
    H               -0.253771588975818    -1.065542558815079    -3.161797618855602

}
e, wfn = energy('scf', return_wfn=True)
gdma(wfn)
dmavals = variable('DMA DISTRIBUTED MULTIPOLES')
charges = np.array(dmavals)
print(charges)
np.save('SSI-060LEU-068PHE-1-dimer.npy', np.array(charges))--------------------------------------------------------------------------

*** tstart() called on ds3
*** at Tue Apr 28 03:22:25 2020

   => Loading Basis Set <=

    Name: CC-PVDZ
    Role: ORBITAL
    Keyword: BASIS
    atoms 1-2, 9-15  entry C          line   138 file /theoryfs2/ds/metcalf/miniconda2/envs/tf2gpu/share/psi4/basis/cc-pvdz.gbs
    atoms 3-8, 16-23 entry H          line    22 file /theoryfs2/ds/metcalf/miniconda2/envs/tf2gpu/share/psi4/basis/cc-pvdz.gbs

         ---------------------------------------------------------
                                   SCF
               by Justin Turney, Rob Parrish, Andy Simmonett
                          and Daniel G. A. Smith
                              RHF Reference
                        1 Threads,    500 MiB Core
         ---------------------------------------------------------

  ==> Geometry <==

    Molecular point group: c1
    Full point group: C1

    Geometry (in Angstrom), charge = 0, multiplicity = 1:

       Center              X                  Y                   Z               Mass
    ------------   -----------------  -----------------  -----------------  -----------------
         C           -0.068801588976    -2.869102558815     2.244742381144    12.000000000000
         C            0.812198411024    -3.309102558815     3.445742381144    12.000000000000
         H           -0.312801588976    -3.726102558815     1.614742381144     1.007825032230
         H           -0.991801588976    -2.425102558815     2.612742381144     1.007825032230
         H            0.482198411024    -2.130102558815     1.667742381144     1.007825032230
         H            1.056198411024    -2.428102558815     4.033742381144     1.007825032230
         H            1.731578411024    -3.718031558815     3.001315381144     1.007825032230
         H            0.230798411024    -3.986334558815     4.088647381144     1.007825032230
         C           -1.024801588976    -0.579102558815    -2.546257618856    12.000000000000
         C           -0.142801588976    -0.025102558815    -0.271257618856    12.000000000000
         C           -0.479801588976     0.402897441185    -1.570257618856    12.000000000000
         C            0.392198411024     0.865897441185     0.672742381144    12.000000000000
         C           -0.286801588976     1.738897441185    -1.924257618856    12.000000000000
         C            0.583198411024     2.202897441185     0.326742381144    12.000000000000
         C            0.239198411024     2.643897441185    -0.984257618856    12.000000000000
         H           -0.317801588976    -1.055102558815    -0.002257618856     1.007825032230
         H            0.639198411024     0.519897441185     1.667742381144     1.007825032230
         H           -1.742801588976    -0.083102558815    -3.192257618856     1.007825032230
         H           -1.570801588976    -1.338102558815    -1.992257618856     1.007825032230
         H           -0.573801588976     2.087897441185    -2.905257618856     1.007825032230
         H            0.985198411024     2.900897441185     1.047742381144     1.007825032230
         H            0.355198411024     3.681897441185    -1.261257618856     1.007825032230
         H           -0.253771588976    -1.065542558815    -3.161797618856     1.007825032230

  Running in c1 symmetry.

  Rotational constants: A =      0.07901  B =      0.02057  C =      0.01654 [cm^-1]
  Rotational constants: A =   2368.66070  B =    616.59759  C =    495.86364 [MHz]
  Nuclear repulsion =  396.621187781617436

  Charge       = 0
  Multiplicity = 1
  Electrons    = 68
  Nalpha       = 34
  Nbeta        = 34

  ==> Algorithm <==

  SCF Algorithm Type is PK.
  DIIS enabled.
  MOM disabled.
  Fractional occupation disabled.
  Guess Type is SAD.
  Energy threshold   = 1.00e-06
  Density threshold  = 1.00e-10
  Integral threshold = 0.00e+00

  ==> Primary Basis <==

  Basis Set: CC-PVDZ
    Blend: CC-PVDZ
    Number of shells: 96
    Number of basis function: 196
    Number of Cartesian functions: 205
    Spherical Harmonics?: true
    Max angular momentum: 2

  ==> Pre-Iterations <==

   -------------------------------------------------------
    Irrep   Nso     Nmo     Nalpha   Nbeta   Ndocc  Nsocc
   -------------------------------------------------------
     A        196     196       0       0       0       0
   -------------------------------------------------------
    Total     196     196      34      34      34       0
   -------------------------------------------------------

  ==> Integral Setup <==

  Using integral reordering PK algorithm.
  Sizing the integral batches needed.
  Building batch lookup table.
   Calculation information:
      Number of atoms:                  23
      Number of AO shells:              96
      Number of primitives:            268
      Number of atomic orbitals:       205
      Number of basis functions:       196

      Integral cutoff                 1.00e-12
      Number of threads:                 1

	Batch   1 pq = [       0,    9405] index = [             0,44231715] size =     44231715
	Batch   2 pq = [    9405,   13301] index = [      44231715,88464951] size =     44233236
	Batch   3 pq = [   13301,   16290] index = [      88464951,132690195] size =     44225244
	Batch   4 pq = [   16290,   18810] index = [     132690195,176917455] size =     44227260
	Batch   5 pq = [   18810,   19306] index = [     176917455,186370471] size =      9453016
  Task number: 17
  Buffer size: 11059200
  Buffer per thread: 2
  We computed 8485755 shell quartets total.
  Whereas there are 10841496 unique shell quartets.

  ==> DiskJK: Disk-Based J/K Matrices <==

    J tasked:                  Yes
    K tasked:                  Yes
    wK tasked:                  No
    Memory [MiB]:              375
    Schwarz Cutoff:          1E-12

    OpenMP threads:              1

  Minimum eigenvalue in the overlap matrix is 3.2771328456E-04.
  Using Symmetric Orthogonalization.

  SCF Guess: Superposition of Atomic Densities via on-the-fly atomic UHF.

  ==> Iterations <==

                        Total Energy        Delta E     RMS |[F,P]|

   @RHF iter SAD:  -347.74709322532908   -3.47747e+02   0.00000e+00
   @RHF iter   1:  -348.76751006405573   -1.02042e+00   2.84715e-03 DIIS
   @RHF iter   2:  -348.95626233374747   -1.88752e-01   1.16099e-03 DIIS
   @RHF iter   3:  -348.98477730008784   -2.85150e-02   2.59052e-04 DIIS
   @RHF iter   4:  -348.98723435510919   -2.45706e-03   6.05509e-05 DIIS
   @RHF iter   5:  -348.98732487703069   -9.05219e-05   2.02962e-05 DIIS
   @RHF iter   6:  -348.98733508767367   -1.02106e-05   5.01499e-06 DIIS
   @RHF iter   7:  -348.98733581686412   -7.29190e-07   1.15517e-06 DIIS
   @RHF iter   8:  -348.98733586253650   -4.56724e-08   2.89101e-07 DIIS
   @RHF iter   9:  -348.98733586671113   -4.17464e-09   1.14185e-07 DIIS
   @RHF iter  10:  -348.98733586746880   -7.57666e-10   5.06970e-08 DIIS
   @RHF iter  11:  -348.98733586773403   -2.65231e-10   2.03065e-08 DIIS
   @RHF iter  12:  -348.98733586778076   -4.67253e-11   1.02420e-08 DIIS
   @RHF iter  13:  -348.98733586779241   -1.16529e-11   4.16136e-09 DIIS
   @RHF iter  14:  -348.98733586779389   -1.47793e-12   1.29891e-09 DIIS
   @RHF iter  15:  -348.98733586779412   -2.27374e-13   4.28518e-10 DIIS
   @RHF iter  16:  -348.98733586779440   -2.84217e-13   1.39490e-10 DIIS
   @RHF iter  17:  -348.98733586779298    1.42109e-12   6.49274e-11 DIIS
  Energy and wave function converged.

  ==> Post-Iterations <==

    Orbital Energies [Eh]
    ---------------------

    Doubly Occupied:

       1A    -11.240773     2A    -11.240327     3A    -11.237815
       4A    -11.235620     5A    -11.232364     6A    -11.230875
       7A    -11.226375     8A    -11.223020     9A    -11.219884
      10A     -1.145122    11A     -1.043051    12A     -1.017063
      13A     -1.006378    14A     -0.929009    15A     -0.838965
      16A     -0.822602    17A     -0.792451    18A     -0.687379
      19A     -0.632979    20A     -0.626937    21A     -0.606767
      22A     -0.597888    23A     -0.580400    24A     -0.577936
      25A     -0.561472    26A     -0.533130    27A     -0.497991
      28A     -0.493052    29A     -0.486855    30A     -0.482716
      31A     -0.480005    32A     -0.478601    33A     -0.329990
      34A     -0.317158

    Virtual:

      35A      0.133104    36A      0.138419    37A      0.171406
      38A      0.190626    39A      0.204545    40A      0.220960
      41A      0.231747    42A      0.242196    43A      0.253502
      44A      0.258052    45A      0.267888    46A      0.274334
      47A      0.282461    48A      0.287954    49A      0.305671
      50A      0.328292    51A      0.361100    52A      0.380334
      53A      0.406086    54A      0.449434    55A      0.459159
      56A      0.480943    57A      0.492547    58A      0.560082
      59A      0.592453    60A      0.597073    61A      0.610565
      62A      0.639065    63A      0.649662    64A      0.665523
      65A      0.677569    66A      0.694769    67A      0.703102
      68A      0.712922    69A      0.724524    70A      0.735866
      71A      0.745135    72A      0.747719    73A      0.760565
      74A      0.769069    75A      0.782966    76A      0.794769
      77A      0.835421    78A      0.843754    79A      0.856353
      80A      0.868157    81A      0.872255    82A      0.882341
      83A      0.890801    84A      0.891526    85A      0.894922
      86A      0.897385    87A      0.911282    88A      0.922582
      89A      0.929412    90A      0.939952    91A      0.945546
      92A      0.951916    93A      1.000946    94A      1.010130
      95A      1.031219    96A      1.050644    97A      1.111773
      98A      1.121569    99A      1.127657   100A      1.140085
     101A      1.152139   102A      1.165793   103A      1.199414
     104A      1.231337   105A      1.242014   106A      1.243649
     107A      1.256964   108A      1.271555   109A      1.295247
     110A      1.313046   111A      1.313751   112A      1.355905
     113A      1.413338   114A      1.477530   115A      1.482939
     116A      1.517523   117A      1.522209   118A      1.563833
     119A      1.581305   120A      1.610747   121A      1.659955
     122A      1.684031   123A      1.687227   124A      1.709363
     125A      1.730019   126A      1.744469   127A      1.750427
     128A      1.785554   129A      1.801081   130A      1.840208
     131A      1.850601   132A      1.866769   133A      1.883791
     134A      1.893469   135A      1.905226   136A      1.911104
     137A      1.915197   138A      1.923605   139A      1.932334
     140A      1.935118   141A      1.942442   142A      1.950628
     143A      1.954304   144A      1.967408   145A      1.980272
     146A      1.989114   147A      1.993269   148A      2.003371
     149A      2.035677   150A      2.058304   151A      2.062728
     152A      2.103374   153A      2.111185   154A      2.119320
     155A      2.142058   156A      2.144544   157A      2.154015
     158A      2.175995   159A      2.188845   160A      2.261360
     161A      2.272128   162A      2.276890   163A      2.295208
     164A      2.298164   165A      2.305390   166A      2.316776
     167A      2.324905   168A      2.441141   169A      2.469197
     170A      2.470502   171A      2.486365   172A      2.492983
     173A      2.535847   174A      2.574358   175A      2.588210
     176A      2.619128   177A      2.739833   178A      2.743027
     179A      2.766699   180A      2.770489   181A      2.776987
     182A      2.805768   183A      2.811238   184A      2.820560
     185A      2.836355   186A      2.853881   187A      2.878109
     188A      2.948980   189A      2.958940   190A      2.963758
     191A      2.994902   192A      3.011803   193A      3.140885
     194A      3.187407   195A      3.277248   196A      3.928953

    Final Occupation by Irrep:
              A
    DOCC [    34 ]

  @RHF Final Energy:  -348.98733586779298

   => Energetics <=

    Nuclear Repulsion Energy =            396.6211877816174365
    One-Electron Energy =               -1255.9111483447568389
    Two-Electron Energy =                 510.3026246953464238
    Total Energy =                       -348.9873358677929787

Computation Completed

Properties will be evaluated at   0.000000,   0.000000,   0.000000 [a0]

Properties computed using the SCF density matrix

  Nuclear Dipole Moment: [e a0]
     X:    -0.2655      Y:   -11.9668      Z:     6.7679

  Electronic Dipole Moment: [e a0]
     X:     0.1947      Y:    11.8867      Z:    -6.8427

  Dipole Moment: [e a0]
     X:    -0.0708      Y:    -0.0801      Z:    -0.0748     Total:     0.1305

  Dipole Moment: [D]
     X:    -0.1801      Y:    -0.2036      Z:    -0.1900     Total:     0.3317

*** tstop() called on ds3 at Tue Apr 28 03:23:54 2020
Module time:
	user time   =      58.78 seconds =       0.98 minutes
	system time =      28.85 seconds =       0.48 minutes
	total time  =         89 seconds =       1.48 minutes
Total time:
	user time   =      58.78 seconds =       0.98 minutes
	system time =      28.85 seconds =       0.48 minutes
	total time  =         89 seconds =       1.48 minutes
                                     G D M A

                                 by Anthony Stone

                           version 2.2.06, 22 June 2011

               Distributed Multipoles from Gaussian wavefunctions

Starting at 3:23:54 on 28 Apr 2020

Using SCF density matrix from file ./SSI/SSI-060LEU-068PHE-1-dimer.test.21520.fchk

                         Distributed Multipole Analysis

Standard DMA

Positions and radii in angstrom
Multipole moments in atomic units, ea_0^k for rank k

C          x = -0.068802  y = -2.869103  z =  2.244742 angstrom
           Maximum rank =  0   Radius =  0.650 angstrom
                   Q00  =  -0.250221

C          x =  0.812198  y = -3.309103  z =  3.445742 angstrom
           Maximum rank =  0   Radius =  0.650 angstrom
                   Q00  =  -0.210413

H          x = -0.312802  y = -3.726103  z =  1.614742 angstrom
           Maximum rank =  0   Radius =  0.325 angstrom
                   Q00  =   0.081646

H          x = -0.991802  y = -2.425103  z =  2.612742 angstrom
           Maximum rank =  0   Radius =  0.325 angstrom
                   Q00  =   0.080364

H          x =  0.482198  y = -2.130103  z =  1.667742 angstrom
           Maximum rank =  0   Radius =  0.325 angstrom
                   Q00  =   0.076223

H          x =  1.056198  y = -2.428103  z =  4.033742 angstrom
           Maximum rank =  0   Radius =  0.325 angstrom
                   Q00  =   0.080757

H          x =  1.731578  y = -3.718032  z =  3.001315 angstrom
           Maximum rank =  0   Radius =  0.325 angstrom
                   Q00  =   0.069952

H          x =  0.230798  y = -3.986335  z =  4.088647 angstrom
           Maximum rank =  0   Radius =  0.325 angstrom
                   Q00  =   0.072750

C          x = -1.024802  y = -0.579103  z = -2.546258 angstrom
           Maximum rank =  0   Radius =  0.650 angstrom
                   Q00  =  -0.200897

C          x = -0.142802  y = -0.025103  z = -0.271258 angstrom
           Maximum rank =  0   Radius =  0.650 angstrom
                   Q00  =  -0.002090

C          x = -0.479802  y =  0.402897  z = -1.570258 angstrom
           Maximum rank =  0   Radius =  0.650 angstrom
                   Q00  =  -0.092145

C          x =  0.392198  y =  0.865897  z =  0.672742 angstrom
           Maximum rank =  0   Radius =  0.650 angstrom
                   Q00  =  -0.081694

C          x = -0.286802  y =  1.738897  z = -1.924258 angstrom
           Maximum rank =  0   Radius =  0.650 angstrom
                   Q00  =  -0.088688

C          x =  0.583198  y =  2.202897  z =  0.326742 angstrom
           Maximum rank =  0   Radius =  0.650 angstrom
                   Q00  =  -0.089163

C          x =  0.239198  y =  2.643897  z = -0.984258 angstrom
           Maximum rank =  0   Radius =  0.650 angstrom
                   Q00  =  -0.068097

H          x = -0.317802  y = -1.055103  z = -0.002258 angstrom
           Maximum rank =  0   Radius =  0.325 angstrom
                   Q00  =   0.060559

H          x =  0.639198  y =  0.519897  z =  1.667742 angstrom
           Maximum rank =  0   Radius =  0.325 angstrom
                   Q00  =   0.065585

H          x = -1.742802  y = -0.083103  z = -3.192258 angstrom
           Maximum rank =  0   Radius =  0.325 angstrom
                   Q00  =   0.097683

H          x = -1.570802  y = -1.338103  z = -1.992258 angstrom
           Maximum rank =  0   Radius =  0.325 angstrom
                   Q00  =   0.096894

H          x = -0.573802  y =  2.087897  z = -2.905258 angstrom
           Maximum rank =  0   Radius =  0.325 angstrom
                   Q00  =   0.060358

H          x =  0.985198  y =  2.900897  z =  1.047742 angstrom
           Maximum rank =  0   Radius =  0.325 angstrom
                   Q00  =   0.065660

H          x =  0.355198  y =  3.681897  z = -1.261258 angstrom
           Maximum rank =  0   Radius =  0.325 angstrom
                   Q00  =   0.069708

H          x = -0.253772  y = -1.065543  z = -3.161798 angstrom
           Maximum rank =  0   Radius =  0.325 angstrom
                   Q00  =   0.105269

Total multipoles referred to origin at
           x =   0.000000,  y =    0.000000,  z =    0.000000 angstrom
                   Q00  =  -0.000000

Finished at 3:23:54 on 28 Apr 2020

  DMA results are available in the Python driver through the
	  variable('DMA DISTRIBUTED MULTIPOLES')
  and
	  variable('DMA TOTAL MULTIPOLES')
  commands.

    Psi4 stopped on: Tuesday, 28 April 2020 03:23AM
    Psi4 wall time for execution: 0:01:29.03

*** Psi4 exiting successfully. Buy a developer a beer!
