                               Psi4 1.3.2 release

  ==> Input File <==

--------------------------------------------------------------------------
import numpy as np
set {scf_type pk
basis cc-pvdz
d_convergence 10
gdma_switch   0
gdma_limit    0
gdma_origin   [ 0.0,  0.0,  0.0 ]
}
molecule test {
    units Angstrom
    0 1
    --
    0 1
    C                0.036119401684572    -2.849245797888983    -3.125394079333164
    C               -0.305880598315428     0.901754202111017    -0.960394079333164
    C               -1.246880598315428    -0.108245797888983    -0.788394079333164
    C                0.745119401684572     0.690754202111017    -1.853394079333164
    C               -1.125880598315428    -1.300245797888983    -1.490394079333164
    C                0.866119401684572    -0.512245797888983    -2.548394079333164
    C               -0.078880598315428    -1.535245797888983    -2.393394079333164
    O               -0.460880598315428     2.077754202111017    -0.264394079333164
    H               -2.071880598315428     0.018754202111017    -0.100394079333164
    H               -1.272880598315428     2.061754202111017     0.243605920666836
    H                1.477119401684572     1.473754202111017    -1.995394079333165
    H               -1.867880598315428    -2.070245797888983    -1.347394079333164
    H                1.697119401684572    -0.653245797888983    -3.228394079333165
    H                0.175119401684572    -3.627245797888983    -2.373394079333164
    H                0.935119401684572    -2.835245797888983    -3.742394079333164
    H               -0.825770598315428    -3.116825797888983    -3.754324079333164
    C                0.382119401684572     0.804754202111017     2.728605920666836
    C                0.605119401684572     1.430754202111017     4.109605920666836
    C                1.494119401684572    -0.148245797888983     2.344605920666835
    O               -0.837880598315428     0.075754202111017     2.725605920666836
    H                0.338119401684572     1.595754202111017     1.988605920666836
    H                1.586119401684572     1.906754202111017     4.111605920666835
    H                1.535119401684572    -0.991245797888983     3.033605920666835
    H                1.312119401684572    -0.524245797888983     1.337605920666836
    H                2.452119401684572     0.373754202111017     2.356605920666835
    H               -1.618880598315428     0.627754202111017     2.557605920666835
    H                0.602869401684572     0.656704202111017     4.891165920666837
    H               -0.167940598315428     2.186454202111017     4.312815920666836

}
e, wfn = energy('scf', return_wfn=True)
gdma(wfn)
dmavals = variable('DMA DISTRIBUTED MULTIPOLES')
charges = np.array(dmavals)
print(charges)
np.save('SSI-142TYR-199THR-1-dimer.npy', np.array(charges))--------------------------------------------------------------------------

*** tstart() called on ds3
*** at Sun Apr 26 20:35:28 2020

   => Loading Basis Set <=

    Name: CC-PVDZ
    Role: ORBITAL
    Keyword: BASIS
    atoms 1-7, 17-19  entry C          line   138 file /theoryfs2/ds/metcalf/miniconda2/envs/tf2gpu/share/psi4/basis/cc-pvdz.gbs
    atoms 8, 20       entry O          line   198 file /theoryfs2/ds/metcalf/miniconda2/envs/tf2gpu/share/psi4/basis/cc-pvdz.gbs
    atoms 9-16, 21-28 entry H          line    22 file /theoryfs2/ds/metcalf/miniconda2/envs/tf2gpu/share/psi4/basis/cc-pvdz.gbs

         ---------------------------------------------------------
                                   SCF
               by Justin Turney, Rob Parrish, Andy Simmonett
                          and Daniel G. A. Smith
                              RHF Reference
                        1 Threads,    500 MiB Core
         ---------------------------------------------------------

  ==> Geometry <==

    Molecular point group: c1
    Full point group: C1

    Geometry (in Angstrom), charge = 0, multiplicity = 1:

       Center              X                  Y                   Z               Mass
    ------------   -----------------  -----------------  -----------------  -----------------
         C            0.036119401685    -2.849245797889    -3.125394079333    12.000000000000
         C           -0.305880598315     0.901754202111    -0.960394079333    12.000000000000
         C           -1.246880598315    -0.108245797889    -0.788394079333    12.000000000000
         C            0.745119401685     0.690754202111    -1.853394079333    12.000000000000
         C           -1.125880598315    -1.300245797889    -1.490394079333    12.000000000000
         C            0.866119401685    -0.512245797889    -2.548394079333    12.000000000000
         C           -0.078880598315    -1.535245797889    -2.393394079333    12.000000000000
         O           -0.460880598315     2.077754202111    -0.264394079333    15.994914619570
         H           -2.071880598315     0.018754202111    -0.100394079333     1.007825032230
         H           -1.272880598315     2.061754202111     0.243605920667     1.007825032230
         H            1.477119401685     1.473754202111    -1.995394079333     1.007825032230
         H           -1.867880598315    -2.070245797889    -1.347394079333     1.007825032230
         H            1.697119401685    -0.653245797889    -3.228394079333     1.007825032230
         H            0.175119401685    -3.627245797889    -2.373394079333     1.007825032230
         H            0.935119401685    -2.835245797889    -3.742394079333     1.007825032230
         H           -0.825770598315    -3.116825797889    -3.754324079333     1.007825032230
         C            0.382119401685     0.804754202111     2.728605920667    12.000000000000
         C            0.605119401685     1.430754202111     4.109605920667    12.000000000000
         C            1.494119401685    -0.148245797889     2.344605920667    12.000000000000
         O           -0.837880598315     0.075754202111     2.725605920667    15.994914619570
         H            0.338119401685     1.595754202111     1.988605920667     1.007825032230
         H            1.586119401685     1.906754202111     4.111605920667     1.007825032230
         H            1.535119401685    -0.991245797889     3.033605920667     1.007825032230
         H            1.312119401685    -0.524245797889     1.337605920667     1.007825032230
         H            2.452119401685     0.373754202111     2.356605920667     1.007825032230
         H           -1.618880598315     0.627754202111     2.557605920667     1.007825032230
         H            0.602869401685     0.656704202111     4.891165920667     1.007825032230
         H           -0.167940598315     2.186454202111     4.312815920667     1.007825032230

  Running in c1 symmetry.

  Rotational constants: A =      0.05183  B =      0.01382  C =      0.01305 [cm^-1]
  Rotational constants: A =   1553.96232  B =    414.36261  C =    391.25432 [MHz]
  Nuclear repulsion =  689.155537325022465

  Charge       = 0
  Multiplicity = 1
  Electrons    = 92
  Nalpha       = 46
  Nbeta        = 46

  ==> Algorithm <==

  SCF Algorithm Type is PK.
  DIIS enabled.
  MOM disabled.
  Fractional occupation disabled.
  Guess Type is SAD.
  Energy threshold   = 1.00e-06
  Density threshold  = 1.00e-10
  Integral threshold = 0.00e+00

  ==> Primary Basis <==

  Basis Set: CC-PVDZ
    Blend: CC-PVDZ
    Number of shells: 120
    Number of basis function: 248
    Number of Cartesian functions: 260
    Spherical Harmonics?: true
    Max angular momentum: 2

  ==> Pre-Iterations <==

   -------------------------------------------------------
    Irrep   Nso     Nmo     Nalpha   Nbeta   Ndocc  Nsocc
   -------------------------------------------------------
     A        248     248       0       0       0       0
   -------------------------------------------------------
    Total     248     248      46      46      46       0
   -------------------------------------------------------

  ==> Integral Setup <==

  Using integral reordering PK algorithm.
  Sizing the integral batches needed.
  Building batch lookup table.
   Calculation information:
      Number of atoms:                  28
      Number of AO shells:             120
      Number of primitives:            344
      Number of atomic orbitals:       260
      Number of basis functions:       248

      Integral cutoff                 1.00e-12
      Number of threads:                 1

	Batch   1 pq = [       0,    9405] index = [             0,44231715] size =     44231715
	Batch   2 pq = [    9405,   13301] index = [      44231715,88464951] size =     44233236
	Batch   3 pq = [   13301,   16290] index = [      88464951,132690195] size =     44225244
	Batch   4 pq = [   16290,   18810] index = [     132690195,176917455] size =     44227260
	Batch   5 pq = [   18810,   21030] index = [     176917455,221140965] size =     44223510
	Batch   6 pq = [   21030,   23037] index = [     221140965,265363203] size =     44222238
	Batch   7 pq = [   23037,   24883] index = [     265363203,309594286] size =     44231083
	Batch   8 pq = [   24883,   26601] index = [     309594286,353819901] size =     44225615
	Batch   9 pq = [   26601,   28214] index = [     353819901,398029005] size =     44209104
	Batch  10 pq = [   28214,   29740] index = [     398029005,442248670] size =     44219665
	Batch  11 pq = [   29740,   30876] index = [     442248670,476679126] size =     34430456
  Task number: 44
  Buffer size: 11059200
  Buffer per thread: 2
  We computed 24693250 shell quartets total.
  Whereas there are 26357430 unique shell quartets.

  ==> DiskJK: Disk-Based J/K Matrices <==

    J tasked:                  Yes
    K tasked:                  Yes
    wK tasked:                  No
    Memory [MiB]:              375
    Schwarz Cutoff:          1E-12

    OpenMP threads:              1

  Minimum eigenvalue in the overlap matrix is 3.2020471928E-04.
  Using Symmetric Orthogonalization.

  SCF Guess: Superposition of Atomic Densities via on-the-fly atomic UHF.

  ==> Iterations <==

                        Total Energy        Delta E     RMS |[F,P]|

   @RHF iter SAD:  -536.38471241591469   -5.36385e+02   0.00000e+00
   @RHF iter   1:  -537.43504158356450   -1.05033e+00   2.89318e-03 DIIS
   @RHF iter   2:  -537.70263656543580   -2.67595e-01   1.29750e-03 DIIS
   @RHF iter   3:  -537.74913489667733   -4.64983e-02   2.81424e-04 DIIS
   @RHF iter   4:  -537.75276702049803   -3.63212e-03   1.10134e-04 DIIS
   @RHF iter   5:  -537.75318799367722   -4.20973e-04   2.05228e-05 DIIS
   @RHF iter   6:  -537.75320906295565   -2.10693e-05   7.92992e-06 DIIS
   @RHF iter   7:  -537.75321200326584   -2.94031e-06   2.25239e-06 DIIS
   @RHF iter   8:  -537.75321235025331   -3.46987e-07   7.33002e-07 DIIS
   @RHF iter   9:  -537.75321239094660   -4.06933e-08   2.31299e-07 DIIS
   @RHF iter  10:  -537.75321239591813   -4.97153e-09   8.08532e-08 DIIS
   @RHF iter  11:  -537.75321239699304   -1.07491e-09   3.37860e-08 DIIS
   @RHF iter  12:  -537.75321239724337   -2.50338e-10   1.61189e-08 DIIS
   @RHF iter  13:  -537.75321239729203   -4.86580e-11   5.59639e-09 DIIS
   @RHF iter  14:  -537.75321239730351   -1.14824e-11   1.87053e-09 DIIS
   @RHF iter  15:  -537.75321239729965    3.86535e-12   7.00286e-10 DIIS
   @RHF iter  16:  -537.75321239730192   -2.27374e-12   2.31997e-10 DIIS
   @RHF iter  17:  -537.75321239729817    3.75167e-12   1.12080e-10 DIIS
   @RHF iter  18:  -537.75321239729806    1.13687e-13   5.35637e-11 DIIS
  Energy and wave function converged.

  ==> Post-Iterations <==

    Orbital Energies [Eh]
    ---------------------

    Doubly Occupied:

       1A    -20.590946     2A    -20.545152     3A    -11.301921
       4A    -11.269339     5A    -11.240694     6A    -11.238403
       7A    -11.237255     8A    -11.234584     9A    -11.233892
      10A    -11.230438    11A    -11.214293    12A    -11.206686
      13A     -1.403462    14A     -1.348090    15A     -1.150518
      16A     -1.038889    17A     -1.035317    18A     -1.017194
      19A     -0.929095    20A     -0.927720    21A     -0.842930
      22A     -0.804254    23A     -0.791868    24A     -0.734014
      25A     -0.698574    26A     -0.670427    27A     -0.642458
      28A     -0.610016    29A     -0.608226    30A     -0.593506
      31A     -0.585571    32A     -0.583963    33A     -0.571215
      34A     -0.569648    35A     -0.541767    36A     -0.531141
      37A     -0.530188    38A     -0.518145    39A     -0.502263
      40A     -0.498842    41A     -0.482217    42A     -0.470365
      43A     -0.455883    44A     -0.422113    45A     -0.338532
      46A     -0.304084

    Virtual:

      47A      0.130980    48A      0.145538    49A      0.152800
      50A      0.186234    51A      0.200505    52A      0.213435
      53A      0.221001    54A      0.238173    55A      0.247191
      56A      0.250617    57A      0.258632    58A      0.264229
      59A      0.270351    60A      0.287989    61A      0.292072
      62A      0.303598    63A      0.311890    64A      0.315625
      65A      0.367126    66A      0.369749    67A      0.375838
      68A      0.413383    69A      0.420272    70A      0.439170
      71A      0.452092    72A      0.483697    73A      0.494261
      74A      0.514148    75A      0.572807    76A      0.596634
      77A      0.612155    78A      0.625480    79A      0.644890
      80A      0.661537    81A      0.662746    82A      0.676973
      83A      0.692912    84A      0.700633    85A      0.712053
      86A      0.726140    87A      0.734559    88A      0.738180
      89A      0.748185    90A      0.768641    91A      0.774757
      92A      0.782971    93A      0.788999    94A      0.791916
      95A      0.816811    96A      0.826689    97A      0.846488
      98A      0.852496    99A      0.866886   100A      0.868814
     101A      0.882543   102A      0.884975   103A      0.891766
     104A      0.896756   105A      0.902008   106A      0.906823
     107A      0.913962   108A      0.918449   109A      0.931803
     110A      0.933905   111A      0.943049   112A      0.944200
     113A      0.953695   114A      0.962710   115A      0.992034
     116A      1.003995   117A      1.028634   118A      1.040336
     119A      1.077053   120A      1.122841   121A      1.135185
     122A      1.145132   123A      1.148940   124A      1.157995
     125A      1.166041   126A      1.185737   127A      1.204980
     128A      1.231385   129A      1.246773   130A      1.258709
     131A      1.269771   132A      1.284499   133A      1.294953
     134A      1.310591   135A      1.334963   136A      1.344951
     137A      1.370730   138A      1.379925   139A      1.388714
     140A      1.407485   141A      1.447457   142A      1.486790
     143A      1.509114   144A      1.511883   145A      1.520172
     146A      1.548120   147A      1.550383   148A      1.587324
     149A      1.608243   150A      1.617495   151A      1.676325
     152A      1.678087   153A      1.685259   154A      1.687222
     155A      1.695487   156A      1.700836   157A      1.724827
     158A      1.732939   159A      1.744437   160A      1.786784
     161A      1.796581   162A      1.811528   163A      1.827305
     164A      1.852622   165A      1.869294   166A      1.878748
     167A      1.888975   168A      1.895817   169A      1.897241
     170A      1.903100   171A      1.922274   172A      1.927328
     173A      1.942156   174A      1.950622   175A      1.954811
     176A      1.959123   177A      1.973116   178A      1.989520
     179A      1.999036   180A      2.012083   181A      2.022043
     182A      2.027867   183A      2.039818   184A      2.043972
     185A      2.048784   186A      2.069036   187A      2.071449
     188A      2.084142   189A      2.111108   190A      2.115902
     191A      2.142002   192A      2.169647   193A      2.185566
     194A      2.196866   195A      2.215763   196A      2.225360
     197A      2.257456   198A      2.268269   199A      2.269367
     200A      2.300078   201A      2.309752   202A      2.331305
     203A      2.364048   204A      2.375957   205A      2.384313
     206A      2.393105   207A      2.455427   208A      2.470312
     209A      2.474378   210A      2.501074   211A      2.518217
     212A      2.523909   213A      2.540261   214A      2.559327
     215A      2.587102   216A      2.610763   217A      2.627076
     218A      2.641728   219A      2.671581   220A      2.732800
     221A      2.763142   222A      2.766636   223A      2.778097
     224A      2.786391   225A      2.796590   226A      2.810529
     227A      2.836785   228A      2.846055   229A      2.886839
     230A      2.901807   231A      2.914386   232A      2.977108
     233A      3.001571   234A      3.017292   235A      3.074324
     236A      3.118155   237A      3.258294   238A      3.280997
     239A      3.317157   240A      3.332831   241A      3.427025
     242A      3.453566   243A      3.578573   244A      3.645816
     245A      3.690706   246A      3.964781   247A      4.123840
     248A      4.180554

    Final Occupation by Irrep:
              A
    DOCC [    46 ]

  @RHF Final Energy:  -537.75321239729806

   => Energetics <=

    Nuclear Repulsion Energy =            689.1555373250224648
    One-Electron Energy =               -2099.2253058395845073
    Two-Electron Energy =                 872.3165561172638718
    Total Energy =                       -537.7532123972980571

Computation Completed

Properties will be evaluated at   0.000000,   0.000000,   0.000000 [a0]

Properties computed using the SCF density matrix

  Nuclear Dipole Moment: [e a0]
     X:     4.0115      Y:    -2.7241      Z:     7.7849

  Electronic Dipole Moment: [e a0]
     X:    -4.4119      Y:     2.8590      Z:    -7.9387

  Dipole Moment: [e a0]
     X:    -0.4004      Y:     0.1348      Z:    -0.1538     Total:     0.4496

  Dipole Moment: [D]
     X:    -1.0177      Y:     0.3427      Z:    -0.3910     Total:     1.1428

*** tstop() called on ds3 at Sun Apr 26 20:41:20 2020
Module time:
	user time   =     196.82 seconds =       3.28 minutes
	system time =      78.44 seconds =       1.31 minutes
	total time  =        352 seconds =       5.87 minutes
Total time:
	user time   =     196.82 seconds =       3.28 minutes
	system time =      78.44 seconds =       1.31 minutes
	total time  =        352 seconds =       5.87 minutes
                                     G D M A

                                 by Anthony Stone

                           version 2.2.06, 22 June 2011

               Distributed Multipoles from Gaussian wavefunctions

Starting at 20:41:20 on 26 Apr 2020

Using SCF density matrix from file ./SSI/SSI-142TYR-199THR-1-dimer.test.30691.fchk

                         Distributed Multipole Analysis

Standard DMA

Positions and radii in angstrom
Multipole moments in atomic units, ea_0^k for rank k

C          x =  0.036119  y = -2.849246  z = -3.125394 angstrom
           Maximum rank =  0   Radius =  0.650 angstrom
                   Q00  =  -0.203884

C          x = -0.305881  y =  0.901754  z = -0.960394 angstrom
           Maximum rank =  0   Radius =  0.650 angstrom
                   Q00  =   0.242704

C          x = -1.246881  y = -0.108246  z = -0.788394 angstrom
           Maximum rank =  0   Radius =  0.650 angstrom
                   Q00  =  -0.156658

C          x =  0.745119  y =  0.690754  z = -1.853394 angstrom
           Maximum rank =  0   Radius =  0.650 angstrom
                   Q00  =  -0.077172

C          x = -1.125881  y = -1.300246  z = -1.490394 angstrom
           Maximum rank =  0   Radius =  0.650 angstrom
                   Q00  =   0.049274

C          x =  0.866119  y = -0.512246  z = -2.548394 angstrom
           Maximum rank =  0   Radius =  0.650 angstrom
                   Q00  =  -0.051138

C          x = -0.078881  y = -1.535246  z = -2.393394 angstrom
           Maximum rank =  0   Radius =  0.650 angstrom
                   Q00  =  -0.136270

O          x = -0.460881  y =  2.077754  z = -0.264394 angstrom
           Maximum rank =  0   Radius =  0.650 angstrom
                   Q00  =  -0.629978

H          x = -2.071881  y =  0.018754  z = -0.100394 angstrom
           Maximum rank =  0   Radius =  0.325 angstrom
                   Q00  =   0.065152

H          x = -1.272881  y =  2.061754  z =  0.243606 angstrom
           Maximum rank =  0   Radius =  0.325 angstrom
                   Q00  =   0.398799

H          x =  1.477119  y =  1.473754  z = -1.995394 angstrom
           Maximum rank =  0   Radius =  0.325 angstrom
                   Q00  =   0.078734

H          x = -1.867881  y = -2.070246  z = -1.347394 angstrom
           Maximum rank =  0   Radius =  0.325 angstrom
                   Q00  =   0.066649

H          x =  1.697119  y = -0.653246  z = -3.228394 angstrom
           Maximum rank =  0   Radius =  0.325 angstrom
                   Q00  =   0.066081

H          x =  0.175119  y = -3.627246  z = -2.373394 angstrom
           Maximum rank =  0   Radius =  0.325 angstrom
                   Q00  =   0.100494

H          x =  0.935119  y = -2.835246  z = -3.742394 angstrom
           Maximum rank =  0   Radius =  0.325 angstrom
                   Q00  =   0.098310

H          x = -0.825771  y = -3.116826  z = -3.754324 angstrom
           Maximum rank =  0   Radius =  0.325 angstrom
                   Q00  =   0.102281

C          x =  0.382119  y =  0.804754  z =  2.728606 angstrom
           Maximum rank =  0   Radius =  0.650 angstrom
                   Q00  =   0.170487

C          x =  0.605119  y =  1.430754  z =  4.109606 angstrom
           Maximum rank =  0   Radius =  0.650 angstrom
                   Q00  =  -0.260466

C          x =  1.494119  y = -0.148246  z =  2.344606 angstrom
           Maximum rank =  0   Radius =  0.650 angstrom
                   Q00  =  -0.242032

O          x = -0.837881  y =  0.075754  z =  2.725606 angstrom
           Maximum rank =  0   Radius =  0.650 angstrom
                   Q00  =  -0.581273

H          x =  0.338119  y =  1.595754  z =  1.988606 angstrom
           Maximum rank =  0   Radius =  0.325 angstrom
                   Q00  =   0.006509

H          x =  1.586119  y =  1.906754  z =  4.111606 angstrom
           Maximum rank =  0   Radius =  0.325 angstrom
                   Q00  =   0.076737

H          x =  1.535119  y = -0.991246  z =  3.033606 angstrom
           Maximum rank =  0   Radius =  0.325 angstrom
                   Q00  =   0.087182

H          x =  1.312119  y = -0.524246  z =  1.337606 angstrom
           Maximum rank =  0   Radius =  0.325 angstrom
                   Q00  =   0.106696

H          x =  2.452119  y =  0.373754  z =  2.356606 angstrom
           Maximum rank =  0   Radius =  0.325 angstrom
                   Q00  =   0.076845

H          x = -1.618881  y =  0.627754  z =  2.557606 angstrom
           Maximum rank =  0   Radius =  0.325 angstrom
                   Q00  =   0.376832

H          x =  0.602869  y =  0.656704  z =  4.891166 angstrom
           Maximum rank =  0   Radius =  0.325 angstrom
                   Q00  =   0.090843

H          x = -0.167941  y =  2.186454  z =  4.312816 angstrom
           Maximum rank =  0   Radius =  0.325 angstrom
                   Q00  =   0.078262

Total multipoles referred to origin at
           x =   0.000000,  y =    0.000000,  z =    0.000000 angstrom
                   Q00  =  -0.000000

Finished at 20:41:20 on 26 Apr 2020

  DMA results are available in the Python driver through the
	  variable('DMA DISTRIBUTED MULTIPOLES')
  and
	  variable('DMA TOTAL MULTIPOLES')
  commands.

    Psi4 stopped on: Sunday, 26 April 2020 08:41PM
    Psi4 wall time for execution: 0:05:52.42

*** Psi4 exiting successfully. Buy a developer a beer!
