                               Psi4 1.3.2 release

  ==> Input File <==

--------------------------------------------------------------------------
import numpy as np
set {scf_type pk
basis cc-pvdz
d_convergence 10
gdma_switch   0
gdma_limit    0
gdma_origin   [ 0.0,  0.0,  0.0 ]
}
molecule test {
    units Angstrom
    0 1
    --
    0 1
    C               -1.435776681491878    -2.242673196483246     3.613863075708829
    C               -0.999776681491878    -0.121673196483246     0.531863075708829
    C               -1.645776681491878     1.051326803516754     0.887863075708829
    C               -0.946776681491878    -1.177673196483246     1.425863075708829
    C               -1.503776681491878    -1.065673196483246     2.691863075708829
    C               -2.213776681491878     1.170326803516754     2.146863075708829
    C               -2.153776681491878     0.112326803516754     3.044863075708829
    H               -0.550776681491878    -0.217673196483246    -0.447136924291171
    H               -1.696776681491878     1.874326803516754     0.187863075708829
    H               -0.459776681491878    -2.092673196483246     1.121863075708829
    H               -2.701776681491878     2.093326803516754     2.414863075708829
    H               -0.642776681491878    -2.904673196483246     3.261863075708829
    H               -2.376776681491879    -2.789673196483246     3.527863075708829
    H               -2.562776681491878     0.210326803516754     4.031863075708829
    H               -1.252518681491879    -2.016296196483246     4.674603075708829
    C                3.140223318508122    -1.216673196483246    -1.742136924291171
    C                1.056223318508122     1.746326803516754    -2.068136924291171
    C                2.171223318508122    -0.146673196483246    -2.170136924291171
    C                1.427223318508122    -0.031673196483246    -3.307136924291171
    N                1.915223318508122     0.977326803516754    -1.411136924291171
    N                0.744223318508122     1.162326803516754    -3.220136924291171
    H                0.668223318508122     2.697326803516754    -1.724136924291171
    H                0.093223318508122     1.540326803516754    -3.900136924291171
    H                1.400223318508122    -0.743673196483246    -4.119136924291171
    H                2.748223318508122    -2.180673196483246    -2.064136924291171
    H                3.199223318508122    -1.229673196483246    -0.653136924291171
    H                4.148823318508121    -1.079973196483246    -2.159317924291171

}
e, wfn = energy('scf', return_wfn=True)
gdma(wfn)
dmavals = variable('DMA DISTRIBUTED MULTIPOLES')
charges = np.array(dmavals)
print(charges)
np.save('SSI-112PHE-125HIE-1-dimer.npy', np.array(charges))--------------------------------------------------------------------------

*** tstart() called on ds3
*** at Mon Apr 27 07:21:52 2020

   => Loading Basis Set <=

    Name: CC-PVDZ
    Role: ORBITAL
    Keyword: BASIS
    atoms 1-7, 16-19  entry C          line   138 file /theoryfs2/ds/metcalf/miniconda2/envs/tf2gpu/share/psi4/basis/cc-pvdz.gbs
    atoms 8-15, 22-27 entry H          line    22 file /theoryfs2/ds/metcalf/miniconda2/envs/tf2gpu/share/psi4/basis/cc-pvdz.gbs
    atoms 20-21       entry N          line   168 file /theoryfs2/ds/metcalf/miniconda2/envs/tf2gpu/share/psi4/basis/cc-pvdz.gbs

         ---------------------------------------------------------
                                   SCF
               by Justin Turney, Rob Parrish, Andy Simmonett
                          and Daniel G. A. Smith
                              RHF Reference
                        1 Threads,    500 MiB Core
         ---------------------------------------------------------

  ==> Geometry <==

    Molecular point group: c1
    Full point group: C1

    Geometry (in Angstrom), charge = 0, multiplicity = 1:

       Center              X                  Y                   Z               Mass
    ------------   -----------------  -----------------  -----------------  -----------------
         C           -1.435776681492    -2.242673196483     3.613863075709    12.000000000000
         C           -0.999776681492    -0.121673196483     0.531863075709    12.000000000000
         C           -1.645776681492     1.051326803517     0.887863075709    12.000000000000
         C           -0.946776681492    -1.177673196483     1.425863075709    12.000000000000
         C           -1.503776681492    -1.065673196483     2.691863075709    12.000000000000
         C           -2.213776681492     1.170326803517     2.146863075709    12.000000000000
         C           -2.153776681492     0.112326803517     3.044863075709    12.000000000000
         H           -0.550776681492    -0.217673196483    -0.447136924291     1.007825032230
         H           -1.696776681492     1.874326803517     0.187863075709     1.007825032230
         H           -0.459776681492    -2.092673196483     1.121863075709     1.007825032230
         H           -2.701776681492     2.093326803517     2.414863075709     1.007825032230
         H           -0.642776681492    -2.904673196483     3.261863075709     1.007825032230
         H           -2.376776681492    -2.789673196483     3.527863075709     1.007825032230
         H           -2.562776681492     0.210326803517     4.031863075709     1.007825032230
         H           -1.252518681492    -2.016296196483     4.674603075709     1.007825032230
         C            3.140223318508    -1.216673196483    -1.742136924291    12.000000000000
         C            1.056223318508     1.746326803517    -2.068136924291    12.000000000000
         C            2.171223318508    -0.146673196483    -2.170136924291    12.000000000000
         C            1.427223318508    -0.031673196483    -3.307136924291    12.000000000000
         N            1.915223318508     0.977326803517    -1.411136924291    14.003074004430
         N            0.744223318508     1.162326803517    -3.220136924291    14.003074004430
         H            0.668223318508     2.697326803517    -1.724136924291     1.007825032230
         H            0.093223318508     1.540326803517    -3.900136924291     1.007825032230
         H            1.400223318508    -0.743673196483    -4.119136924291     1.007825032230
         H            2.748223318508    -2.180673196483    -2.064136924291     1.007825032230
         H            3.199223318508    -1.229673196483    -0.653136924291     1.007825032230
         H            4.148823318508    -1.079973196483    -2.159317924291     1.007825032230

  Running in c1 symmetry.

  Rotational constants: A =      0.04806  B =      0.01103  C =      0.00952 [cm^-1]
  Rotational constants: A =   1440.76382  B =    330.78766  C =    285.45867 [MHz]
  Nuclear repulsion =  700.422713928467374

  Charge       = 0
  Multiplicity = 1
  Electrons    = 94
  Nalpha       = 47
  Nbeta        = 47

  ==> Algorithm <==

  SCF Algorithm Type is PK.
  DIIS enabled.
  MOM disabled.
  Fractional occupation disabled.
  Guess Type is SAD.
  Energy threshold   = 1.00e-06
  Density threshold  = 1.00e-10
  Integral threshold = 0.00e+00

  ==> Primary Basis <==

  Basis Set: CC-PVDZ
    Blend: CC-PVDZ
    Number of shells: 120
    Number of basis function: 252
    Number of Cartesian functions: 265
    Spherical Harmonics?: true
    Max angular momentum: 2

  ==> Pre-Iterations <==

   -------------------------------------------------------
    Irrep   Nso     Nmo     Nalpha   Nbeta   Ndocc  Nsocc
   -------------------------------------------------------
     A        252     252       0       0       0       0
   -------------------------------------------------------
    Total     252     252      47      47      47       0
   -------------------------------------------------------

  ==> Integral Setup <==

  Using integral reordering PK algorithm.
  Sizing the integral batches needed.
  Building batch lookup table.
   Calculation information:
      Number of atoms:                  27
      Number of AO shells:             120
      Number of primitives:            356
      Number of atomic orbitals:       265
      Number of basis functions:       252

      Integral cutoff                 1.00e-12
      Number of threads:                 1

	Batch   1 pq = [       0,    9405] index = [             0,44231715] size =     44231715
	Batch   2 pq = [    9405,   13301] index = [      44231715,88464951] size =     44233236
	Batch   3 pq = [   13301,   16290] index = [      88464951,132690195] size =     44225244
	Batch   4 pq = [   16290,   18810] index = [     132690195,176917455] size =     44227260
	Batch   5 pq = [   18810,   21030] index = [     176917455,221140965] size =     44223510
	Batch   6 pq = [   21030,   23037] index = [     221140965,265363203] size =     44222238
	Batch   7 pq = [   23037,   24883] index = [     265363203,309594286] size =     44231083
	Batch   8 pq = [   24883,   26601] index = [     309594286,353819901] size =     44225615
	Batch   9 pq = [   26601,   28214] index = [     353819901,398029005] size =     44209104
	Batch  10 pq = [   28214,   29740] index = [     398029005,442248670] size =     44219665
	Batch  11 pq = [   29740,   31191] index = [     442248670,486454836] size =     44206166
	Batch  12 pq = [   31191,   31878] index = [     486454836,508119381] size =     21664545
  Task number: 46
  Buffer size: 11059200
  Buffer per thread: 2
  We computed 22305123 shell quartets total.
  Whereas there are 26357430 unique shell quartets.

  ==> DiskJK: Disk-Based J/K Matrices <==

    J tasked:                  Yes
    K tasked:                  Yes
    wK tasked:                  No
    Memory [MiB]:              375
    Schwarz Cutoff:          1E-12

    OpenMP threads:              1

  Minimum eigenvalue in the overlap matrix is 2.9765949819E-04.
  Using Symmetric Orthogonalization.

  SCF Guess: Superposition of Atomic Densities via on-the-fly atomic UHF.

  ==> Iterations <==

                        Total Energy        Delta E     RMS |[F,P]|

   @RHF iter SAD:  -532.77262904881991   -5.32773e+02   0.00000e+00
   @RHF iter   1:  -533.34476055798746   -5.72132e-01   2.57670e-03 DIIS
   @RHF iter   2:  -533.57746626857863   -2.32706e-01   1.25600e-03 DIIS
   @RHF iter   3:  -533.62562908990026   -4.81628e-02   3.39405e-04 DIIS
   @RHF iter   4:  -533.63006953158856   -4.44044e-03   1.39537e-04 DIIS
   @RHF iter   5:  -533.63075095250394   -6.81421e-04   2.01421e-05 DIIS
   @RHF iter   6:  -533.63077498002190   -2.40275e-05   8.41486e-06 DIIS
   @RHF iter   7:  -533.63077903728413   -4.05726e-06   2.87780e-06 DIIS
   @RHF iter   8:  -533.63077984310371   -8.05820e-07   1.18542e-06 DIIS
   @RHF iter   9:  -533.63078001883969   -1.75736e-07   4.65093e-07 DIIS
   @RHF iter  10:  -533.63078004098440   -2.21447e-08   1.50488e-07 DIIS
   @RHF iter  11:  -533.63078004398744   -3.00304e-09   6.90898e-08 DIIS
   @RHF iter  12:  -533.63078004436272   -3.75280e-10   2.81868e-08 DIIS
   @RHF iter  13:  -533.63078004444469   -8.19682e-11   9.29352e-09 DIIS
   @RHF iter  14:  -533.63078004445674   -1.20508e-11   3.94807e-09 DIIS
   @RHF iter  15:  -533.63078004445799   -1.25056e-12   1.71863e-09 DIIS
   @RHF iter  16:  -533.63078004445879   -7.95808e-13   6.62483e-10 DIIS
   @RHF iter  17:  -533.63078004445788    9.09495e-13   3.15399e-10 DIIS
   @RHF iter  18:  -533.63078004446061   -2.72848e-12   1.08648e-10 DIIS
   @RHF iter  19:  -533.63078004446447   -3.86535e-12   4.44991e-11 DIIS
  Energy and wave function converged.

  ==> Post-Iterations <==

    Orbital Energies [Eh]
    ---------------------

    Doubly Occupied:

       1A    -15.624151     2A    -15.529909     3A    -11.293452
       4A    -11.253231     5A    -11.244645     6A    -11.231432
       7A    -11.226971     8A    -11.225415     9A    -11.222827
      10A    -11.222653    11A    -11.220803    12A    -11.220524
      13A    -11.218275    14A     -1.343154    15A     -1.155482
      16A     -1.147688    17A     -1.039284    18A     -1.031008
      19A     -1.004706    20A     -0.942147    21A     -0.924912
      22A     -0.819292    23A     -0.817951    24A     -0.787634
      25A     -0.763290    26A     -0.743352    27A     -0.684944
      28A     -0.625104    29A     -0.622690    30A     -0.611255
      31A     -0.604650    32A     -0.598009    33A     -0.574322
      34A     -0.570462    35A     -0.557785    36A     -0.554435
      37A     -0.541154    38A     -0.527340    39A     -0.521234
      40A     -0.480087    41A     -0.475701    42A     -0.475471
      43A     -0.411463    44A     -0.380572    45A     -0.324284
      46A     -0.314627    47A     -0.310154

    Virtual:

      48A      0.146750    49A      0.150190    50A      0.165611
      51A      0.180112    52A      0.188665    53A      0.197116
      54A      0.206231    55A      0.223203    56A      0.225430
      57A      0.229607    58A      0.245869    59A      0.260544
      60A      0.271757    61A      0.276369    62A      0.278408
      63A      0.292525    64A      0.298592    65A      0.311485
      66A      0.376320    67A      0.377000    68A      0.384858
      69A      0.390159    70A      0.416811    71A      0.459640
      72A      0.464343    73A      0.479103    74A      0.485892
      75A      0.501953    76A      0.515391    77A      0.569370
      78A      0.596826    79A      0.600971    80A      0.626887
      81A      0.635732    82A      0.651429    83A      0.663955
      84A      0.683407    85A      0.695209    86A      0.697755
      87A      0.709864    88A      0.723365    89A      0.731771
      90A      0.738409    91A      0.747194    92A      0.749109
      93A      0.754453    94A      0.757515    95A      0.764906
      96A      0.771790    97A      0.780507    98A      0.797588
      99A      0.806920   100A      0.825208   101A      0.836137
     102A      0.848024   103A      0.861214   104A      0.864462
     105A      0.877216   106A      0.880406   107A      0.888072
     108A      0.893537   109A      0.901814   110A      0.907834
     111A      0.914205   112A      0.930463   113A      0.933045
     114A      0.944911   115A      0.950270   116A      0.960351
     117A      0.968020   118A      0.975501   119A      1.007100
     120A      1.020867   121A      1.028078   122A      1.051970
     123A      1.064719   124A      1.094860   125A      1.106128
     126A      1.124927   127A      1.136045   128A      1.149861
     129A      1.166282   130A      1.168176   131A      1.186231
     132A      1.201566   133A      1.212995   134A      1.238444
     135A      1.251518   136A      1.258289   137A      1.262674
     138A      1.268836   139A      1.281234   140A      1.301560
     141A      1.312777   142A      1.317518   143A      1.326645
     144A      1.329688   145A      1.338746   146A      1.352310
     147A      1.417710   148A      1.426423   149A      1.450545
     150A      1.477663   151A      1.509560   152A      1.524514
     153A      1.551354   154A      1.566733   155A      1.574710
     156A      1.613775   157A      1.615114   158A      1.638250
     159A      1.675442   160A      1.691525   161A      1.707717
     162A      1.738458   163A      1.749214   164A      1.756877
     165A      1.767759   166A      1.779796   167A      1.800152
     168A      1.805551   169A      1.827664   170A      1.842234
     171A      1.855632   172A      1.871953   173A      1.895138
     174A      1.900675   175A      1.906167   176A      1.913749
     177A      1.915984   178A      1.932866   179A      1.939537
     180A      1.942519   181A      1.948357   182A      1.953639
     183A      1.959793   184A      1.964047   185A      1.969239
     186A      1.986932   187A      1.995458   188A      2.009632
     189A      2.029795   190A      2.048279   191A      2.070479
     192A      2.086332   193A      2.090149   194A      2.095798
     195A      2.127587   196A      2.140047   197A      2.153140
     198A      2.173789   199A      2.182197   200A      2.186593
     201A      2.200536   202A      2.206456   203A      2.241842
     204A      2.250325   205A      2.272115   206A      2.278876
     207A      2.293605   208A      2.310805   209A      2.316203
     210A      2.335694   211A      2.343538   212A      2.360329
     213A      2.370655   214A      2.430657   215A      2.448276
     216A      2.464947   217A      2.489145   218A      2.496855
     219A      2.507948   220A      2.559854   221A      2.568899
     222A      2.605205   223A      2.644205   224A      2.684863
     225A      2.723315   226A      2.750972   227A      2.753919
     228A      2.765218   229A      2.775832   230A      2.784089
     231A      2.791722   232A      2.805954   233A      2.835825
     234A      2.841035   235A      2.855906   236A      2.858799
     237A      2.875010   238A      2.886630   239A      2.928398
     240A      2.975878   241A      3.004745   242A      3.035086
     243A      3.045467   244A      3.057125   245A      3.152862
     246A      3.185128   247A      3.221428   248A      3.230475
     249A      3.332293   250A      3.462006   251A      3.793850
     252A      3.999416

    Final Occupation by Irrep:
              A
    DOCC [    47 ]

  @RHF Final Energy:  -533.63078004446447

   => Energetics <=

    Nuclear Repulsion Energy =            700.4227139284673740
    One-Electron Energy =               -2112.0671188907654141
    Two-Electron Energy =                 878.0136249178335675
    Total Energy =                       -533.6307800444644727

Computation Completed

Properties will be evaluated at   0.000000,   0.000000,   0.000000 [a0]

Properties computed using the SCF density matrix

  Nuclear Dipole Moment: [e a0]
     X:     0.0054      Y:    -6.4179      Z:     3.9074

  Electronic Dipole Moment: [e a0]
     X:    -0.6298      Y:     6.4631      Z:    -5.0508

  Dipole Moment: [e a0]
     X:    -0.6245      Y:     0.0452      Z:    -1.1434     Total:     1.3036

  Dipole Moment: [D]
     X:    -1.5872      Y:     0.1150      Z:    -2.9063     Total:     3.3135

*** tstop() called on ds3 at Mon Apr 27 07:26:34 2020
Module time:
	user time   =     190.87 seconds =       3.18 minutes
	system time =      87.06 seconds =       1.45 minutes
	total time  =        282 seconds =       4.70 minutes
Total time:
	user time   =     190.87 seconds =       3.18 minutes
	system time =      87.06 seconds =       1.45 minutes
	total time  =        282 seconds =       4.70 minutes
                                     G D M A

                                 by Anthony Stone

                           version 2.2.06, 22 June 2011

               Distributed Multipoles from Gaussian wavefunctions

Starting at 7:26:34 on 27 Apr 2020

Using SCF density matrix from file ./SSI/SSI-112PHE-125HIE-1-dimer.test.4847.fchk

                         Distributed Multipole Analysis

Standard DMA

Positions and radii in angstrom
Multipole moments in atomic units, ea_0^k for rank k

C          x = -1.435777  y = -2.242673  z =  3.613863 angstrom
           Maximum rank =  0   Radius =  0.650 angstrom
                   Q00  =  -0.209397

C          x = -0.999777  y = -0.121673  z =  0.531863 angstrom
           Maximum rank =  0   Radius =  0.650 angstrom
                   Q00  =  -0.052836

C          x = -1.645777  y =  1.051327  z =  0.887863 angstrom
           Maximum rank =  0   Radius =  0.650 angstrom
                   Q00  =  -0.089070

C          x = -0.946777  y = -1.177673  z =  1.425863 angstrom
           Maximum rank =  0   Radius =  0.650 angstrom
                   Q00  =   0.005957

C          x = -1.503777  y = -1.065673  z =  2.691863 angstrom
           Maximum rank =  0   Radius =  0.650 angstrom
                   Q00  =  -0.087588

C          x = -2.213777  y =  1.170327  z =  2.146863 angstrom
           Maximum rank =  0   Radius =  0.650 angstrom
                   Q00  =  -0.056350

C          x = -2.153777  y =  0.112327  z =  3.044863 angstrom
           Maximum rank =  0   Radius =  0.650 angstrom
                   Q00  =  -0.092974

H          x = -0.550777  y = -0.217673  z = -0.447137 angstrom
           Maximum rank =  0   Radius =  0.325 angstrom
                   Q00  =   0.073004

H          x = -1.696777  y =  1.874327  z =  0.187863 angstrom
           Maximum rank =  0   Radius =  0.325 angstrom
                   Q00  =   0.046584

H          x = -0.459777  y = -2.092673  z =  1.121863 angstrom
           Maximum rank =  0   Radius =  0.325 angstrom
                   Q00  =   0.050896

H          x = -2.701777  y =  2.093327  z =  2.414863 angstrom
           Maximum rank =  0   Radius =  0.325 angstrom
                   Q00  =   0.059250

H          x = -0.642777  y = -2.904673  z =  3.261863 angstrom
           Maximum rank =  0   Radius =  0.325 angstrom
                   Q00  =   0.094746

H          x = -2.376777  y = -2.789673  z =  3.527863 angstrom
           Maximum rank =  0   Radius =  0.325 angstrom
                   Q00  =   0.100867

H          x = -2.562777  y =  0.210327  z =  4.031863 angstrom
           Maximum rank =  0   Radius =  0.325 angstrom
                   Q00  =   0.052763

H          x = -1.252519  y = -2.016296  z =  4.674603 angstrom
           Maximum rank =  0   Radius =  0.325 angstrom
                   Q00  =   0.100312

C          x =  3.140223  y = -1.216673  z = -1.742137 angstrom
           Maximum rank =  0   Radius =  0.650 angstrom
                   Q00  =  -0.198608

C          x =  1.056223  y =  1.746327  z = -2.068137 angstrom
           Maximum rank =  0   Radius =  0.650 angstrom
                   Q00  =   0.460002

C          x =  2.171223  y = -0.146673  z = -2.170137 angstrom
           Maximum rank =  0   Radius =  0.650 angstrom
                   Q00  =   0.224683

C          x =  1.427223  y = -0.031673  z = -3.307137 angstrom
           Maximum rank =  0   Radius =  0.650 angstrom
                   Q00  =  -0.004977

N          x =  1.915223  y =  0.977327  z = -1.411137 angstrom
           Maximum rank =  0   Radius =  0.650 angstrom
                   Q00  =  -0.768904

N          x =  0.744223  y =  1.162327  z = -3.220137 angstrom
           Maximum rank =  0   Radius =  0.650 angstrom
                   Q00  =  -0.474567

H          x =  0.668223  y =  2.697327  z = -1.724137 angstrom
           Maximum rank =  0   Radius =  0.325 angstrom
                   Q00  =   0.122979

H          x =  0.093223  y =  1.540327  z = -3.900137 angstrom
           Maximum rank =  0   Radius =  0.325 angstrom
                   Q00  =   0.221965

H          x =  1.400223  y = -0.743673  z = -4.119137 angstrom
           Maximum rank =  0   Radius =  0.325 angstrom
                   Q00  =   0.101209

H          x =  2.748223  y = -2.180673  z = -2.064137 angstrom
           Maximum rank =  0   Radius =  0.325 angstrom
                   Q00  =   0.092937

H          x =  3.199223  y = -1.229673  z = -0.653137 angstrom
           Maximum rank =  0   Radius =  0.325 angstrom
                   Q00  =   0.122174

H          x =  4.148823  y = -1.079973  z = -2.159318 angstrom
           Maximum rank =  0   Radius =  0.325 angstrom
                   Q00  =   0.104943

Total multipoles referred to origin at
           x =   0.000000,  y =    0.000000,  z =    0.000000 angstrom
                   Q00  =  -0.000000

Finished at 7:26:34 on 27 Apr 2020

  DMA results are available in the Python driver through the
	  variable('DMA DISTRIBUTED MULTIPOLES')
  and
	  variable('DMA TOTAL MULTIPOLES')
  commands.

    Psi4 stopped on: Monday, 27 April 2020 07:26AM
    Psi4 wall time for execution: 0:04:41.61

*** Psi4 exiting successfully. Buy a developer a beer!
