                               Psi4 1.3.2 release

  ==> Input File <==

--------------------------------------------------------------------------
import numpy as np
set {scf_type pk
basis cc-pvdz
d_convergence 10
gdma_switch   0
gdma_limit    0
gdma_origin   [ 0.0,  0.0,  0.0 ]
}
molecule test {
    units Angstrom
    0 1
    --
    0 1
    C               -1.183319953942168     0.421207811357788     1.742757869756511
    C               -2.531319953942168    -0.195792188642212     2.121757869756511
    C                0.027680046057832    -0.338792188642212     2.272757869756512
    H               -1.117319953942168     0.493207811357788     0.656757869756511
    H               -1.186319953942168     1.434207811357788     2.146757869756512
    H               -3.306319953942168     0.447207811357788     1.715757869756511
    H               -0.133319953942168    -0.623792188642212     3.313757869756512
    H                0.145680046057832    -1.250792188642212     1.685757869756511
    H               -2.639449953942168    -0.230572188642212     3.215877969756511
    H               -2.665019953942168    -1.174542188642212     1.637834869756511
    H                0.953770046057832     0.252897811357788     2.225191869756511
    C                0.918680046057832     0.024207811357788    -1.480242130243489
    C                2.362680046057832    -0.319792188642212    -1.773242130243489
    C                0.385680046057832     0.423207811357788    -2.850242130243489
    H                0.876680046057832     0.871207811357788    -0.793242130243489
    H                0.376680046057832    -0.829792188642212    -1.070242130243489
    H                2.968680046057832    -0.323792188642212    -0.867242130243489
    H                2.423680046057832    -1.279792188642212    -2.287242130243489
    H                0.043680046057832    -0.460792188642212    -3.391242130243489
    H                2.653690046057832     0.493587811357788    -2.454213130243488
    H                1.265990046057832     0.847167811357788    -3.355533130243488
    H               -0.423599953942168     1.164747811357788    -2.778178130243489

}
e, wfn = energy('scf', return_wfn=True)
gdma(wfn)
dmavals = variable('DMA DISTRIBUTED MULTIPOLES')
charges = np.array(dmavals)
print(charges)
np.save('SSI-115GLU-123PRO-1-dimer.npy', np.array(charges))--------------------------------------------------------------------------

*** tstart() called on ds3
*** at Mon Apr 27 04:21:49 2020

   => Loading Basis Set <=

    Name: CC-PVDZ
    Role: ORBITAL
    Keyword: BASIS
    atoms 1-3, 12-14  entry C          line   138 file /theoryfs2/ds/metcalf/miniconda2/envs/tf2gpu/share/psi4/basis/cc-pvdz.gbs
    atoms 4-11, 15-22 entry H          line    22 file /theoryfs2/ds/metcalf/miniconda2/envs/tf2gpu/share/psi4/basis/cc-pvdz.gbs

         ---------------------------------------------------------
                                   SCF
               by Justin Turney, Rob Parrish, Andy Simmonett
                          and Daniel G. A. Smith
                              RHF Reference
                        1 Threads,    500 MiB Core
         ---------------------------------------------------------

  ==> Geometry <==

    Molecular point group: c1
    Full point group: C1

    Geometry (in Angstrom), charge = 0, multiplicity = 1:

       Center              X                  Y                   Z               Mass
    ------------   -----------------  -----------------  -----------------  -----------------
         C           -1.183319953942     0.421207811358     1.742757869757    12.000000000000
         C           -2.531319953942    -0.195792188642     2.121757869757    12.000000000000
         C            0.027680046058    -0.338792188642     2.272757869757    12.000000000000
         H           -1.117319953942     0.493207811358     0.656757869757     1.007825032230
         H           -1.186319953942     1.434207811358     2.146757869757     1.007825032230
         H           -3.306319953942     0.447207811358     1.715757869757     1.007825032230
         H           -0.133319953942    -0.623792188642     3.313757869757     1.007825032230
         H            0.145680046058    -1.250792188642     1.685757869757     1.007825032230
         H           -2.639449953942    -0.230572188642     3.215877969757     1.007825032230
         H           -2.665019953942    -1.174542188642     1.637834869757     1.007825032230
         H            0.953770046058     0.252897811358     2.225191869757     1.007825032230
         C            0.918680046058     0.024207811358    -1.480242130243    12.000000000000
         C            2.362680046058    -0.319792188642    -1.773242130243    12.000000000000
         C            0.385680046058     0.423207811358    -2.850242130243    12.000000000000
         H            0.876680046058     0.871207811358    -0.793242130243     1.007825032230
         H            0.376680046058    -0.829792188642    -1.070242130243     1.007825032230
         H            2.968680046058    -0.323792188642    -0.867242130243     1.007825032230
         H            2.423680046058    -1.279792188642    -2.287242130243     1.007825032230
         H            0.043680046058    -0.460792188642    -3.391242130243     1.007825032230
         H            2.653690046058     0.493587811358    -2.454213130243     1.007825032230
         H            1.265990046058     0.847167811358    -3.355533130243     1.007825032230
         H           -0.423599953942     1.164747811358    -2.778178130243     1.007825032230

  Running in c1 symmetry.

  Rotational constants: A =      0.15805  B =      0.03054  C =      0.02680 [cm^-1]
  Rotational constants: A =   4738.10343  B =    915.45781  C =    803.54406 [MHz]
  Nuclear repulsion =  239.891701986885181

  Charge       = 0
  Multiplicity = 1
  Electrons    = 52
  Nalpha       = 26
  Nbeta        = 26

  ==> Algorithm <==

  SCF Algorithm Type is PK.
  DIIS enabled.
  MOM disabled.
  Fractional occupation disabled.
  Guess Type is SAD.
  Energy threshold   = 1.00e-06
  Density threshold  = 1.00e-10
  Integral threshold = 0.00e+00

  ==> Primary Basis <==

  Basis Set: CC-PVDZ
    Blend: CC-PVDZ
    Number of shells: 84
    Number of basis function: 164
    Number of Cartesian functions: 170
    Spherical Harmonics?: true
    Max angular momentum: 2

  ==> Pre-Iterations <==

   -------------------------------------------------------
    Irrep   Nso     Nmo     Nalpha   Nbeta   Ndocc  Nsocc
   -------------------------------------------------------
     A        164     164       0       0       0       0
   -------------------------------------------------------
    Total     164     164      26      26      26       0
   -------------------------------------------------------

  ==> Integral Setup <==

  Using integral reordering PK algorithm.
  Sizing the integral batches needed.
  Building batch lookup table.
   Calculation information:
      Number of atoms:                  22
      Number of AO shells:              84
      Number of primitives:            212
      Number of atomic orbitals:       170
      Number of basis functions:       164

      Integral cutoff                 1.00e-12
      Number of threads:                 1

	Batch   1 pq = [       0,    9405] index = [             0,44231715] size =     44231715
	Batch   2 pq = [    9405,   13530] index = [      44231715,91537215] size =     47305500
  Task number: 9
  Buffer size: 11059200
  Buffer per thread: 2
  We computed 5375233 shell quartets total.
  Whereas there are 6374235 unique shell quartets.

  ==> DiskJK: Disk-Based J/K Matrices <==

    J tasked:                  Yes
    K tasked:                  Yes
    wK tasked:                  No
    Memory [MiB]:              375
    Schwarz Cutoff:          1E-12

    OpenMP threads:              1

  Minimum eigenvalue in the overlap matrix is 4.7593322591E-03.
  Using Symmetric Orthogonalization.

  SCF Guess: Superposition of Atomic Densities via on-the-fly atomic UHF.

  ==> Iterations <==

                        Total Energy        Delta E     RMS |[F,P]|

   @RHF iter SAD:  -235.51163003148380   -2.35512e+02   0.00000e+00
   @RHF iter   1:  -236.29496990973087   -7.83340e-01   3.53872e-03 DIIS
   @RHF iter   2:  -236.48377432244598   -1.88804e-01   1.55789e-03 DIIS
   @RHF iter   3:  -236.51871100141074   -3.49367e-02   3.08475e-04 DIIS
   @RHF iter   4:  -236.52133958423434   -2.62858e-03   4.92665e-05 DIIS
   @RHF iter   5:  -236.52139180066877   -5.22164e-05   1.38632e-05 DIIS
   @RHF iter   6:  -236.52139614123138   -4.34056e-06   2.39373e-06 DIIS
   @RHF iter   7:  -236.52139628509593   -1.43865e-07   4.68754e-07 DIIS
   @RHF iter   8:  -236.52139629196694   -6.87101e-09   9.87346e-08 DIIS
   @RHF iter   9:  -236.52139629226747   -3.00531e-10   3.41058e-08 DIIS
   @RHF iter  10:  -236.52139629229660   -2.91323e-11   7.70636e-09 DIIS
   @RHF iter  11:  -236.52139629229731   -7.10543e-13   1.54144e-09 DIIS
   @RHF iter  12:  -236.52139629229777   -4.54747e-13   4.25862e-10 DIIS
   @RHF iter  13:  -236.52139629229833   -5.68434e-13   9.10342e-11 DIIS
  Energy and wave function converged.

  ==> Post-Iterations <==

    Orbital Energies [Eh]
    ---------------------

    Doubly Occupied:

       1A    -11.218190     2A    -11.216882     3A    -11.216353
       4A    -11.215341     5A    -11.214358     6A    -11.213438
       7A     -1.068474     8A     -1.052499     9A     -0.925306
      10A     -0.912528    11A     -0.800264    12A     -0.793639
      13A     -0.639331    14A     -0.627534    15A     -0.611899
      16A     -0.593164    17A     -0.545094    18A     -0.541372
      19A     -0.536071    20A     -0.510031    21A     -0.483388
      22A     -0.474683    23A     -0.471496    24A     -0.466778
      25A     -0.462872    26A     -0.459417

    Virtual:

      27A      0.170115    28A      0.194570    29A      0.205576
      30A      0.210677    31A      0.223806    32A      0.243333
      33A      0.246379    34A      0.253807    35A      0.271412
      36A      0.280292    37A      0.282808    38A      0.292844
      39A      0.307307    40A      0.310223    41A      0.339484
      42A      0.341963    43A      0.375658    44A      0.381521
      45A      0.428523    46A      0.435773    47A      0.563887
      48A      0.570072    49A      0.584853    50A      0.599108
      51A      0.615217    52A      0.624377    53A      0.633674
      54A      0.649468    55A      0.656386    56A      0.751372
      57A      0.776767    58A      0.782938    59A      0.802043
      60A      0.829813    61A      0.847168    62A      0.858366
      63A      0.871594    64A      0.880413    65A      0.890134
      66A      0.894639    67A      0.896109    68A      0.901582
      69A      0.903053    70A      0.904558    71A      0.911399
      72A      0.917989    73A      0.924928    74A      0.930581
      75A      0.947288    76A      0.956362    77A      0.964847
      78A      0.974817    79A      0.995360    80A      1.011119
      81A      1.109898    82A      1.121685    83A      1.130432
      84A      1.138698    85A      1.197738    86A      1.219816
      87A      1.375064    88A      1.412147    89A      1.457401
      90A      1.476691    91A      1.481450    92A      1.492887
      93A      1.507480    94A      1.599819    95A      1.622056
      96A      1.642723    97A      1.645179    98A      1.668599
      99A      1.679684   100A      1.709772   101A      1.734962
     102A      1.748104   103A      1.817255   104A      1.851696
     105A      1.855269   106A      1.872426   107A      1.876170
     108A      1.883914   109A      1.897699   110A      1.908356
     111A      1.923481   112A      1.928093   113A      1.941968
     114A      1.945193   115A      1.957153   116A      1.977642
     117A      1.981672   118A      1.989913   119A      1.997250
     120A      2.002571   121A      2.010573   122A      2.018470
     123A      2.054409   124A      2.059365   125A      2.085111
     126A      2.110016   127A      2.120399   128A      2.139519
     129A      2.171115   130A      2.187888   131A      2.244958
     132A      2.277247   133A      2.312029   134A      2.314087
     135A      2.325345   136A      2.344904   137A      2.369141
     138A      2.425540   139A      2.461088   140A      2.486244
     141A      2.520268   142A      2.537969   143A      2.547034
     144A      2.570432   145A      2.612450   146A      2.631943
     147A      2.635216   148A      2.693113   149A      2.754044
     150A      2.762067   151A      2.766014   152A      2.769757
     153A      2.789752   154A      2.795288   155A      2.826538
     156A      2.836062   157A      2.869124   158A      2.915929
     159A      2.931155   160A      2.949568   161A      2.964482
     162A      2.975600   163A      3.049556   164A      3.069116

    Final Occupation by Irrep:
              A
    DOCC [    26 ]

  @RHF Final Energy:  -236.52139629229833

   => Energetics <=

    Nuclear Repulsion Energy =            239.8917019868851810
    One-Electron Energy =                -792.2853897143347695
    Two-Electron Energy =                 315.8722914351512259
    Total Energy =                       -236.5213962922983342

Computation Completed

Properties will be evaluated at   0.000000,   0.000000,   0.000000 [a0]

Properties computed using the SCF density matrix

  Nuclear Dipole Moment: [e a0]
     X:     0.2223      Y:    -0.1590      Z:    -0.3745

  Electronic Dipole Moment: [e a0]
     X:    -0.2377      Y:     0.1849      Z:     0.3744

  Dipole Moment: [e a0]
     X:    -0.0153      Y:     0.0259      Z:    -0.0001     Total:     0.0301

  Dipole Moment: [D]
     X:    -0.0390      Y:     0.0659      Z:    -0.0003     Total:     0.0766

*** tstop() called on ds3 at Mon Apr 27 04:24:06 2020
Module time:
	user time   =      26.48 seconds =       0.44 minutes
	system time =       9.99 seconds =       0.17 minutes
	total time  =        137 seconds =       2.28 minutes
Total time:
	user time   =      26.48 seconds =       0.44 minutes
	system time =       9.99 seconds =       0.17 minutes
	total time  =        137 seconds =       2.28 minutes
                                     G D M A

                                 by Anthony Stone

                           version 2.2.06, 22 June 2011

               Distributed Multipoles from Gaussian wavefunctions

Starting at 4:24:6 on 27 Apr 2020

Using SCF density matrix from file ./SSI/SSI-115GLU-123PRO-1-dimer.test.24132.fchk

                         Distributed Multipole Analysis

Standard DMA

Positions and radii in angstrom
Multipole moments in atomic units, ea_0^k for rank k

C          x = -1.183320  y =  0.421208  z =  1.742758 angstrom
           Maximum rank =  0   Radius =  0.650 angstrom
                   Q00  =  -0.078770

C          x = -2.531320  y = -0.195792  z =  2.121758 angstrom
           Maximum rank =  0   Radius =  0.650 angstrom
                   Q00  =  -0.246705

C          x =  0.027680  y = -0.338792  z =  2.272758 angstrom
           Maximum rank =  0   Radius =  0.650 angstrom
                   Q00  =  -0.241233

H          x = -1.117320  y =  0.493208  z =  0.656758 angstrom
           Maximum rank =  0   Radius =  0.325 angstrom
                   Q00  =   0.049805

H          x = -1.186320  y =  1.434208  z =  2.146758 angstrom
           Maximum rank =  0   Radius =  0.325 angstrom
                   Q00  =   0.041558

H          x = -3.306320  y =  0.447208  z =  1.715758 angstrom
           Maximum rank =  0   Radius =  0.325 angstrom
                   Q00  =   0.082430

H          x = -0.133320  y = -0.623792  z =  3.313758 angstrom
           Maximum rank =  0   Radius =  0.325 angstrom
                   Q00  =   0.075266

H          x =  0.145680  y = -1.250792  z =  1.685758 angstrom
           Maximum rank =  0   Radius =  0.325 angstrom
                   Q00  =   0.076314

H          x = -2.639450  y = -0.230572  z =  3.215878 angstrom
           Maximum rank =  0   Radius =  0.325 angstrom
                   Q00  =   0.079559

H          x = -2.665020  y = -1.174542  z =  1.637835 angstrom
           Maximum rank =  0   Radius =  0.325 angstrom
                   Q00  =   0.076159

H          x =  0.953770  y =  0.252898  z =  2.225192 angstrom
           Maximum rank =  0   Radius =  0.325 angstrom
                   Q00  =   0.084432

C          x =  0.918680  y =  0.024208  z = -1.480242 angstrom
           Maximum rank =  0   Radius =  0.650 angstrom
                   Q00  =  -0.084211

C          x =  2.362680  y = -0.319792  z = -1.773242 angstrom
           Maximum rank =  0   Radius =  0.650 angstrom
                   Q00  =  -0.221714

C          x =  0.385680  y =  0.423208  z = -2.850242 angstrom
           Maximum rank =  0   Radius =  0.650 angstrom
                   Q00  =  -0.227316

H          x =  0.876680  y =  0.871208  z = -0.793242 angstrom
           Maximum rank =  0   Radius =  0.325 angstrom
                   Q00  =   0.051881

H          x =  0.376680  y = -0.829792  z = -1.070242 angstrom
           Maximum rank =  0   Radius =  0.325 angstrom
                   Q00  =   0.053156

H          x =  2.968680  y = -0.323792  z = -0.867242 angstrom
           Maximum rank =  0   Radius =  0.325 angstrom
                   Q00  =   0.081228

H          x =  2.423680  y = -1.279792  z = -2.287242 angstrom
           Maximum rank =  0   Radius =  0.325 angstrom
                   Q00  =   0.077911

H          x =  0.043680  y = -0.460792  z = -3.391242 angstrom
           Maximum rank =  0   Radius =  0.325 angstrom
                   Q00  =   0.080696

H          x =  2.653690  y =  0.493588  z = -2.454213 angstrom
           Maximum rank =  0   Radius =  0.325 angstrom
                   Q00  =   0.049480

H          x =  1.265990  y =  0.847168  z = -3.355533 angstrom
           Maximum rank =  0   Radius =  0.325 angstrom
                   Q00  =   0.059855

H          x = -0.423600  y =  1.164748  z = -2.778178 angstrom
           Maximum rank =  0   Radius =  0.325 angstrom
                   Q00  =   0.080220

Total multipoles referred to origin at
           x =   0.000000,  y =    0.000000,  z =    0.000000 angstrom
                   Q00  =  -0.000000

Finished at 4:24:6 on 27 Apr 2020

  DMA results are available in the Python driver through the
	  variable('DMA DISTRIBUTED MULTIPOLES')
  and
	  variable('DMA TOTAL MULTIPOLES')
  commands.

    Psi4 stopped on: Monday, 27 April 2020 04:24AM
    Psi4 wall time for execution: 0:02:16.26

*** Psi4 exiting successfully. Buy a developer a beer!
