                               Psi4 1.3.2 release

  ==> Input File <==

--------------------------------------------------------------------------
import numpy as np
set {scf_type pk
basis cc-pvdz
d_convergence 10
gdma_switch   0
gdma_limit    0
gdma_origin   [ 0.0,  0.0,  0.0 ]
}
molecule test {
    units Angstrom
    0 1
    --
    0 1
    C                2.301147947787116     0.739629052819025     2.919975379931592
    C                2.180147947787116     1.326629052819025     1.528975379931592
    O                3.103147947787116     1.228629052819025     0.725975379931592
    N                1.044147947787116     1.934629052819025     1.229975379931592
    H                2.307147947787116    -0.345370947180975     2.814975379931592
    H                1.429147947787116     1.013629052819025     3.513975379931592
    H                0.919147947787116     2.330629052819025     0.304975379931592
    H                0.321147947787116     2.030629052819025     1.922975379931592
    H                3.220156947787115     1.064919052819025     3.429495379931592
    C               -3.779852052212885    -0.494370947180975    -1.232024620068408
    C               -0.312852052212884    -0.841370947180975     0.260975379931592
    C               -1.682852052212884    -0.645370947180975     0.142975379931592
    C                0.454147947787116    -1.102370947180975    -0.869024620068408
    C               -2.297852052212884    -0.716370947180975    -1.102024620068408
    C               -0.153852052212884    -1.171370947180975    -2.115024620068408
    C               -1.523852052212884    -0.975370947180975    -2.229024620068408
    H                0.155147947787116    -0.795370947180975     1.233975379931592
    H               -2.273852052212884    -0.441370947180975     1.024975379931592
    H                1.522147947787116    -1.246370947180975    -0.780024620068408
    H                0.439147947787116    -1.370370947180975    -2.998024620068408
    H               -4.280852052212885    -0.926370947180975    -0.365024620068408
    H               -4.130852052212885    -1.028370947180975    -2.109024620068408
    H               -1.986852052212884    -1.029370947180975    -3.204024620068408
    H               -4.058412052212884     0.566039052819025    -1.321054620068408

}
e, wfn = energy('scf', return_wfn=True)
gdma(wfn)
dmavals = variable('DMA DISTRIBUTED MULTIPOLES')
charges = np.array(dmavals)
print(charges)
np.save('SSI-012ASN-048PHE-1-dimer.npy', np.array(charges))--------------------------------------------------------------------------

*** tstart() called on ds3
*** at Sun Apr 26 23:16:59 2020

   => Loading Basis Set <=

    Name: CC-PVDZ
    Role: ORBITAL
    Keyword: BASIS
    atoms 1-2, 10-16 entry C          line   138 file /theoryfs2/ds/metcalf/miniconda2/envs/tf2gpu/share/psi4/basis/cc-pvdz.gbs
    atoms 3          entry O          line   198 file /theoryfs2/ds/metcalf/miniconda2/envs/tf2gpu/share/psi4/basis/cc-pvdz.gbs
    atoms 4          entry N          line   168 file /theoryfs2/ds/metcalf/miniconda2/envs/tf2gpu/share/psi4/basis/cc-pvdz.gbs
    atoms 5-9, 17-24 entry H          line    22 file /theoryfs2/ds/metcalf/miniconda2/envs/tf2gpu/share/psi4/basis/cc-pvdz.gbs

         ---------------------------------------------------------
                                   SCF
               by Justin Turney, Rob Parrish, Andy Simmonett
                          and Daniel G. A. Smith
                              RHF Reference
                        1 Threads,    500 MiB Core
         ---------------------------------------------------------

  ==> Geometry <==

    Molecular point group: c1
    Full point group: C1

    Geometry (in Angstrom), charge = 0, multiplicity = 1:

       Center              X                  Y                   Z               Mass
    ------------   -----------------  -----------------  -----------------  -----------------
         C            2.301147947787     0.739629052819     2.919975379932    12.000000000000
         C            2.180147947787     1.326629052819     1.528975379932    12.000000000000
         O            3.103147947787     1.228629052819     0.725975379932    15.994914619570
         N            1.044147947787     1.934629052819     1.229975379932    14.003074004430
         H            2.307147947787    -0.345370947181     2.814975379932     1.007825032230
         H            1.429147947787     1.013629052819     3.513975379932     1.007825032230
         H            0.919147947787     2.330629052819     0.304975379932     1.007825032230
         H            0.321147947787     2.030629052819     1.922975379932     1.007825032230
         H            3.220156947787     1.064919052819     3.429495379932     1.007825032230
         C           -3.779852052213    -0.494370947181    -1.232024620068    12.000000000000
         C           -0.312852052213    -0.841370947181     0.260975379932    12.000000000000
         C           -1.682852052213    -0.645370947181     0.142975379932    12.000000000000
         C            0.454147947787    -1.102370947181    -0.869024620068    12.000000000000
         C           -2.297852052213    -0.716370947181    -1.102024620068    12.000000000000
         C           -0.153852052213    -1.171370947181    -2.115024620068    12.000000000000
         C           -1.523852052213    -0.975370947181    -2.229024620068    12.000000000000
         H            0.155147947787    -0.795370947181     1.233975379932     1.007825032230
         H           -2.273852052213    -0.441370947181     1.024975379932     1.007825032230
         H            1.522147947787    -1.246370947181    -0.780024620068     1.007825032230
         H            0.439147947787    -1.370370947181    -2.998024620068     1.007825032230
         H           -4.280852052213    -0.926370947181    -0.365024620068     1.007825032230
         H           -4.130852052213    -1.028370947181    -2.109024620068     1.007825032230
         H           -1.986852052213    -1.029370947181    -3.204024620068     1.007825032230
         H           -4.058412052213     0.566039052819    -1.321054620068     1.007825032230

  Running in c1 symmetry.

  Rotational constants: A =      0.07119  B =      0.01575  C =      0.01429 [cm^-1]
  Rotational constants: A =   2134.08438  B =    472.08273  C =    428.47014 [MHz]
  Nuclear repulsion =  563.391882863292722

  Charge       = 0
  Multiplicity = 1
  Electrons    = 82
  Nalpha       = 41
  Nbeta        = 41

  ==> Algorithm <==

  SCF Algorithm Type is PK.
  DIIS enabled.
  MOM disabled.
  Fractional occupation disabled.
  Guess Type is SAD.
  Energy threshold   = 1.00e-06
  Density threshold  = 1.00e-10
  Integral threshold = 0.00e+00

  ==> Primary Basis <==

  Basis Set: CC-PVDZ
    Blend: CC-PVDZ
    Number of shells: 105
    Number of basis function: 219
    Number of Cartesian functions: 230
    Spherical Harmonics?: true
    Max angular momentum: 2

  ==> Pre-Iterations <==

   -------------------------------------------------------
    Irrep   Nso     Nmo     Nalpha   Nbeta   Ndocc  Nsocc
   -------------------------------------------------------
     A        219     219       0       0       0       0
   -------------------------------------------------------
    Total     219     219      41      41      41       0
   -------------------------------------------------------

  ==> Integral Setup <==

  Using integral reordering PK algorithm.
  Sizing the integral batches needed.
  Building batch lookup table.
   Calculation information:
      Number of atoms:                  24
      Number of AO shells:             105
      Number of primitives:            307
      Number of atomic orbitals:       230
      Number of basis functions:       219

      Integral cutoff                 1.00e-12
      Number of threads:                 1

	Batch   1 pq = [       0,    9405] index = [             0,44231715] size =     44231715
	Batch   2 pq = [    9405,   13301] index = [      44231715,88464951] size =     44233236
	Batch   3 pq = [   13301,   16290] index = [      88464951,132690195] size =     44225244
	Batch   4 pq = [   16290,   18810] index = [     132690195,176917455] size =     44227260
	Batch   5 pq = [   18810,   21030] index = [     176917455,221140965] size =     44223510
	Batch   6 pq = [   21030,   23037] index = [     221140965,265363203] size =     44222238
	Batch   7 pq = [   23037,   24090] index = [     265363203,290176095] size =     24812892
  Task number: 27
  Buffer size: 11059200
  Buffer per thread: 2
  We computed 13718263 shell quartets total.
  Whereas there are 15487395 unique shell quartets.

  ==> DiskJK: Disk-Based J/K Matrices <==

    J tasked:                  Yes
    K tasked:                  Yes
    wK tasked:                  No
    Memory [MiB]:              375
    Schwarz Cutoff:          1E-12

    OpenMP threads:              1

  Minimum eigenvalue in the overlap matrix is 2.9993090641E-04.
  Using Symmetric Orthogonalization.

  SCF Guess: Superposition of Atomic Densities via on-the-fly atomic UHF.

  ==> Iterations <==

                        Total Energy        Delta E     RMS |[F,P]|

   @RHF iter SAD:  -476.51346814786172   -4.76513e+02   0.00000e+00
   @RHF iter   1:  -477.45542104235989   -9.41953e-01   3.22820e-03 DIIS
   @RHF iter   2:  -477.69094356150697   -2.35523e-01   1.72256e-03 DIIS
   @RHF iter   3:  -477.74735970093485   -5.64161e-02   3.93337e-04 DIIS
   @RHF iter   4:  -477.75164291706130   -4.28322e-03   1.55453e-04 DIIS
   @RHF iter   5:  -477.75232511077905   -6.82194e-04   2.38674e-05 DIIS
   @RHF iter   6:  -477.75235729456375   -3.21838e-05   1.11459e-05 DIIS
   @RHF iter   7:  -477.75236341011157   -6.11555e-06   4.14542e-06 DIIS
   @RHF iter   8:  -477.75236461151292   -1.20140e-06   1.56914e-06 DIIS
   @RHF iter   9:  -477.75236477043808   -1.58925e-07   6.00691e-07 DIIS
   @RHF iter  10:  -477.75236478789600   -1.74579e-08   1.64427e-07 DIIS
   @RHF iter  11:  -477.75236478952087   -1.62487e-09   4.55893e-08 DIIS
   @RHF iter  12:  -477.75236478961966   -9.87939e-11   1.61930e-08 DIIS
   @RHF iter  13:  -477.75236478963410   -1.44382e-11   4.23379e-09 DIIS
   @RHF iter  14:  -477.75236478963484   -7.38964e-13   1.73790e-09 DIIS
   @RHF iter  15:  -477.75236478963598   -1.13687e-12   8.55438e-10 DIIS
   @RHF iter  16:  -477.75236478963558    3.97904e-13   4.17211e-10 DIIS
   @RHF iter  17:  -477.75236478963586   -2.84217e-13   1.61789e-10 DIIS
   @RHF iter  18:  -477.75236478963859   -2.72848e-12   4.58281e-11 DIIS
  Energy and wave function converged.

  ==> Post-Iterations <==

    Orbital Energies [Eh]
    ---------------------

    Doubly Occupied:

       1A    -20.499438     2A    -15.586623     3A    -11.345154
       4A    -11.243472     5A    -11.240350     6A    -11.235758
       7A    -11.233667     8A    -11.230976     9A    -11.230456
      10A    -11.229367    11A    -11.227914    12A     -1.365729
      13A     -1.215511    14A     -1.154817    15A     -1.045357
      16A     -1.013585    17A     -1.000376    18A     -0.932277
      19A     -0.825686    20A     -0.798818    21A     -0.796325
      22A     -0.725200    23A     -0.691240    24A     -0.653760
      25A     -0.633399    26A     -0.631351    27A     -0.611354
      28A     -0.583452    29A     -0.579489    30A     -0.567248
      31A     -0.561338    32A     -0.559856    33A     -0.537012
      34A     -0.522529    35A     -0.487845    36A     -0.485177
      37A     -0.481645    38A     -0.407139    39A     -0.400701
      40A     -0.333125    41A     -0.321695

    Virtual:

      42A      0.136628    43A      0.140884    44A      0.155672
      45A      0.189495    46A      0.196237    47A      0.205674
      48A      0.214547    49A      0.222597    50A      0.229946
      51A      0.250871    52A      0.262834    53A      0.265055
      54A      0.280340    55A      0.285743    56A      0.292589
      57A      0.316170    58A      0.367112    59A      0.374975
      60A      0.384117    61A      0.438360    62A      0.465338
      63A      0.477362    64A      0.479992    65A      0.498982
      66A      0.558342    67A      0.576566    68A      0.596031
      69A      0.635204    70A      0.647319    71A      0.658292
      72A      0.677678    73A      0.679241    74A      0.690785
      75A      0.697639    76A      0.712760    77A      0.722617
      78A      0.722782    79A      0.735714    80A      0.740234
      81A      0.745271    82A      0.758216    83A      0.765154
      84A      0.778495    85A      0.787501    86A      0.819905
      87A      0.837043    88A      0.843991    89A      0.856271
      90A      0.869233    91A      0.872848    92A      0.881351
      93A      0.885568    94A      0.896000    95A      0.908222
      96A      0.914549    97A      0.923367    98A      0.933666
      99A      0.942356   100A      0.944567   101A      0.961285
     102A      0.992028   103A      1.005349   104A      1.035043
     105A      1.045407   106A      1.059530   107A      1.091156
     108A      1.110397   109A      1.134966   110A      1.142617
     111A      1.146205   112A      1.159968   113A      1.181481
     114A      1.195992   115A      1.241118   116A      1.248410
     117A      1.250994   118A      1.273190   119A      1.297373
     120A      1.304574   121A      1.320367   122A      1.323826
     123A      1.335827   124A      1.385803   125A      1.399832
     126A      1.409286   127A      1.423374   128A      1.441388
     129A      1.455080   130A      1.490031   131A      1.518946
     132A      1.535330   133A      1.558027   134A      1.605642
     135A      1.641590   136A      1.664381   137A      1.674958
     138A      1.692449   139A      1.708200   140A      1.738273
     141A      1.753417   142A      1.780279   143A      1.806011
     144A      1.810225   145A      1.826062   146A      1.858347
     147A      1.862479   148A      1.885400   149A      1.893351
     150A      1.899680   151A      1.903026   152A      1.911754
     153A      1.915150   154A      1.927146   155A      1.938236
     156A      1.949588   157A      1.952002   158A      1.965295
     159A      1.980852   160A      1.986773   161A      2.004850
     162A      2.017978   163A      2.042233   164A      2.061396
     165A      2.066264   166A      2.082091   167A      2.087813
     168A      2.110862   169A      2.138085   170A      2.151266
     171A      2.161865   172A      2.176220   173A      2.183097
     174A      2.192354   175A      2.229868   176A      2.262759
     177A      2.283275   178A      2.293229   179A      2.301660
     180A      2.313860   181A      2.314552   182A      2.344376
     183A      2.425545   184A      2.437693   185A      2.465555
     186A      2.476200   187A      2.481516   188A      2.499965
     189A      2.545115   190A      2.554734   191A      2.570297
     192A      2.624583   193A      2.637376   194A      2.742130
     195A      2.749812   196A      2.764742   197A      2.770792
     198A      2.778429   199A      2.791419   200A      2.805101
     201A      2.816885   202A      2.846271   203A      2.853231
     204A      2.882450   205A      2.984255   206A      2.988471
     207A      3.019673   208A      3.027804   209A      3.098276
     210A      3.133560   211A      3.158742   212A      3.207277
     213A      3.285963   214A      3.306794   215A      3.511820
     216A      3.530819   217A      3.876825   218A      3.913181
     219A      3.980824

    Final Occupation by Irrep:
              A
    DOCC [    41 ]

  @RHF Final Energy:  -477.75236478963859

   => Energetics <=

    Nuclear Repulsion Energy =            563.3918828632927216
    One-Electron Energy =               -1765.8360666946912261
    Two-Electron Energy =                 724.6918190417599135
    Total Energy =                       -477.7523647896385910

Computation Completed

Properties will be evaluated at   0.000000,   0.000000,   0.000000 [a0]

Properties computed using the SCF density matrix

  Nuclear Dipole Moment: [e a0]
     X:    -6.0045      Y:    -0.1658      Z:     3.2512

  Electronic Dipole Moment: [e a0]
     X:     4.5788      Y:     0.4889      Z:    -2.4606

  Dipole Moment: [e a0]
     X:    -1.4256      Y:     0.3232      Z:     0.7906     Total:     1.6619

  Dipole Moment: [D]
     X:    -3.6236      Y:     0.8214      Z:     2.0096     Total:     4.2241

*** tstop() called on ds3 at Sun Apr 26 23:19:23 2020
Module time:
	user time   =     105.02 seconds =       1.75 minutes
	system time =      44.17 seconds =       0.74 minutes
	total time  =        144 seconds =       2.40 minutes
Total time:
	user time   =     105.02 seconds =       1.75 minutes
	system time =      44.17 seconds =       0.74 minutes
	total time  =        144 seconds =       2.40 minutes
                                     G D M A

                                 by Anthony Stone

                           version 2.2.06, 22 June 2011

               Distributed Multipoles from Gaussian wavefunctions

Starting at 23:19:23 on 26 Apr 2020

Using SCF density matrix from file ./SSI/SSI-012ASN-048PHE-1-dimer.test.27751.fchk

                         Distributed Multipole Analysis

Standard DMA

Positions and radii in angstrom
Multipole moments in atomic units, ea_0^k for rank k

C          x =  2.301148  y =  0.739629  z =  2.919975 angstrom
           Maximum rank =  0   Radius =  0.650 angstrom
                   Q00  =  -0.263917

C          x =  2.180148  y =  1.326629  z =  1.528975 angstrom
           Maximum rank =  0   Radius =  0.650 angstrom
                   Q00  =   0.812779

O          x =  3.103148  y =  1.228629  z =  0.725975 angstrom
           Maximum rank =  0   Radius =  0.650 angstrom
                   Q00  =  -0.798439

N          x =  1.044148  y =  1.934629  z =  1.229975 angstrom
           Maximum rank =  0   Radius =  0.650 angstrom
                   Q00  =  -0.508125

H          x =  2.307148  y = -0.345371  z =  2.814975 angstrom
           Maximum rank =  0   Radius =  0.325 angstrom
                   Q00  =   0.128769

H          x =  1.429148  y =  1.013629  z =  3.513975 angstrom
           Maximum rank =  0   Radius =  0.325 angstrom
                   Q00  =   0.070187

H          x =  0.919148  y =  2.330629  z =  0.304975 angstrom
           Maximum rank =  0   Radius =  0.325 angstrom
                   Q00  =   0.230196

H          x =  0.321148  y =  2.030629  z =  1.922975 angstrom
           Maximum rank =  0   Radius =  0.325 angstrom
                   Q00  =   0.202035

H          x =  3.220157  y =  1.064919  z =  3.429495 angstrom
           Maximum rank =  0   Radius =  0.325 angstrom
                   Q00  =   0.136141

C          x = -3.779852  y = -0.494371  z = -1.232025 angstrom
           Maximum rank =  0   Radius =  0.650 angstrom
                   Q00  =  -0.197282

C          x = -0.312852  y = -0.841371  z =  0.260975 angstrom
           Maximum rank =  0   Radius =  0.650 angstrom
                   Q00  =  -0.054992

C          x = -1.682852  y = -0.645371  z =  0.142975 angstrom
           Maximum rank =  0   Radius =  0.650 angstrom
                   Q00  =  -0.101308

C          x =  0.454148  y = -1.102371  z = -0.869025 angstrom
           Maximum rank =  0   Radius =  0.650 angstrom
                   Q00  =  -0.084252

C          x = -2.297852  y = -0.716371  z = -1.102025 angstrom
           Maximum rank =  0   Radius =  0.650 angstrom
                   Q00  =  -0.101208

C          x = -0.153852  y = -1.171371  z = -2.115025 angstrom
           Maximum rank =  0   Radius =  0.650 angstrom
                   Q00  =  -0.065708

C          x = -1.523852  y = -0.975371  z = -2.229025 angstrom
           Maximum rank =  0   Radius =  0.650 angstrom
                   Q00  =   0.006824

H          x =  0.155148  y = -0.795371  z =  1.233975 angstrom
           Maximum rank =  0   Radius =  0.325 angstrom
                   Q00  =   0.046562

H          x = -2.273852  y = -0.441371  z =  1.024975 angstrom
           Maximum rank =  0   Radius =  0.325 angstrom
                   Q00  =   0.048011

H          x =  1.522148  y = -1.246371  z = -0.780025 angstrom
           Maximum rank =  0   Radius =  0.325 angstrom
                   Q00  =   0.072550

H          x =  0.439148  y = -1.370371  z = -2.998025 angstrom
           Maximum rank =  0   Radius =  0.325 angstrom
                   Q00  =   0.067002

H          x = -4.280852  y = -0.926371  z = -0.365025 angstrom
           Maximum rank =  0   Radius =  0.325 angstrom
                   Q00  =   0.096840

H          x = -4.130852  y = -1.028371  z = -2.109025 angstrom
           Maximum rank =  0   Radius =  0.325 angstrom
                   Q00  =   0.099482

H          x = -1.986852  y = -1.029371  z = -3.204025 angstrom
           Maximum rank =  0   Radius =  0.325 angstrom
                   Q00  =   0.055827

H          x = -4.058412  y =  0.566039  z = -1.321055 angstrom
           Maximum rank =  0   Radius =  0.325 angstrom
                   Q00  =   0.102027

Total multipoles referred to origin at
           x =   0.000000,  y =    0.000000,  z =    0.000000 angstrom
                   Q00  =  -0.000000

Finished at 23:19:23 on 26 Apr 2020

  DMA results are available in the Python driver through the
	  variable('DMA DISTRIBUTED MULTIPOLES')
  and
	  variable('DMA TOTAL MULTIPOLES')
  commands.

    Psi4 stopped on: Sunday, 26 April 2020 11:19PM
    Psi4 wall time for execution: 0:02:24.10

*** Psi4 exiting successfully. Buy a developer a beer!
