                               Psi4 1.3.2 release

  ==> Input File <==

--------------------------------------------------------------------------
import numpy as np
set {scf_type pk
basis cc-pvdz
d_convergence 10
gdma_switch   0
gdma_limit    0
gdma_origin   [ 0.0,  0.0,  0.0 ]
}
molecule test {
    units Angstrom
    0 1
    --
    0 1
    C               -0.025762397853717    -0.572337230901271    -2.002624407761214
    C               -0.825762397853717    -1.876337230901271    -2.100624407761214
    C                0.608237602146283    -0.339337230901271    -0.663624407761214
    C                1.807237602146283    -0.961337230901271    -0.328624407761214
    C                0.018237602146283     0.517662769098729     0.259375592238786
    C                2.393237602146284    -0.751337230901271     0.918375592238786
    C                0.604237602146283     0.744662769098729     1.504375592238786
    C                1.788237602146283     0.100662769098729     1.839375592238786
    O                2.362237602146283     0.313662769098729     3.060375592238787
    H                0.772237602146283    -0.597337230901271    -2.739624407761214
    H               -0.669762397853717     0.270662769098729    -2.253624407761214
    H               -1.647762397853717    -1.858337230901271    -1.384624407761214
    H                2.297237602146283    -1.612337230901271    -1.040624407761214
    H               -0.900762397853717     1.027662769098729     0.009375592238786
    H                3.322237602146283    -1.247337230901271     1.165375592238786
    H                0.140237602146283     1.408662769098729     2.218375592238786
    H                3.146237602146283    -0.230337230901271     3.190375592238786
    H               -0.164518397853717    -2.736707230901271    -1.920284407761214
    H               -1.218419397853717    -1.952987230901271    -3.125292407761214
    C               -3.477762397853717     1.052662769098729    -1.711624407761214
    C               -4.466762397853716     1.629662769098729    -0.698624407761214
    H               -2.997762397853717     1.857662769098729    -2.259624407761214
    H               -2.728762397853717     0.473662769098729    -1.179624407761214
    H               -3.974762397853716     0.389662769098729    -2.412624407761214
    H               -4.834762397853717     0.811662769098729    -0.082624407761214
    H               -5.312817397853717     2.119222769098729    -1.203124407761214
    H               -3.945929397853717     2.320502769098729    -0.019304407761214

}
e, wfn = energy('scf', return_wfn=True)
gdma(wfn)
dmavals = variable('DMA DISTRIBUTED MULTIPOLES')
charges = np.array(dmavals)
print(charges)
np.save('SSI-037TYR-066LEU-1-dimer.npy', np.array(charges))--------------------------------------------------------------------------

*** tstart() called on ds3
*** at Mon Apr 27 21:43:04 2020

   => Loading Basis Set <=

    Name: CC-PVDZ
    Role: ORBITAL
    Keyword: BASIS
    atoms 1-8, 20-21   entry C          line   138 file /theoryfs2/ds/metcalf/miniconda2/envs/tf2gpu/share/psi4/basis/cc-pvdz.gbs
    atoms 9            entry O          line   198 file /theoryfs2/ds/metcalf/miniconda2/envs/tf2gpu/share/psi4/basis/cc-pvdz.gbs
    atoms 10-19, 22-27 entry H          line    22 file /theoryfs2/ds/metcalf/miniconda2/envs/tf2gpu/share/psi4/basis/cc-pvdz.gbs

         ---------------------------------------------------------
                                   SCF
               by Justin Turney, Rob Parrish, Andy Simmonett
                          and Daniel G. A. Smith
                              RHF Reference
                        1 Threads,    500 MiB Core
         ---------------------------------------------------------

  ==> Geometry <==

    Molecular point group: c1
    Full point group: C1

    Geometry (in Angstrom), charge = 0, multiplicity = 1:

       Center              X                  Y                   Z               Mass
    ------------   -----------------  -----------------  -----------------  -----------------
         C           -0.025762397854    -0.572337230901    -2.002624407761    12.000000000000
         C           -0.825762397854    -1.876337230901    -2.100624407761    12.000000000000
         C            0.608237602146    -0.339337230901    -0.663624407761    12.000000000000
         C            1.807237602146    -0.961337230901    -0.328624407761    12.000000000000
         C            0.018237602146     0.517662769099     0.259375592239    12.000000000000
         C            2.393237602146    -0.751337230901     0.918375592239    12.000000000000
         C            0.604237602146     0.744662769099     1.504375592239    12.000000000000
         C            1.788237602146     0.100662769099     1.839375592239    12.000000000000
         O            2.362237602146     0.313662769099     3.060375592239    15.994914619570
         H            0.772237602146    -0.597337230901    -2.739624407761     1.007825032230
         H           -0.669762397854     0.270662769099    -2.253624407761     1.007825032230
         H           -1.647762397854    -1.858337230901    -1.384624407761     1.007825032230
         H            2.297237602146    -1.612337230901    -1.040624407761     1.007825032230
         H           -0.900762397854     1.027662769099     0.009375592239     1.007825032230
         H            3.322237602146    -1.247337230901     1.165375592239     1.007825032230
         H            0.140237602146     1.408662769099     2.218375592239     1.007825032230
         H            3.146237602146    -0.230337230901     3.190375592239     1.007825032230
         H           -0.164518397854    -2.736707230901    -1.920284407761     1.007825032230
         H           -1.218419397854    -1.952987230901    -3.125292407761     1.007825032230
         C           -3.477762397854     1.052662769099    -1.711624407761    12.000000000000
         C           -4.466762397854     1.629662769099    -0.698624407761    12.000000000000
         H           -2.997762397854     1.857662769099    -2.259624407761     1.007825032230
         H           -2.728762397854     0.473662769099    -1.179624407761     1.007825032230
         H           -3.974762397854     0.389662769099    -2.412624407761     1.007825032230
         H           -4.834762397854     0.811662769099    -0.082624407761     1.007825032230
         H           -5.312817397854     2.119222769099    -1.203124407761     1.007825032230
         H           -3.945929397854     2.320502769099    -0.019304407761     1.007825032230

  Running in c1 symmetry.

  Rotational constants: A =      0.04748  B =      0.01626  C =      0.01258 [cm^-1]
  Rotational constants: A =   1423.46598  B =    487.49540  C =    377.05914 [MHz]
  Nuclear repulsion =  577.270146272850297

  Charge       = 0
  Multiplicity = 1
  Electrons    = 84
  Nalpha       = 42
  Nbeta        = 42

  ==> Algorithm <==

  SCF Algorithm Type is PK.
  DIIS enabled.
  MOM disabled.
  Fractional occupation disabled.
  Guess Type is SAD.
  Energy threshold   = 1.00e-06
  Density threshold  = 1.00e-10
  Integral threshold = 0.00e+00

  ==> Primary Basis <==

  Basis Set: CC-PVDZ
    Blend: CC-PVDZ
    Number of shells: 114
    Number of basis function: 234
    Number of Cartesian functions: 245
    Spherical Harmonics?: true
    Max angular momentum: 2

  ==> Pre-Iterations <==

   -------------------------------------------------------
    Irrep   Nso     Nmo     Nalpha   Nbeta   Ndocc  Nsocc
   -------------------------------------------------------
     A        234     234       0       0       0       0
   -------------------------------------------------------
    Total     234     234      42      42      42       0
   -------------------------------------------------------

  ==> Integral Setup <==

  Using integral reordering PK algorithm.
  Sizing the integral batches needed.
  Building batch lookup table.
   Calculation information:
      Number of atoms:                  27
      Number of AO shells:             114
      Number of primitives:            322
      Number of atomic orbitals:       245
      Number of basis functions:       234

      Integral cutoff                 1.00e-12
      Number of threads:                 1

	Batch   1 pq = [       0,    9405] index = [             0,44231715] size =     44231715
	Batch   2 pq = [    9405,   13301] index = [      44231715,88464951] size =     44233236
	Batch   3 pq = [   13301,   16290] index = [      88464951,132690195] size =     44225244
	Batch   4 pq = [   16290,   18810] index = [     132690195,176917455] size =     44227260
	Batch   5 pq = [   18810,   21030] index = [     176917455,221140965] size =     44223510
	Batch   6 pq = [   21030,   23037] index = [     221140965,265363203] size =     44222238
	Batch   7 pq = [   23037,   24883] index = [     265363203,309594286] size =     44231083
	Batch   8 pq = [   24883,   26601] index = [     309594286,353819901] size =     44225615
	Batch   9 pq = [   26601,   27495] index = [     353819901,378001260] size =     24181359
  Task number: 35
  Buffer size: 11059200
  Buffer per thread: 2
  We computed 18871021 shell quartets total.
  Whereas there are 21487290 unique shell quartets.

  ==> DiskJK: Disk-Based J/K Matrices <==

    J tasked:                  Yes
    K tasked:                  Yes
    wK tasked:                  No
    Memory [MiB]:              375
    Schwarz Cutoff:          1E-12

    OpenMP threads:              1

  Minimum eigenvalue in the overlap matrix is 3.0859382370E-04.
  Using Symmetric Orthogonalization.

  SCF Guess: Superposition of Atomic Densities via on-the-fly atomic UHF.

  ==> Iterations <==

                        Total Energy        Delta E     RMS |[F,P]|

   @RHF iter SAD:  -461.73216370435830   -4.61732e+02   0.00000e+00
   @RHF iter   1:  -462.60864611112794   -8.76482e-01   2.80822e-03 DIIS
   @RHF iter   2:  -462.84872003200508   -2.40074e-01   1.19318e-03 DIIS
   @RHF iter   3:  -462.88816604478166   -3.94460e-02   2.76627e-04 DIIS
   @RHF iter   4:  -462.89147310889769   -3.30706e-03   1.19041e-04 DIIS
   @RHF iter   5:  -462.89192506442862   -4.51956e-04   1.91133e-05 DIIS
   @RHF iter   6:  -462.89194443592697   -1.93715e-05   5.40011e-06 DIIS
   @RHF iter   7:  -462.89194586979414   -1.43387e-06   1.90215e-06 DIIS
   @RHF iter   8:  -462.89194605819705   -1.88403e-07   6.48528e-07 DIIS
   @RHF iter   9:  -462.89194608186102   -2.36640e-08   1.81965e-07 DIIS
   @RHF iter  10:  -462.89194608375465   -1.89362e-09   5.34405e-08 DIIS
   @RHF iter  11:  -462.89194608393422   -1.79568e-10   1.79654e-08 DIIS
   @RHF iter  12:  -462.89194608395479   -2.05773e-11   7.15455e-09 DIIS
   @RHF iter  13:  -462.89194608395786   -3.06954e-12   3.10800e-09 DIIS
   @RHF iter  14:  -462.89194608396042   -2.55795e-12   1.37533e-09 DIIS
   @RHF iter  15:  -462.89194608395849    1.93268e-12   5.82451e-10 DIIS
   @RHF iter  16:  -462.89194608395934   -8.52651e-13   1.83410e-10 DIIS
   @RHF iter  17:  -462.89194608396087   -1.53477e-12   6.76164e-11 DIIS
  Energy and wave function converged.

  ==> Post-Iterations <==

    Orbital Energies [Eh]
    ---------------------

    Doubly Occupied:

       1A    -20.582277     2A    -11.298456     3A    -11.238167
       4A    -11.236301     5A    -11.233278     6A    -11.229046
       7A    -11.228306     8A    -11.224915     9A    -11.222239
      10A    -11.221345    11A    -11.218471    12A     -1.397510
      13A     -1.152433    14A     -1.058426    15A     -1.022238
      16A     -1.016621    17A     -0.976326    18A     -0.860533
      19A     -0.844372    20A     -0.839984    21A     -0.790341
      22A     -0.731497    23A     -0.670746    24A     -0.645507
      25A     -0.617029    26A     -0.602238    27A     -0.599917
      28A     -0.594888    29A     -0.584234    30A     -0.582582
      31A     -0.570689    32A     -0.544499    33A     -0.519812
      34A     -0.503371    35A     -0.498335    36A     -0.493068
      37A     -0.486966    38A     -0.474978    39A     -0.472662
      40A     -0.462687    41A     -0.337463    42A     -0.301348

    Virtual:

      43A      0.129507    44A      0.154215    45A      0.170206
      46A      0.180531    47A      0.193462    48A      0.207900
      49A      0.219391    50A      0.232788    51A      0.241915
      52A      0.249840    53A      0.261012    54A      0.267119
      55A      0.272065    56A      0.280867    57A      0.300177
      58A      0.308496    59A      0.319082    60A      0.346063
      61A      0.356330    62A      0.386799    63A      0.403916
      64A      0.423031    65A      0.429182    66A      0.471033
      67A      0.493676    68A      0.498153    69A      0.515061
      70A      0.587347    71A      0.597736    72A      0.602191
      73A      0.620815    74A      0.631133    75A      0.642902
      76A      0.660256    77A      0.660983    78A      0.674642
      79A      0.693946    80A      0.709538    81A      0.711621
      82A      0.723824    83A      0.737302    84A      0.742160
      85A      0.749528    86A      0.764991    87A      0.777502
      88A      0.788355    89A      0.805164    90A      0.829801
      91A      0.839493    92A      0.846405    93A      0.864801
      94A      0.872176    95A      0.877095    96A      0.885530
      97A      0.888216    98A      0.888890    99A      0.895897
     100A      0.900386   101A      0.910973   102A      0.915563
     103A      0.924450   104A      0.930059   105A      0.943120
     106A      0.955974   107A      0.967356   108A      0.982771
     109A      0.989016   110A      1.001933   111A      1.034709
     112A      1.048698   113A      1.064047   114A      1.093221
     115A      1.119474   116A      1.132037   117A      1.145674
     118A      1.151329   119A      1.168825   120A      1.185627
     121A      1.195189   122A      1.236083   123A      1.244300
     124A      1.259717   125A      1.284556   126A      1.288399
     127A      1.293280   128A      1.311149   129A      1.320542
     130A      1.353069   131A      1.357034   132A      1.380835
     133A      1.425055   134A      1.434156   135A      1.471829
     136A      1.485690   137A      1.498466   138A      1.506765
     139A      1.548153   140A      1.580351   141A      1.611797
     142A      1.623117   143A      1.642646   144A      1.679955
     145A      1.682629   146A      1.694090   147A      1.705114
     148A      1.725606   149A      1.736307   150A      1.771248
     151A      1.800127   152A      1.838190   153A      1.844734
     154A      1.861416   155A      1.867986   156A      1.884284
     157A      1.889440   158A      1.890162   159A      1.903268
     160A      1.908713   161A      1.911362   162A      1.922515
     163A      1.933209   164A      1.945091   165A      1.946579
     166A      1.950478   167A      1.955747   168A      1.958830
     169A      1.962792   170A      1.979275   171A      1.986229
     172A      2.005632   173A      2.025974   174A      2.028409
     175A      2.034268   176A      2.053975   177A      2.065932
     178A      2.071540   179A      2.087856   180A      2.101386
     181A      2.113826   182A      2.124804   183A      2.142973
     184A      2.151930   185A      2.167118   186A      2.199480
     187A      2.238136   188A      2.257637   189A      2.274413
     190A      2.300443   191A      2.309069   192A      2.314652
     193A      2.325191   194A      2.340676   195A      2.368634
     196A      2.449719   197A      2.454320   198A      2.463739
     199A      2.474926   200A      2.481862   201A      2.491554
     202A      2.514181   203A      2.533456   204A      2.543487
     205A      2.567817   206A      2.571277   207A      2.590189
     208A      2.640765   209A      2.645382   210A      2.752254
     211A      2.765300   212A      2.780626   213A      2.794472
     214A      2.805588   215A      2.820049   216A      2.847121
     217A      2.867881   218A      2.872728   219A      2.878429
     220A      2.923003   221A      2.961301   222A      2.970539
     223A      2.989867   224A      2.997863   225A      3.021653
     226A      3.098205   227A      3.181524   228A      3.250163
     229A      3.292207   230A      3.347030   231A      3.573147
     232A      3.674885   233A      3.974864   234A      4.191978

    Final Occupation by Irrep:
              A
    DOCC [    42 ]

  @RHF Final Energy:  -462.89194608396087

   => Energetics <=

    Nuclear Repulsion Energy =            577.2701462728502975
    One-Electron Energy =               -1771.9519777575428634
    Two-Electron Energy =                 731.7898854007316913
    Total Energy =                       -462.8919460839608746

Computation Completed

Properties will be evaluated at   0.000000,   0.000000,   0.000000 [a0]

Properties computed using the SCF density matrix

  Nuclear Dipole Moment: [e a0]
     X:   -17.5360      Y:     0.4177      Z:   -12.2076

  Electronic Dipole Moment: [e a0]
     X:    17.8209      Y:    -0.8140      Z:    11.9122

  Dipole Moment: [e a0]
     X:     0.2849      Y:    -0.3963      Z:    -0.2954     Total:     0.5705

  Dipole Moment: [D]
     X:     0.7240      Y:    -1.0073      Z:    -0.7508     Total:     1.4500

*** tstop() called on ds3 at Mon Apr 27 21:46:10 2020
Module time:
	user time   =     137.72 seconds =       2.30 minutes
	system time =      55.43 seconds =       0.92 minutes
	total time  =        186 seconds =       3.10 minutes
Total time:
	user time   =     137.72 seconds =       2.30 minutes
	system time =      55.43 seconds =       0.92 minutes
	total time  =        186 seconds =       3.10 minutes
                                     G D M A

                                 by Anthony Stone

                           version 2.2.06, 22 June 2011

               Distributed Multipoles from Gaussian wavefunctions

Starting at 21:46:10 on 27 Apr 2020

Using SCF density matrix from file ./SSI/SSI-037TYR-066LEU-1-dimer.test.2860.fchk

                         Distributed Multipole Analysis

Standard DMA

Positions and radii in angstrom
Multipole moments in atomic units, ea_0^k for rank k

C          x = -0.025762  y = -0.572337  z = -2.002624 angstrom
           Maximum rank =  0   Radius =  0.650 angstrom
                   Q00  =  -0.018357

C          x = -0.825762  y = -1.876337  z = -2.100624 angstrom
           Maximum rank =  0   Radius =  0.650 angstrom
                   Q00  =  -0.248561

C          x =  0.608238  y = -0.339337  z = -0.663624 angstrom
           Maximum rank =  0   Radius =  0.650 angstrom
                   Q00  =  -0.143036

C          x =  1.807238  y = -0.961337  z = -0.328624 angstrom
           Maximum rank =  0   Radius =  0.650 angstrom
                   Q00  =  -0.032243

C          x =  0.018238  y =  0.517663  z =  0.259376 angstrom
           Maximum rank =  0   Radius =  0.650 angstrom
                   Q00  =   0.037396

C          x =  2.393238  y = -0.751337  z =  0.918376 angstrom
           Maximum rank =  0   Radius =  0.650 angstrom
                   Q00  =  -0.197667

C          x =  0.604238  y =  0.744663  z =  1.504376 angstrom
           Maximum rank =  0   Radius =  0.650 angstrom
                   Q00  =  -0.121933

C          x =  1.788238  y =  0.100663  z =  1.839376 angstrom
           Maximum rank =  0   Radius =  0.650 angstrom
                   Q00  =   0.334477

O          x =  2.362238  y =  0.313663  z =  3.060376 angstrom
           Maximum rank =  0   Radius =  0.650 angstrom
                   Q00  =  -0.677862

H          x =  0.772238  y = -0.597337  z = -2.739624 angstrom
           Maximum rank =  0   Radius =  0.325 angstrom
                   Q00  =   0.064337

H          x = -0.669762  y =  0.270663  z = -2.253624 angstrom
           Maximum rank =  0   Radius =  0.325 angstrom
                   Q00  =   0.068427

H          x = -1.647762  y = -1.858337  z = -1.384624 angstrom
           Maximum rank =  0   Radius =  0.325 angstrom
                   Q00  =   0.085519

H          x =  2.297238  y = -1.612337  z = -1.040624 angstrom
           Maximum rank =  0   Radius =  0.325 angstrom
                   Q00  =   0.067249

H          x = -0.900762  y =  1.027663  z =  0.009376 angstrom
           Maximum rank =  0   Radius =  0.325 angstrom
                   Q00  =   0.063522

H          x =  3.322238  y = -1.247337  z =  1.165376 angstrom
           Maximum rank =  0   Radius =  0.325 angstrom
                   Q00  =   0.071320

H          x =  0.140238  y =  1.408663  z =  2.218376 angstrom
           Maximum rank =  0   Radius =  0.325 angstrom
                   Q00  =   0.079289

H          x =  3.146238  y = -0.230337  z =  3.190376 angstrom
           Maximum rank =  0   Radius =  0.325 angstrom
                   Q00  =   0.406233

H          x = -0.164518  y = -2.736707  z = -1.920284 angstrom
           Maximum rank =  0   Radius =  0.325 angstrom
                   Q00  =   0.081547

H          x = -1.218419  y = -1.952987  z = -3.125292 angstrom
           Maximum rank =  0   Radius =  0.325 angstrom
                   Q00  =   0.079341

C          x = -3.477762  y =  1.052663  z = -1.711624 angstrom
           Maximum rank =  0   Radius =  0.650 angstrom
                   Q00  =  -0.250158

C          x = -4.466762  y =  1.629663  z = -0.698624 angstrom
           Maximum rank =  0   Radius =  0.650 angstrom
                   Q00  =  -0.226431

H          x = -2.997762  y =  1.857663  z = -2.259624 angstrom
           Maximum rank =  0   Radius =  0.325 angstrom
                   Q00  =   0.077727

H          x = -2.728762  y =  0.473663  z = -1.179624 angstrom
           Maximum rank =  0   Radius =  0.325 angstrom
                   Q00  =   0.075158

H          x = -3.974762  y =  0.389663  z = -2.412624 angstrom
           Maximum rank =  0   Radius =  0.325 angstrom
                   Q00  =   0.084139

H          x = -4.834762  y =  0.811663  z = -0.082624 angstrom
           Maximum rank =  0   Radius =  0.325 angstrom
                   Q00  =   0.079215

H          x = -5.312817  y =  2.119223  z = -1.203124 angstrom
           Maximum rank =  0   Radius =  0.325 angstrom
                   Q00  =   0.083636

H          x = -3.945929  y =  2.320503  z = -0.019304 angstrom
           Maximum rank =  0   Radius =  0.325 angstrom
                   Q00  =   0.077714

Total multipoles referred to origin at
           x =   0.000000,  y =    0.000000,  z =    0.000000 angstrom
                   Q00  =  -0.000000

Finished at 21:46:10 on 27 Apr 2020

  DMA results are available in the Python driver through the
	  variable('DMA DISTRIBUTED MULTIPOLES')
  and
	  variable('DMA TOTAL MULTIPOLES')
  commands.

    Psi4 stopped on: Monday, 27 April 2020 09:46PM
    Psi4 wall time for execution: 0:03:06.23

*** Psi4 exiting successfully. Buy a developer a beer!
