                               Psi4 1.3.2 release

  ==> Input File <==

--------------------------------------------------------------------------
import numpy as np
set {scf_type pk
basis cc-pvdz
d_convergence 10
gdma_switch   0
gdma_limit    0
gdma_origin   [ 0.0,  0.0,  0.0 ]
}
molecule test {
    units Angstrom
    0 1
    --
    0 1
    C               -0.017954415009189     2.893026634041294    -1.263545173649429
    C                0.531045584990811     2.238026634041294    -2.542545173649428
    C                0.976045584990811     2.704026634041294    -0.098545173649428
    O               -0.205954415009189     4.289026634041294    -1.492545173649428
    H               -0.966954415009189     2.423026634041294    -1.005545173649428
    H                0.673045584990811     1.175026634041294    -2.358545173649428
    H                1.929045584990811     3.174026634041294    -0.344545173649428
    H                0.579045584990811     3.160026634041293     0.808454826350572
    H                1.141045584990811     1.639026634041294     0.081454826350572
    H               -0.557954415009189     4.706026634041294    -0.700545173649428
    H                1.502155584990811     2.687226634041294    -2.797825173649428
    H               -0.225834415009189     2.227176634041294    -3.340675173649428
    C                1.567045584990811    -3.521973365958706    -0.777545173649428
    C               -0.743954415009189    -0.634973365958706     0.107454826350572
    C                0.048045584990811    -1.523973365958706    -0.619545173649428
    C               -0.960954415009189    -0.839973365958706     1.477454826350572
    C                0.631045584990811    -2.626973365958706     0.004454826350572
    C               -0.387954415009189    -1.944973365958706     2.118454826350572
    C                0.405045584990811    -2.836973365958706     1.377454826350571
    O               -1.753954415009189     0.049026634041294     2.154454826350572
    H               -1.182954415009189     0.220026634041294    -0.382545173649428
    H                0.218045584990811    -1.358973365958706    -1.674545173649429
    H               -2.097954415009189     0.752026634041294     1.606454826350572
    H               -0.556954415009189    -2.104973365958706     3.174454826350572
    H                1.877045584990811    -4.353973365958707    -0.147545173649428
    H                2.453045584990811    -2.945973365958706    -1.062545173649428
    H                0.854045584990811    -3.691973365958706     1.868454826350572
    H                1.088555584990811    -3.986853365958706    -1.652145173649429

}
e, wfn = energy('scf', return_wfn=True)
gdma(wfn)
dmavals = variable('DMA DISTRIBUTED MULTIPOLES')
charges = np.array(dmavals)
print(charges)
np.save('SSI-040THR-186TYR-1-dimer.npy', np.array(charges))--------------------------------------------------------------------------

*** tstart() called on ds3
*** at Mon Apr 27 23:39:25 2020

   => Loading Basis Set <=

    Name: CC-PVDZ
    Role: ORBITAL
    Keyword: BASIS
    atoms 1-3, 13-19  entry C          line   138 file /theoryfs2/ds/metcalf/miniconda2/envs/tf2gpu/share/psi4/basis/cc-pvdz.gbs
    atoms 4, 20       entry O          line   198 file /theoryfs2/ds/metcalf/miniconda2/envs/tf2gpu/share/psi4/basis/cc-pvdz.gbs
    atoms 5-12, 21-28 entry H          line    22 file /theoryfs2/ds/metcalf/miniconda2/envs/tf2gpu/share/psi4/basis/cc-pvdz.gbs

         ---------------------------------------------------------
                                   SCF
               by Justin Turney, Rob Parrish, Andy Simmonett
                          and Daniel G. A. Smith
                              RHF Reference
                        1 Threads,    500 MiB Core
         ---------------------------------------------------------

  ==> Geometry <==

    Molecular point group: c1
    Full point group: C1

    Geometry (in Angstrom), charge = 0, multiplicity = 1:

       Center              X                  Y                   Z               Mass
    ------------   -----------------  -----------------  -----------------  -----------------
         C           -0.017954415009     2.893026634041    -1.263545173649    12.000000000000
         C            0.531045584991     2.238026634041    -2.542545173649    12.000000000000
         C            0.976045584991     2.704026634041    -0.098545173649    12.000000000000
         O           -0.205954415009     4.289026634041    -1.492545173649    15.994914619570
         H           -0.966954415009     2.423026634041    -1.005545173649     1.007825032230
         H            0.673045584991     1.175026634041    -2.358545173649     1.007825032230
         H            1.929045584991     3.174026634041    -0.344545173649     1.007825032230
         H            0.579045584991     3.160026634041     0.808454826351     1.007825032230
         H            1.141045584991     1.639026634041     0.081454826351     1.007825032230
         H           -0.557954415009     4.706026634041    -0.700545173649     1.007825032230
         H            1.502155584991     2.687226634041    -2.797825173649     1.007825032230
         H           -0.225834415009     2.227176634041    -3.340675173649     1.007825032230
         C            1.567045584991    -3.521973365959    -0.777545173649    12.000000000000
         C           -0.743954415009    -0.634973365959     0.107454826351    12.000000000000
         C            0.048045584991    -1.523973365959    -0.619545173649    12.000000000000
         C           -0.960954415009    -0.839973365959     1.477454826351    12.000000000000
         C            0.631045584991    -2.626973365959     0.004454826351    12.000000000000
         C           -0.387954415009    -1.944973365959     2.118454826351    12.000000000000
         C            0.405045584991    -2.836973365959     1.377454826351    12.000000000000
         O           -1.753954415009     0.049026634041     2.154454826351    15.994914619570
         H           -1.182954415009     0.220026634041    -0.382545173649     1.007825032230
         H            0.218045584991    -1.358973365959    -1.674545173649     1.007825032230
         H           -2.097954415009     0.752026634041     1.606454826351     1.007825032230
         H           -0.556954415009    -2.104973365959     3.174454826351     1.007825032230
         H            1.877045584991    -4.353973365959    -0.147545173649     1.007825032230
         H            2.453045584991    -2.945973365959    -1.062545173649     1.007825032230
         H            0.854045584991    -3.691973365959     1.868454826351     1.007825032230
         H            1.088555584991    -3.986853365959    -1.652145173649     1.007825032230

  Running in c1 symmetry.

  Rotational constants: A =      0.04151  B =      0.01341  C =      0.01089 [cm^-1]
  Rotational constants: A =   1244.30031  B =    401.88013  C =    326.33741 [MHz]
  Nuclear repulsion =  669.843898687351384

  Charge       = 0
  Multiplicity = 1
  Electrons    = 92
  Nalpha       = 46
  Nbeta        = 46

  ==> Algorithm <==

  SCF Algorithm Type is PK.
  DIIS enabled.
  MOM disabled.
  Fractional occupation disabled.
  Guess Type is SAD.
  Energy threshold   = 1.00e-06
  Density threshold  = 1.00e-10
  Integral threshold = 0.00e+00

  ==> Primary Basis <==

  Basis Set: CC-PVDZ
    Blend: CC-PVDZ
    Number of shells: 120
    Number of basis function: 248
    Number of Cartesian functions: 260
    Spherical Harmonics?: true
    Max angular momentum: 2

  ==> Pre-Iterations <==

   -------------------------------------------------------
    Irrep   Nso     Nmo     Nalpha   Nbeta   Ndocc  Nsocc
   -------------------------------------------------------
     A        248     248       0       0       0       0
   -------------------------------------------------------
    Total     248     248      46      46      46       0
   -------------------------------------------------------

  ==> Integral Setup <==

  Using integral reordering PK algorithm.
  Sizing the integral batches needed.
  Building batch lookup table.
   Calculation information:
      Number of atoms:                  28
      Number of AO shells:             120
      Number of primitives:            344
      Number of atomic orbitals:       260
      Number of basis functions:       248

      Integral cutoff                 1.00e-12
      Number of threads:                 1

	Batch   1 pq = [       0,    9405] index = [             0,44231715] size =     44231715
	Batch   2 pq = [    9405,   13301] index = [      44231715,88464951] size =     44233236
	Batch   3 pq = [   13301,   16290] index = [      88464951,132690195] size =     44225244
	Batch   4 pq = [   16290,   18810] index = [     132690195,176917455] size =     44227260
	Batch   5 pq = [   18810,   21030] index = [     176917455,221140965] size =     44223510
	Batch   6 pq = [   21030,   23037] index = [     221140965,265363203] size =     44222238
	Batch   7 pq = [   23037,   24883] index = [     265363203,309594286] size =     44231083
	Batch   8 pq = [   24883,   26601] index = [     309594286,353819901] size =     44225615
	Batch   9 pq = [   26601,   28214] index = [     353819901,398029005] size =     44209104
	Batch  10 pq = [   28214,   29740] index = [     398029005,442248670] size =     44219665
	Batch  11 pq = [   29740,   30876] index = [     442248670,476679126] size =     34430456
  Task number: 44
  Buffer size: 11059200
  Buffer per thread: 2
  We computed 24025513 shell quartets total.
  Whereas there are 26357430 unique shell quartets.

  ==> DiskJK: Disk-Based J/K Matrices <==

    J tasked:                  Yes
    K tasked:                  Yes
    wK tasked:                  No
    Memory [MiB]:              375
    Schwarz Cutoff:          1E-12

    OpenMP threads:              1

  Minimum eigenvalue in the overlap matrix is 3.3649150191E-04.
  Using Symmetric Orthogonalization.

  SCF Guess: Superposition of Atomic Densities via on-the-fly atomic UHF.

  ==> Iterations <==

                        Total Energy        Delta E     RMS |[F,P]|

   @RHF iter SAD:  -536.27699883492198   -5.36277e+02   0.00000e+00
   @RHF iter   1:  -537.43711408819058   -1.16012e+00   2.87455e-03 DIIS
   @RHF iter   2:  -537.70064854628481   -2.63534e-01   1.28317e-03 DIIS
   @RHF iter   3:  -537.74591551327126   -4.52670e-02   2.83335e-04 DIIS
   @RHF iter   4:  -537.74954543555691   -3.62992e-03   1.11509e-04 DIIS
   @RHF iter   5:  -537.74998254655520   -4.37111e-04   2.01346e-05 DIIS
   @RHF iter   6:  -537.75000309638449   -2.05498e-05   7.57497e-06 DIIS
   @RHF iter   7:  -537.75000581785207   -2.72147e-06   2.23972e-06 DIIS
   @RHF iter   8:  -537.75000615773365   -3.39882e-07   7.17851e-07 DIIS
   @RHF iter   9:  -537.75000619982336   -4.20897e-08   2.44005e-07 DIIS
   @RHF iter  10:  -537.75000620527828   -5.45492e-09   9.88410e-08 DIIS
   @RHF iter  11:  -537.75000620668811   -1.40983e-09   4.68211e-08 DIIS
   @RHF iter  12:  -537.75000620703941   -3.51292e-10   2.55631e-08 DIIS
   @RHF iter  13:  -537.75000620713956   -1.00158e-10   8.43200e-09 DIIS
   @RHF iter  14:  -537.75000620714843   -8.86757e-12   2.14260e-09 DIIS
   @RHF iter  15:  -537.75000620715173   -3.29692e-12   7.64279e-10 DIIS
   @RHF iter  16:  -537.75000620715241   -6.82121e-13   2.91106e-10 DIIS
   @RHF iter  17:  -537.75000620714900    3.41061e-12   1.33105e-10 DIIS
   @RHF iter  18:  -537.75000620715105   -2.04636e-12   6.20087e-11 DIIS
  Energy and wave function converged.

  ==> Post-Iterations <==

    Orbital Energies [Eh]
    ---------------------

    Doubly Occupied:

       1A    -20.585046     2A    -20.548788     3A    -11.306699
       4A    -11.285502     5A    -11.245567     6A    -11.243101
       7A    -11.239080     8A    -11.238630     9A    -11.238165
      10A    -11.231526    11A    -11.224474    12A    -11.220173
      13A     -1.400450    14A     -1.353091    15A     -1.150248
      16A     -1.040999    17A     -1.038270    18A     -1.019289
      19A     -0.935736    20A     -0.928203    21A     -0.846504
      22A     -0.805510    23A     -0.802523    24A     -0.736078
      25A     -0.696627    26A     -0.669620    27A     -0.644434
      28A     -0.620653    29A     -0.610818    30A     -0.601820
      31A     -0.590034    32A     -0.588444    33A     -0.575854
      34A     -0.566273    35A     -0.546725    36A     -0.538802
      37A     -0.526237    38A     -0.524437    39A     -0.509738
      40A     -0.500331    41A     -0.487355    42A     -0.468924
      43A     -0.464601    44A     -0.431276    45A     -0.341135
      46A     -0.304315

    Virtual:

      47A      0.124036    48A      0.146960    49A      0.153190
      50A      0.177444    51A      0.195611    52A      0.202739
      53A      0.212928    54A      0.221952    55A      0.239485
      56A      0.251542    57A      0.258545    58A      0.263208
      59A      0.266136    60A      0.279409    61A      0.290986
      62A      0.295627    63A      0.329845    64A      0.333202
      65A      0.363901    66A      0.379182    67A      0.383423
      68A      0.411355    69A      0.422867    70A      0.437631
      71A      0.452707    72A      0.486663    73A      0.497823
      74A      0.506142    75A      0.566856    76A      0.593759
      77A      0.616598    78A      0.633478    79A      0.637135
      80A      0.652043    81A      0.659473    82A      0.663876
      83A      0.684437    84A      0.703312    85A      0.705866
      86A      0.713296    87A      0.724157    88A      0.732315
      89A      0.758864    90A      0.763040    91A      0.772816
      92A      0.782471    93A      0.783455    94A      0.794423
      95A      0.811488    96A      0.819408    97A      0.830246
      98A      0.840949    99A      0.848575   100A      0.872793
     101A      0.879167   102A      0.883728   103A      0.885935
     104A      0.892582   105A      0.897041   106A      0.900299
     107A      0.910928   108A      0.920212   109A      0.924893
     110A      0.930592   111A      0.941625   112A      0.944576
     113A      0.946258   114A      0.982045   115A      0.996287
     116A      1.005542   117A      1.032781   118A      1.043256
     119A      1.065059   120A      1.110545   121A      1.125326
     122A      1.133066   123A      1.139671   124A      1.152329
     125A      1.183339   126A      1.194755   127A      1.208417
     128A      1.233109   129A      1.246485   130A      1.263675
     131A      1.265977   132A      1.283705   133A      1.286371
     134A      1.303971   135A      1.316944   136A      1.332014
     137A      1.346816   138A      1.353457   139A      1.359565
     140A      1.389239   141A      1.420291   142A      1.480750
     143A      1.482928   144A      1.515368   145A      1.525859
     146A      1.545993   147A      1.550816   148A      1.570977
     149A      1.598904   150A      1.620014   151A      1.627148
     152A      1.668335   153A      1.673120   154A      1.680549
     155A      1.691953   156A      1.696496   157A      1.712080
     158A      1.731076   159A      1.744579   160A      1.778876
     161A      1.798287   162A      1.801082   163A      1.821613
     164A      1.845301   165A      1.856356   166A      1.863402
     167A      1.873726   168A      1.886155   169A      1.894083
     170A      1.898196   171A      1.910085   172A      1.912863
     173A      1.935352   174A      1.949316   175A      1.950391
     176A      1.955799   177A      1.959372   178A      1.985745
     179A      1.987232   180A      1.997797   181A      2.001148
     182A      2.013555   183A      2.018317   184A      2.033101
     185A      2.040680   186A      2.057430   187A      2.064469
     188A      2.081724   189A      2.101395   190A      2.110479
     191A      2.138889   192A      2.152546   193A      2.184953
     194A      2.199919   195A      2.208862   196A      2.226421
     197A      2.241447   198A      2.253904   199A      2.270606
     200A      2.286195   201A      2.315903   202A      2.322924
     203A      2.347281   204A      2.349655   205A      2.361470
     206A      2.384444   207A      2.447189   208A      2.463007
     209A      2.470837   210A      2.491354   211A      2.495407
     212A      2.507406   213A      2.528359   214A      2.535855
     215A      2.560027   216A      2.603645   217A      2.612602
     218A      2.637554   219A      2.641778   220A      2.735339
     221A      2.769459   222A      2.771502   223A      2.779029
     224A      2.790770   225A      2.802013   226A      2.810869
     227A      2.823662   228A      2.831513   229A      2.883039
     230A      2.885377   231A      2.921730   232A      2.951594
     233A      2.980029   234A      2.996919   235A      3.063459
     236A      3.099526   237A      3.237402   238A      3.266982
     239A      3.328652   240A      3.347539   241A      3.412458
     242A      3.457106   243A      3.559441   244A      3.641642
     245A      3.678559   246A      3.969747   247A      4.129050
     248A      4.189990

    Final Occupation by Irrep:
              A
    DOCC [    46 ]

  @RHF Final Energy:  -537.75000620715105

   => Energetics <=

    Nuclear Repulsion Energy =            669.8438986873513841
    One-Electron Energy =               -2060.2436033635690364
    Two-Electron Energy =                 852.6496984690666068
    Total Energy =                       -537.7500062071510456

Computation Completed

Properties will be evaluated at   0.000000,   0.000000,   0.000000 [a0]

Properties computed using the SCF density matrix

  Nuclear Dipole Moment: [e a0]
     X:     6.2964      Y:     3.5091      Z:    -7.4288

  Electronic Dipole Moment: [e a0]
     X:    -6.3143      Y:    -3.7378      Z:     7.4656

  Dipole Moment: [e a0]
     X:    -0.0179      Y:    -0.2287      Z:     0.0367     Total:     0.2323

  Dipole Moment: [D]
     X:    -0.0454      Y:    -0.5813      Z:     0.0934     Total:     0.5905

*** tstop() called on ds3 at Mon Apr 27 23:43:52 2020
Module time:
	user time   =     191.39 seconds =       3.19 minutes
	system time =      88.62 seconds =       1.48 minutes
	total time  =        267 seconds =       4.45 minutes
Total time:
	user time   =     191.39 seconds =       3.19 minutes
	system time =      88.62 seconds =       1.48 minutes
	total time  =        267 seconds =       4.45 minutes
                                     G D M A

                                 by Anthony Stone

                           version 2.2.06, 22 June 2011

               Distributed Multipoles from Gaussian wavefunctions

Starting at 23:43:53 on 27 Apr 2020

Using SCF density matrix from file ./SSI/SSI-040THR-186TYR-1-dimer.test.3569.fchk

                         Distributed Multipole Analysis

Standard DMA

Positions and radii in angstrom
Multipole moments in atomic units, ea_0^k for rank k

C          x = -0.017954  y =  2.893027  z = -1.263545 angstrom
           Maximum rank =  0   Radius =  0.650 angstrom
                   Q00  =   0.126425

C          x =  0.531046  y =  2.238027  z = -2.542545 angstrom
           Maximum rank =  0   Radius =  0.650 angstrom
                   Q00  =  -0.214424

C          x =  0.976046  y =  2.704027  z = -0.098545 angstrom
           Maximum rank =  0   Radius =  0.650 angstrom
                   Q00  =  -0.267512

O          x = -0.205954  y =  4.289027  z = -1.492545 angstrom
           Maximum rank =  0   Radius =  0.650 angstrom
                   Q00  =  -0.544215

H          x = -0.966954  y =  2.423027  z = -1.005545 angstrom
           Maximum rank =  0   Radius =  0.325 angstrom
                   Q00  =  -0.000334

H          x =  0.673046  y =  1.175027  z = -2.358545 angstrom
           Maximum rank =  0   Radius =  0.325 angstrom
                   Q00  =   0.076002

H          x =  1.929046  y =  3.174027  z = -0.344545 angstrom
           Maximum rank =  0   Radius =  0.325 angstrom
                   Q00  =   0.094613

H          x =  0.579046  y =  3.160027  z =  0.808455 angstrom
           Maximum rank =  0   Radius =  0.325 angstrom
                   Q00  =   0.075371

H          x =  1.141046  y =  1.639027  z =  0.081455 angstrom
           Maximum rank =  0   Radius =  0.325 angstrom
                   Q00  =   0.095117

H          x = -0.557954  y =  4.706027  z = -0.700545 angstrom
           Maximum rank =  0   Radius =  0.325 angstrom
                   Q00  =   0.384256

H          x =  1.502156  y =  2.687227  z = -2.797825 angstrom
           Maximum rank =  0   Radius =  0.325 angstrom
                   Q00  =   0.088747

H          x = -0.225834  y =  2.227177  z = -3.340675 angstrom
           Maximum rank =  0   Radius =  0.325 angstrom
                   Q00  =   0.084641

C          x =  1.567046  y = -3.521973  z = -0.777545 angstrom
           Maximum rank =  0   Radius =  0.650 angstrom
                   Q00  =  -0.203068

C          x = -0.743954  y = -0.634973  z =  0.107455 angstrom
           Maximum rank =  0   Radius =  0.650 angstrom
                   Q00  =  -0.165619

C          x =  0.048046  y = -1.523973  z = -0.619545 angstrom
           Maximum rank =  0   Radius =  0.650 angstrom
                   Q00  =  -0.013182

C          x = -0.960954  y = -0.839973  z =  1.477455 angstrom
           Maximum rank =  0   Radius =  0.650 angstrom
                   Q00  =   0.282037

C          x =  0.631046  y = -2.626973  z =  0.004455 angstrom
           Maximum rank =  0   Radius =  0.650 angstrom
                   Q00  =  -0.127870

C          x = -0.387954  y = -1.944973  z =  2.118455 angstrom
           Maximum rank =  0   Radius =  0.650 angstrom
                   Q00  =  -0.118589

C          x =  0.405046  y = -2.836973  z =  1.377455 angstrom
           Maximum rank =  0   Radius =  0.650 angstrom
                   Q00  =   0.002966

O          x = -1.753954  y =  0.049027  z =  2.154455 angstrom
           Maximum rank =  0   Radius =  0.650 angstrom
                   Q00  =  -0.649123

H          x = -1.182954  y =  0.220027  z = -0.382545 angstrom
           Maximum rank =  0   Radius =  0.325 angstrom
                   Q00  =   0.068706

H          x =  0.218046  y = -1.358973  z = -1.674545 angstrom
           Maximum rank =  0   Radius =  0.325 angstrom
                   Q00  =   0.068550

H          x = -2.097954  y =  0.752027  z =  1.606455 angstrom
           Maximum rank =  0   Radius =  0.325 angstrom
                   Q00  =   0.406522

H          x = -0.556954  y = -2.104973  z =  3.174455 angstrom
           Maximum rank =  0   Radius =  0.325 angstrom
                   Q00  =   0.084761

H          x =  1.877046  y = -4.353973  z = -0.147545 angstrom
           Maximum rank =  0   Radius =  0.325 angstrom
                   Q00  =   0.096090

H          x =  2.453046  y = -2.945973  z = -1.062545 angstrom
           Maximum rank =  0   Radius =  0.325 angstrom
                   Q00  =   0.100117

H          x =  0.854046  y = -3.691973  z =  1.868455 angstrom
           Maximum rank =  0   Radius =  0.325 angstrom
                   Q00  =   0.070221

H          x =  1.088556  y = -3.986853  z = -1.652145 angstrom
           Maximum rank =  0   Radius =  0.325 angstrom
                   Q00  =   0.098791

Total multipoles referred to origin at
           x =   0.000000,  y =    0.000000,  z =    0.000000 angstrom
                   Q00  =  -0.000000

Finished at 23:43:53 on 27 Apr 2020

  DMA results are available in the Python driver through the
	  variable('DMA DISTRIBUTED MULTIPOLES')
  and
	  variable('DMA TOTAL MULTIPOLES')
  commands.

    Psi4 stopped on: Monday, 27 April 2020 11:43PM
    Psi4 wall time for execution: 0:04:28.23

*** Psi4 exiting successfully. Buy a developer a beer!
