                               Psi4 1.3.2 release

  ==> Input File <==

--------------------------------------------------------------------------
import numpy as np
set {scf_type pk
basis cc-pvdz
d_convergence 10
gdma_switch   0
gdma_limit    0
gdma_origin   [ 0.0,  0.0,  0.0 ]
}
molecule test {
    units Angstrom
    0 1
    --
    0 1
    C                0.089777635116612     0.935526070064893    -4.420563317579329
    O               -0.458222364883388     0.192526070064893    -3.348563317579329
    H               -0.098222364883388    -0.705473929935107    -3.372563317579329
    H                0.312777635116612     0.256526070064893    -5.237563317579329
    H                1.002777635116612     1.433526070064893    -4.091563317579328
    H               -0.633571364883388     1.678328070064893    -4.788003317579329
    C                2.192777635116612     0.401526070064893    -0.773563317579329
    C               -0.036222364883388    -0.599473929935107    -0.160563317579329
    C                1.095777635116612     0.116526070064893     0.221436682420671
    C               -1.053222364883388    -0.863473929935107     0.750436682420671
    C               -0.942222364883388    -0.410473929935107     2.058436682420671
    C                1.197777635116612     0.562526070064893     1.537436682420671
    C                0.183777635116612     0.303526070064893     2.455436682420671
    O               -1.939222364883388    -0.676473929935107     2.944436682420672
    H               -0.124222364883388    -0.977473929935107    -1.165563317579329
    H               -1.926222364883388    -1.419473929935107     0.438436682420671
    H                2.686777635116612     1.333526070064893    -0.491563317579329
    H                1.734777635116612     0.562526070064893    -1.749563317579329
    H                2.073777635116612     1.116526070064893     1.849436682420671
    H               -2.655222364883388    -1.172473929935107     2.540436682420672
    H                0.250777635116612     0.662526070064893     3.472436682420672
    H                2.940521635116612    -0.400913929935107    -0.857046317579329

}
e, wfn = energy('scf', return_wfn=True)
gdma(wfn)
dmavals = variable('DMA DISTRIBUTED MULTIPOLES')
charges = np.array(dmavals)
print(charges)
np.save('SSI-244SER-294TYR-1-dimer.npy', np.array(charges))--------------------------------------------------------------------------

*** tstart() called on ds3
*** at Tue Apr 28 21:49:07 2020

   => Loading Basis Set <=

    Name: CC-PVDZ
    Role: ORBITAL
    Keyword: BASIS
    atoms 1, 7-13    entry C          line   138 file /theoryfs2/ds/metcalf/miniconda2/envs/tf2gpu/share/psi4/basis/cc-pvdz.gbs
    atoms 2, 14      entry O          line   198 file /theoryfs2/ds/metcalf/miniconda2/envs/tf2gpu/share/psi4/basis/cc-pvdz.gbs
    atoms 3-6, 15-22 entry H          line    22 file /theoryfs2/ds/metcalf/miniconda2/envs/tf2gpu/share/psi4/basis/cc-pvdz.gbs

         ---------------------------------------------------------
                                   SCF
               by Justin Turney, Rob Parrish, Andy Simmonett
                          and Daniel G. A. Smith
                              RHF Reference
                        1 Threads,    500 MiB Core
         ---------------------------------------------------------

  ==> Geometry <==

    Molecular point group: c1
    Full point group: C1

    Geometry (in Angstrom), charge = 0, multiplicity = 1:

       Center              X                  Y                   Z               Mass
    ------------   -----------------  -----------------  -----------------  -----------------
         C            0.089777635117     0.935526070065    -4.420563317579    12.000000000000
         O           -0.458222364883     0.192526070065    -3.348563317579    15.994914619570
         H           -0.098222364883    -0.705473929935    -3.372563317579     1.007825032230
         H            0.312777635117     0.256526070065    -5.237563317579     1.007825032230
         H            1.002777635117     1.433526070065    -4.091563317579     1.007825032230
         H           -0.633571364883     1.678328070065    -4.788003317579     1.007825032230
         C            2.192777635117     0.401526070065    -0.773563317579    12.000000000000
         C           -0.036222364883    -0.599473929935    -0.160563317579    12.000000000000
         C            1.095777635117     0.116526070065     0.221436682421    12.000000000000
         C           -1.053222364883    -0.863473929935     0.750436682421    12.000000000000
         C           -0.942222364883    -0.410473929935     2.058436682421    12.000000000000
         C            1.197777635117     0.562526070065     1.537436682421    12.000000000000
         C            0.183777635117     0.303526070065     2.455436682421    12.000000000000
         O           -1.939222364883    -0.676473929935     2.944436682421    15.994914619570
         H           -0.124222364883    -0.977473929935    -1.165563317579     1.007825032230
         H           -1.926222364883    -1.419473929935     0.438436682421     1.007825032230
         H            2.686777635117     1.333526070065    -0.491563317579     1.007825032230
         H            1.734777635117     0.562526070065    -1.749563317579     1.007825032230
         H            2.073777635117     1.116526070065     1.849436682421     1.007825032230
         H           -2.655222364883    -1.172473929935     2.540436682421     1.007825032230
         H            0.250777635117     0.662526070065     3.472436682421     1.007825032230
         H            2.940521635117    -0.400913929935    -0.857046317579     1.007825032230

  Running in c1 symmetry.

  Rotational constants: A =      0.07229  B =      0.01909  C =      0.01575 [cm^-1]
  Rotational constants: A =   2167.07119  B =    572.16883  C =    472.18984 [MHz]
  Nuclear repulsion =  493.640741548260166

  Charge       = 0
  Multiplicity = 1
  Electrons    = 76
  Nalpha       = 38
  Nbeta        = 38

  ==> Algorithm <==

  SCF Algorithm Type is PK.
  DIIS enabled.
  MOM disabled.
  Fractional occupation disabled.
  Guess Type is SAD.
  Energy threshold   = 1.00e-06
  Density threshold  = 1.00e-10
  Integral threshold = 0.00e+00

  ==> Primary Basis <==

  Basis Set: CC-PVDZ
    Blend: CC-PVDZ
    Number of shells: 96
    Number of basis function: 200
    Number of Cartesian functions: 210
    Spherical Harmonics?: true
    Max angular momentum: 2

  ==> Pre-Iterations <==

   -------------------------------------------------------
    Irrep   Nso     Nmo     Nalpha   Nbeta   Ndocc  Nsocc
   -------------------------------------------------------
     A        200     200       0       0       0       0
   -------------------------------------------------------
    Total     200     200      38      38      38       0
   -------------------------------------------------------

  ==> Integral Setup <==

  Using integral reordering PK algorithm.
  Sizing the integral batches needed.
  Building batch lookup table.
   Calculation information:
      Number of atoms:                  22
      Number of AO shells:              96
      Number of primitives:            280
      Number of atomic orbitals:       210
      Number of basis functions:       200

      Integral cutoff                 1.00e-12
      Number of threads:                 1

	Batch   1 pq = [       0,    9405] index = [             0,44231715] size =     44231715
	Batch   2 pq = [    9405,   13301] index = [      44231715,88464951] size =     44233236
	Batch   3 pq = [   13301,   16290] index = [      88464951,132690195] size =     44225244
	Batch   4 pq = [   16290,   18810] index = [     132690195,176917455] size =     44227260
	Batch   5 pq = [   18810,   20100] index = [     176917455,202015050] size =     25097595
  Task number: 19
  Buffer size: 11059200
  Buffer per thread: 2
  We computed 9083034 shell quartets total.
  Whereas there are 10841496 unique shell quartets.

  ==> DiskJK: Disk-Based J/K Matrices <==

    J tasked:                  Yes
    K tasked:                  Yes
    wK tasked:                  No
    Memory [MiB]:              375
    Schwarz Cutoff:          1E-12

    OpenMP threads:              1

  Minimum eigenvalue in the overlap matrix is 3.1131094995E-04.
  Using Symmetric Orthogonalization.

  SCF Guess: Superposition of Atomic Densities via on-the-fly atomic UHF.

  ==> Iterations <==

                        Total Energy        Delta E     RMS |[F,P]|

   @RHF iter SAD:  -458.46756673036111   -4.58468e+02   0.00000e+00
   @RHF iter   1:  -459.42846034316699   -9.60894e-01   3.16600e-03 DIIS
   @RHF iter   2:  -459.63072053089763   -2.02260e-01   1.44770e-03 DIIS
   @RHF iter   3:  -459.66711051341969   -3.63900e-02   3.22283e-04 DIIS
   @RHF iter   4:  -459.67001292471730   -2.90241e-03   1.18447e-04 DIIS
   @RHF iter   5:  -459.67034131184869   -3.28387e-04   2.37647e-05 DIIS
   @RHF iter   6:  -459.67036010780305   -1.87960e-05   9.42904e-06 DIIS
   @RHF iter   7:  -459.67036305315332   -2.94535e-06   2.99315e-06 DIIS
   @RHF iter   8:  -459.67036351407552   -4.60922e-07   9.74986e-07 DIIS
   @RHF iter   9:  -459.67036359089008   -7.68146e-08   4.26068e-07 DIIS
   @RHF iter  10:  -459.67036360638735   -1.54973e-08   2.05244e-07 DIIS
   @RHF iter  11:  -459.67036361181164   -5.42428e-09   6.88233e-08 DIIS
   @RHF iter  12:  -459.67036361228645   -4.74813e-10   2.90826e-08 DIIS
   @RHF iter  13:  -459.67036361233329   -4.68390e-11   8.86369e-09 DIIS
   @RHF iter  14:  -459.67036361233767   -4.37694e-12   2.22179e-09 DIIS
   @RHF iter  15:  -459.67036361233801   -3.41061e-13   7.66345e-10 DIIS
   @RHF iter  16:  -459.67036361233772    2.84217e-13   2.14498e-10 DIIS
   @RHF iter  17:  -459.67036361233750    2.27374e-13   8.45822e-11 DIIS
  Energy and wave function converged.

  ==> Post-Iterations <==

    Orbital Energies [Eh]
    ---------------------

    Doubly Occupied:

       1A    -20.576986     2A    -20.558528     3A    -11.292397
       4A    -11.280540     5A    -11.232019     6A    -11.230158
       7A    -11.225467     8A    -11.224839     9A    -11.223519
      10A    -11.222046    11A     -1.395922    12A     -1.358950
      13A     -1.144678    14A     -1.031005    15A     -1.011618
      16A     -0.927273    17A     -0.920149    18A     -0.838311
      19A     -0.796671    20A     -0.727163    21A     -0.690252
      22A     -0.662270    23A     -0.636396    24A     -0.624733
      25A     -0.605075    26A     -0.595272    27A     -0.581609
      28A     -0.578860    29A     -0.565114    30A     -0.561081
      31A     -0.519877    32A     -0.498596    33A     -0.491123
      34A     -0.478255    35A     -0.461040    36A     -0.447943
      37A     -0.331916    38A     -0.295063

    Virtual:

      39A      0.138148    40A      0.162678    41A      0.168726
      42A      0.184856    43A      0.200519    44A      0.207749
      45A      0.225515    46A      0.244682    47A      0.260321
      48A      0.263279    49A      0.267682    50A      0.290742
      51A      0.319735    52A      0.362014    53A      0.371915
      54A      0.381191    55A      0.391787    56A      0.434497
      57A      0.464060    58A      0.487966    59A      0.504242
      60A      0.516974    61A      0.613906    62A      0.621079
      63A      0.641724    64A      0.652080    65A      0.666453
      66A      0.670395    67A      0.687563    68A      0.696717
      69A      0.710777    70A      0.733718    71A      0.740145
      72A      0.741981    73A      0.749664    74A      0.776462
      75A      0.784289    76A      0.793456    77A      0.800709
      78A      0.820449    79A      0.839420    80A      0.853596
      81A      0.860369    82A      0.867651    83A      0.887746
      84A      0.893719    85A      0.897312    86A      0.900802
      87A      0.910685    88A      0.915055    89A      0.940155
      90A      0.948619    91A      0.959377    92A      0.979902
      93A      1.016732    94A      1.035447    95A      1.061402
      96A      1.130285    97A      1.137522    98A      1.146174
      99A      1.152031   100A      1.170062   101A      1.181870
     102A      1.201965   103A      1.232519   104A      1.242751
     105A      1.251296   106A      1.268603   107A      1.278935
     108A      1.291152   109A      1.317080   110A      1.322896
     111A      1.329929   112A      1.354712   113A      1.368399
     114A      1.392502   115A      1.425463   116A      1.462443
     117A      1.495639   118A      1.533900   119A      1.536581
     120A      1.565406   121A      1.608522   122A      1.623115
     123A      1.630557   124A      1.665079   125A      1.694179
     126A      1.699642   127A      1.709773   128A      1.740997
     129A      1.755900   130A      1.790700   131A      1.810231
     132A      1.813262   133A      1.854032   134A      1.880400
     135A      1.894902   136A      1.900324   137A      1.907004
     138A      1.907658   139A      1.916778   140A      1.924000
     141A      1.934753   142A      1.956217   143A      1.960024
     144A      1.979823   145A      1.990754   146A      1.992851
     147A      2.036601   148A      2.049092   149A      2.059546
     150A      2.072386   151A      2.074332   152A      2.083383
     153A      2.112161   154A      2.152517   155A      2.155035
     156A      2.177855   157A      2.208329   158A      2.240927
     159A      2.267409   160A      2.292554   161A      2.298059
     162A      2.309832   163A      2.327490   164A      2.371472
     165A      2.374099   166A      2.400438   167A      2.437181
     168A      2.466050   169A      2.484267   170A      2.496339
     171A      2.506668   172A      2.539370   173A      2.556784
     174A      2.610959   175A      2.658958   176A      2.732906
     177A      2.760221   178A      2.767204   179A      2.783490
     180A      2.789362   181A      2.805429   182A      2.824895
     183A      2.859385   184A      2.919282   185A      2.970549
     186A      3.009758   187A      3.098619   188A      3.121741
     189A      3.258621   190A      3.290754   191A      3.310888
     192A      3.354978   193A      3.389739   194A      3.435119
     195A      3.585862   196A      3.599340   197A      3.681180
     198A      3.988561   199A      4.080670   200A      4.200246

    Final Occupation by Irrep:
              A
    DOCC [    38 ]

  @RHF Final Energy:  -459.67036361233750

   => Energetics <=

    Nuclear Repulsion Energy =            493.6407415482601664
    One-Electron Energy =               -1604.9367801119446995
    Two-Electron Energy =                 651.6256749513470368
    Total Energy =                       -459.6703636123374963

Computation Completed

Properties will be evaluated at   0.000000,   0.000000,   0.000000 [a0]

Properties computed using the SCF density matrix

  Nuclear Dipole Moment: [e a0]
     X:     5.2052      Y:     2.2173      Z:   -12.6134

  Electronic Dipole Moment: [e a0]
     X:    -4.9723      Y:    -2.6595      Z:    11.4860

  Dipole Moment: [e a0]
     X:     0.2330      Y:    -0.4422      Z:    -1.1274     Total:     1.2332

  Dipole Moment: [D]
     X:     0.5921      Y:    -1.1239      Z:    -2.8655     Total:     3.1345

*** tstop() called on ds3 at Tue Apr 28 21:51:00 2020
Module time:
	user time   =      71.01 seconds =       1.18 minutes
	system time =      29.49 seconds =       0.49 minutes
	total time  =        113 seconds =       1.88 minutes
Total time:
	user time   =      71.01 seconds =       1.18 minutes
	system time =      29.49 seconds =       0.49 minutes
	total time  =        113 seconds =       1.88 minutes
                                     G D M A

                                 by Anthony Stone

                           version 2.2.06, 22 June 2011

               Distributed Multipoles from Gaussian wavefunctions

Starting at 21:51:0 on 28 Apr 2020

Using SCF density matrix from file ./SSI/SSI-244SER-294TYR-1-dimer.test.364.fchk

                         Distributed Multipole Analysis

Standard DMA

Positions and radii in angstrom
Multipole moments in atomic units, ea_0^k for rank k

C          x =  0.089778  y =  0.935526  z = -4.420563 angstrom
           Maximum rank =  0   Radius =  0.650 angstrom
                   Q00  =  -0.017521

O          x = -0.458222  y =  0.192526  z = -3.348563 angstrom
           Maximum rank =  0   Radius =  0.650 angstrom
                   Q00  =  -0.590020

H          x = -0.098222  y = -0.705474  z = -3.372563 angstrom
           Maximum rank =  0   Radius =  0.325 angstrom
                   Q00  =   0.388681

H          x =  0.312778  y =  0.256526  z = -5.237563 angstrom
           Maximum rank =  0   Radius =  0.325 angstrom
                   Q00  =   0.066086

H          x =  1.002778  y =  1.433526  z = -4.091563 angstrom
           Maximum rank =  0   Radius =  0.325 angstrom
                   Q00  =   0.061268

H          x = -0.633571  y =  1.678328  z = -4.788003 angstrom
           Maximum rank =  0   Radius =  0.325 angstrom
                   Q00  =   0.110202

C          x =  2.192778  y =  0.401526  z = -0.773563 angstrom
           Maximum rank =  0   Radius =  0.650 angstrom
                   Q00  =  -0.180690

C          x = -0.036222  y = -0.599474  z = -0.160563 angstrom
           Maximum rank =  0   Radius =  0.650 angstrom
                   Q00  =   0.058384

C          x =  1.095778  y =  0.116526  z =  0.221437 angstrom
           Maximum rank =  0   Radius =  0.650 angstrom
                   Q00  =  -0.149202

C          x = -1.053222  y = -0.863474  z =  0.750437 angstrom
           Maximum rank =  0   Radius =  0.650 angstrom
                   Q00  =  -0.183448

C          x = -0.942222  y = -0.410474  z =  2.058437 angstrom
           Maximum rank =  0   Radius =  0.650 angstrom
                   Q00  =   0.316380

C          x =  1.197778  y =  0.562526  z =  1.537437 angstrom
           Maximum rank =  0   Radius =  0.650 angstrom
                   Q00  =  -0.011842

C          x =  0.183778  y =  0.303526  z =  2.455437 angstrom
           Maximum rank =  0   Radius =  0.650 angstrom
                   Q00  =  -0.127254

O          x = -1.939222  y = -0.676474  z =  2.944437 angstrom
           Maximum rank =  0   Radius =  0.650 angstrom
                   Q00  =  -0.673444

H          x = -0.124222  y = -0.977474  z = -1.165563 angstrom
           Maximum rank =  0   Radius =  0.325 angstrom
                   Q00  =   0.050532

H          x = -1.926222  y = -1.419474  z =  0.438437 angstrom
           Maximum rank =  0   Radius =  0.325 angstrom
                   Q00  =   0.066887

H          x =  2.686778  y =  1.333526  z = -0.491563 angstrom
           Maximum rank =  0   Radius =  0.325 angstrom
                   Q00  =   0.095713

H          x =  1.734778  y =  0.562526  z = -1.749563 angstrom
           Maximum rank =  0   Radius =  0.325 angstrom
                   Q00  =   0.081405

H          x =  2.073778  y =  1.116526  z =  1.849437 angstrom
           Maximum rank =  0   Radius =  0.325 angstrom
                   Q00  =   0.061265

H          x = -2.655222  y = -1.172474  z =  2.540437 angstrom
           Maximum rank =  0   Radius =  0.325 angstrom
                   Q00  =   0.404686

H          x =  0.250778  y =  0.662526  z =  3.472437 angstrom
           Maximum rank =  0   Radius =  0.325 angstrom
                   Q00  =   0.078501

H          x =  2.940522  y = -0.400914  z = -0.857046 angstrom
           Maximum rank =  0   Radius =  0.325 angstrom
                   Q00  =   0.093432

Total multipoles referred to origin at
           x =   0.000000,  y =    0.000000,  z =    0.000000 angstrom
                   Q00  =  -0.000000

Finished at 21:51:1 on 28 Apr 2020

  DMA results are available in the Python driver through the
	  variable('DMA DISTRIBUTED MULTIPOLES')
  and
	  variable('DMA TOTAL MULTIPOLES')
  commands.

    Psi4 stopped on: Tuesday, 28 April 2020 09:51PM
    Psi4 wall time for execution: 0:01:53.15

*** Psi4 exiting successfully. Buy a developer a beer!
