                               Psi4 1.3.2 release

  ==> Input File <==

--------------------------------------------------------------------------
import numpy as np
set {scf_type pk
basis cc-pvdz
d_convergence 10
gdma_switch   0
gdma_limit    0
gdma_origin   [ 0.0,  0.0,  0.0 ]
}
molecule test {
    units Angstrom
    0 1
    --
    0 1
    C                0.285214211138998     3.239476279337349    -1.197739247105096
    C                0.886214211138998     2.232476279337349    -2.225739247105096
    H                0.483214211138998     4.262476279337349    -1.521739247105096
    H               -0.793785788861002     3.090476279337349    -1.137739247105096
    H                0.696214211138998     3.080476279337349    -0.200739247105096
    H                0.768214211138998     1.215476279337349    -1.852739247105096
    H                1.949074211138998     2.481546279337349    -2.361012247105096
    H                0.382934211138998     2.321536279337349    -3.199789247105096
    C                1.945214211138998    -2.071523720662651     0.372260752894904
    C               -0.652785788861002     0.661476279337349     1.057260752894904
    C               -1.807785788861002     0.007476279337349     0.662260752894904
    C                0.564214211138998    -0.026523720662651     0.951260752894904
    C                0.629214211138998    -1.353523720662651     0.508260752894904
    C               -1.755785788861002    -1.320523720662651     0.246260752894904
    C               -0.528785788861002    -2.002523720662651     0.137260752894904
    H               -0.683785788861002     1.686476279337349     1.398260752894904
    H               -2.749785788861002     0.529476279337349     0.685260752894904
    H                1.477214211138998     0.481476279337349     1.231260752894904
    H               -2.667785788861003    -1.835523720662651    -0.007739247105096
    H                1.812214211138998    -3.142523720662651     0.534260752894904
    H                2.597214211138998    -1.702523720662651     1.164260752894904
    H               -0.504785788861002    -3.025523720662651    -0.212739247105096
    H                2.413964211138997    -1.897803720662651    -0.607585247105096

}
e, wfn = energy('scf', return_wfn=True)
gdma(wfn)
dmavals = variable('DMA DISTRIBUTED MULTIPOLES')
charges = np.array(dmavals)
print(charges)
np.save('SSI-174VAL-205PHE-1-dimer.npy', np.array(charges))--------------------------------------------------------------------------

*** tstart() called on ds3
*** at Tue Apr 28 13:28:42 2020

   => Loading Basis Set <=

    Name: CC-PVDZ
    Role: ORBITAL
    Keyword: BASIS
    atoms 1-2, 9-15  entry C          line   138 file /theoryfs2/ds/metcalf/miniconda2/envs/tf2gpu/share/psi4/basis/cc-pvdz.gbs
    atoms 3-8, 16-23 entry H          line    22 file /theoryfs2/ds/metcalf/miniconda2/envs/tf2gpu/share/psi4/basis/cc-pvdz.gbs

         ---------------------------------------------------------
                                   SCF
               by Justin Turney, Rob Parrish, Andy Simmonett
                          and Daniel G. A. Smith
                              RHF Reference
                        1 Threads,    500 MiB Core
         ---------------------------------------------------------

  ==> Geometry <==

    Molecular point group: c1
    Full point group: C1

    Geometry (in Angstrom), charge = 0, multiplicity = 1:

       Center              X                  Y                   Z               Mass
    ------------   -----------------  -----------------  -----------------  -----------------
         C            0.285214211139     3.239476279337    -1.197739247105    12.000000000000
         C            0.886214211139     2.232476279337    -2.225739247105    12.000000000000
         H            0.483214211139     4.262476279337    -1.521739247105     1.007825032230
         H           -0.793785788861     3.090476279337    -1.137739247105     1.007825032230
         H            0.696214211139     3.080476279337    -0.200739247105     1.007825032230
         H            0.768214211139     1.215476279337    -1.852739247105     1.007825032230
         H            1.949074211139     2.481546279337    -2.361012247105     1.007825032230
         H            0.382934211139     2.321536279337    -3.199789247105     1.007825032230
         C            1.945214211139    -2.071523720663     0.372260752895    12.000000000000
         C           -0.652785788861     0.661476279337     1.057260752895    12.000000000000
         C           -1.807785788861     0.007476279337     0.662260752895    12.000000000000
         C            0.564214211139    -0.026523720663     0.951260752895    12.000000000000
         C            0.629214211139    -1.353523720663     0.508260752895    12.000000000000
         C           -1.755785788861    -1.320523720663     0.246260752895    12.000000000000
         C           -0.528785788861    -2.002523720663     0.137260752895    12.000000000000
         H           -0.683785788861     1.686476279337     1.398260752895     1.007825032230
         H           -2.749785788861     0.529476279337     0.685260752895     1.007825032230
         H            1.477214211139     0.481476279337     1.231260752895     1.007825032230
         H           -2.667785788861    -1.835523720663    -0.007739247105     1.007825032230
         H            1.812214211139    -3.142523720663     0.534260752895     1.007825032230
         H            2.597214211139    -1.702523720663     1.164260752895     1.007825032230
         H           -0.504785788861    -3.025523720663    -0.212739247105     1.007825032230
         H            2.413964211139    -1.897803720663    -0.607585247105     1.007825032230

  Running in c1 symmetry.

  Rotational constants: A =      0.06403  B =      0.03068  C =      0.02479 [cm^-1]
  Rotational constants: A =   1919.63597  B =    919.89473  C =    743.09326 [MHz]
  Nuclear repulsion =  414.315292602870727

  Charge       = 0
  Multiplicity = 1
  Electrons    = 68
  Nalpha       = 34
  Nbeta        = 34

  ==> Algorithm <==

  SCF Algorithm Type is PK.
  DIIS enabled.
  MOM disabled.
  Fractional occupation disabled.
  Guess Type is SAD.
  Energy threshold   = 1.00e-06
  Density threshold  = 1.00e-10
  Integral threshold = 0.00e+00

  ==> Primary Basis <==

  Basis Set: CC-PVDZ
    Blend: CC-PVDZ
    Number of shells: 96
    Number of basis function: 196
    Number of Cartesian functions: 205
    Spherical Harmonics?: true
    Max angular momentum: 2

  ==> Pre-Iterations <==

   -------------------------------------------------------
    Irrep   Nso     Nmo     Nalpha   Nbeta   Ndocc  Nsocc
   -------------------------------------------------------
     A        196     196       0       0       0       0
   -------------------------------------------------------
    Total     196     196      34      34      34       0
   -------------------------------------------------------

  ==> Integral Setup <==

  Using integral reordering PK algorithm.
  Sizing the integral batches needed.
  Building batch lookup table.
   Calculation information:
      Number of atoms:                  23
      Number of AO shells:              96
      Number of primitives:            268
      Number of atomic orbitals:       205
      Number of basis functions:       196

      Integral cutoff                 1.00e-12
      Number of threads:                 1

	Batch   1 pq = [       0,    9405] index = [             0,44231715] size =     44231715
	Batch   2 pq = [    9405,   13301] index = [      44231715,88464951] size =     44233236
	Batch   3 pq = [   13301,   16290] index = [      88464951,132690195] size =     44225244
	Batch   4 pq = [   16290,   18810] index = [     132690195,176917455] size =     44227260
	Batch   5 pq = [   18810,   19306] index = [     176917455,186370471] size =      9453016
  Task number: 17
  Buffer size: 11059200
  Buffer per thread: 2
  We computed 10085799 shell quartets total.
  Whereas there are 10841496 unique shell quartets.

  ==> DiskJK: Disk-Based J/K Matrices <==

    J tasked:                  Yes
    K tasked:                  Yes
    wK tasked:                  No
    Memory [MiB]:              375
    Schwarz Cutoff:          1E-12

    OpenMP threads:              1

  Minimum eigenvalue in the overlap matrix is 3.2267538739E-04.
  Using Symmetric Orthogonalization.

  SCF Guess: Superposition of Atomic Densities via on-the-fly atomic UHF.

  ==> Iterations <==

                        Total Energy        Delta E     RMS |[F,P]|

   @RHF iter SAD:  -347.81035430956280   -3.47810e+02   0.00000e+00
   @RHF iter   1:  -348.76847321527168   -9.58119e-01   2.86761e-03 DIIS
   @RHF iter   2:  -348.95822065821750   -1.89747e-01   1.18895e-03 DIIS
   @RHF iter   3:  -348.98787588918640   -2.96552e-02   2.58566e-04 DIIS
   @RHF iter   4:  -348.99033278148073   -2.45689e-03   5.44168e-05 DIIS
   @RHF iter   5:  -348.99040928198053   -7.65005e-05   1.82233e-05 DIIS
   @RHF iter   6:  -348.99041737670143   -8.09472e-06   4.85974e-06 DIIS
   @RHF iter   7:  -348.99041804891971   -6.72218e-07   1.24388e-06 DIIS
   @RHF iter   8:  -348.99041809919612   -5.02764e-08   2.99315e-07 DIIS
   @RHF iter   9:  -348.99041810473898   -5.54286e-09   1.25396e-07 DIIS
   @RHF iter  10:  -348.99041810594997   -1.21099e-09   5.89656e-08 DIIS
   @RHF iter  11:  -348.99041810637038   -4.20414e-10   2.50138e-08 DIIS
   @RHF iter  12:  -348.99041810644025   -6.98606e-11   1.15037e-08 DIIS
   @RHF iter  13:  -348.99041810645235   -1.21076e-11   4.10836e-09 DIIS
   @RHF iter  14:  -348.99041810645508   -2.72848e-12   1.15447e-09 DIIS
   @RHF iter  15:  -348.99041810645480    2.84217e-13   3.45832e-10 DIIS
   @RHF iter  16:  -348.99041810645571   -9.09495e-13   1.28865e-10 DIIS
   @RHF iter  17:  -348.99041810645224    3.46745e-12   6.13917e-11 DIIS
  Energy and wave function converged.

  ==> Post-Iterations <==

    Orbital Energies [Eh]
    ---------------------

    Doubly Occupied:

       1A    -11.239810     2A    -11.237144     3A    -11.236657
       4A    -11.232486     5A    -11.231003     6A    -11.230777
       7A    -11.229414     8A    -11.215270     9A    -11.214745
      10A     -1.152593    11A     -1.046613    12A     -1.009527
      13A     -1.004560    14A     -0.931245    15A     -0.834189
      16A     -0.827191    17A     -0.793812    18A     -0.690976
      19A     -0.632769    20A     -0.630254    21A     -0.593775
      22A     -0.587261    23A     -0.580868    24A     -0.578511
      25A     -0.562696    26A     -0.534219    27A     -0.492276
      28A     -0.489412    29A     -0.486608    30A     -0.484237
      31A     -0.478527    32A     -0.476517    33A     -0.330980
      34A     -0.323080

    Virtual:

      35A      0.131831    36A      0.141378    37A      0.173765
      38A      0.195986    39A      0.203112    40A      0.216946
      41A      0.230997    42A      0.241280    43A      0.250874
      44A      0.262386    45A      0.269258    46A      0.283217
      47A      0.287851    48A      0.291946    49A      0.308569
      50A      0.322940    51A      0.365298    52A      0.376681
      53A      0.393114    54A      0.451201    55A      0.463545
      56A      0.479302    57A      0.492830    58A      0.561660
      59A      0.577433    60A      0.594202    61A      0.606194
      62A      0.619052    63A      0.639735    64A      0.665490
      65A      0.679391    66A      0.687381    67A      0.696330
      68A      0.706124    69A      0.722392    70A      0.739220
      71A      0.748707    72A      0.753900    73A      0.757141
      74A      0.778039    75A      0.782344    76A      0.820662
      77A      0.831745    78A      0.848350    79A      0.855674
      80A      0.864515    81A      0.875788    82A      0.879223
      83A      0.890184    84A      0.894596    85A      0.902360
      86A      0.910917    87A      0.923237    88A      0.928227
      89A      0.937244    90A      0.945070    91A      0.950426
      92A      0.988756    93A      0.992301    94A      1.018822
      95A      1.026280    96A      1.052310    97A      1.117422
      98A      1.124797    99A      1.130742   100A      1.138782
     101A      1.151434   102A      1.166133   103A      1.189078
     104A      1.225298   105A      1.242223   106A      1.250649
     107A      1.254077   108A      1.283465   109A      1.294296
     110A      1.306827   111A      1.326329   112A      1.330650
     113A      1.410351   114A      1.470540   115A      1.483284
     116A      1.502739   117A      1.527466   118A      1.563041
     119A      1.596301   120A      1.611549   121A      1.669534
     122A      1.684753   123A      1.691391   124A      1.705406
     125A      1.740603   126A      1.746649   127A      1.774080
     128A      1.796134   129A      1.811108   130A      1.855957
     131A      1.866340   132A      1.876806   133A      1.882542
     134A      1.889141   135A      1.901116   136A      1.907667
     137A      1.918333   138A      1.934148   139A      1.937535
     140A      1.940722   141A      1.942718   142A      1.951119
     143A      1.952587   144A      1.967257   145A      1.974000
     146A      1.981251   147A      1.996242   148A      2.011995
     149A      2.036332   150A      2.065455   151A      2.068845
     152A      2.102836   153A      2.114258   154A      2.134708
     155A      2.144783   156A      2.153610   157A      2.168163
     158A      2.171510   159A      2.184506   160A      2.257366
     161A      2.274007   162A      2.284645   163A      2.292544
     164A      2.301810   165A      2.310883   166A      2.319414
     167A      2.342151   168A      2.445211   169A      2.461227
     170A      2.471905   171A      2.485226   172A      2.488118
     173A      2.541096   174A      2.558554   175A      2.584963
     176A      2.621337   177A      2.743077   178A      2.756002
     179A      2.768724   180A      2.774541   181A      2.786226
     182A      2.796541   183A      2.809949   184A      2.836328
     185A      2.842963   186A      2.859477   187A      2.883865
     188A      2.952405   189A      2.959946   190A      2.974936
     191A      3.011354   192A      3.024073   193A      3.143327
     194A      3.204958   195A      3.292303   196A      3.959196

    Final Occupation by Irrep:
              A
    DOCC [    34 ]

  @RHF Final Energy:  -348.99041810645224

   => Energetics <=

    Nuclear Repulsion Energy =            414.3152926028707270
    One-Electron Energy =               -1291.3714173952728288
    Two-Electron Energy =                 528.0657066859498627
    Total Energy =                       -348.9904181064522390

Computation Completed

Properties will be evaluated at   0.000000,   0.000000,   0.000000 [a0]

Properties computed using the SCF density matrix

  Nuclear Dipole Moment: [e a0]
     X:     4.8564      Y:     7.0737      Z:    -5.7078

  Electronic Dipole Moment: [e a0]
     X:    -4.7824      Y:    -7.1857      Z:     5.7053

  Dipole Moment: [e a0]
     X:     0.0740      Y:    -0.1120      Z:    -0.0025     Total:     0.1343

  Dipole Moment: [D]
     X:     0.1882      Y:    -0.2847      Z:    -0.0062     Total:     0.3414

*** tstop() called on ds3 at Tue Apr 28 13:30:49 2020
Module time:
	user time   =      72.46 seconds =       1.21 minutes
	system time =      28.73 seconds =       0.48 minutes
	total time  =        127 seconds =       2.12 minutes
Total time:
	user time   =      72.46 seconds =       1.21 minutes
	system time =      28.73 seconds =       0.48 minutes
	total time  =        127 seconds =       2.12 minutes
                                     G D M A

                                 by Anthony Stone

                           version 2.2.06, 22 June 2011

               Distributed Multipoles from Gaussian wavefunctions

Starting at 13:30:49 on 28 Apr 2020

Using SCF density matrix from file ./SSI/SSI-174VAL-205PHE-1-dimer.test.16190.fchk

                         Distributed Multipole Analysis

Standard DMA

Positions and radii in angstrom
Multipole moments in atomic units, ea_0^k for rank k

C          x =  0.285214  y =  3.239476  z = -1.197739 angstrom
           Maximum rank =  0   Radius =  0.650 angstrom
                   Q00  =  -0.254361

C          x =  0.886214  y =  2.232476  z = -2.225739 angstrom
           Maximum rank =  0   Radius =  0.650 angstrom
                   Q00  =  -0.232059

H          x =  0.483214  y =  4.262476  z = -1.521739 angstrom
           Maximum rank =  0   Radius =  0.325 angstrom
                   Q00  =   0.078160

H          x = -0.793786  y =  3.090476  z = -1.137739 angstrom
           Maximum rank =  0   Radius =  0.325 angstrom
                   Q00  =   0.079274

H          x =  0.696214  y =  3.080476  z = -0.200739 angstrom
           Maximum rank =  0   Radius =  0.325 angstrom
                   Q00  =   0.077353

H          x =  0.768214  y =  1.215476  z = -1.852739 angstrom
           Maximum rank =  0   Radius =  0.325 angstrom
                   Q00  =   0.097636

H          x =  1.949074  y =  2.481546  z = -2.361012 angstrom
           Maximum rank =  0   Radius =  0.325 angstrom
                   Q00  =   0.073055

H          x =  0.382934  y =  2.321536  z = -3.199789 angstrom
           Maximum rank =  0   Radius =  0.325 angstrom
                   Q00  =   0.079951

C          x =  1.945214  y = -2.071524  z =  0.372261 angstrom
           Maximum rank =  0   Radius =  0.650 angstrom
                   Q00  =  -0.201891

C          x = -0.652786  y =  0.661476  z =  1.057261 angstrom
           Maximum rank =  0   Radius =  0.650 angstrom
                   Q00  =  -0.072098

C          x = -1.807786  y =  0.007476  z =  0.662261 angstrom
           Maximum rank =  0   Radius =  0.650 angstrom
                   Q00  =  -0.096763

C          x =  0.564214  y = -0.026524  z =  0.951261 angstrom
           Maximum rank =  0   Radius =  0.650 angstrom
                   Q00  =  -0.000080

C          x =  0.629214  y = -1.353524  z =  0.508261 angstrom
           Maximum rank =  0   Radius =  0.650 angstrom
                   Q00  =  -0.101243

C          x = -1.755786  y = -1.320524  z =  0.246261 angstrom
           Maximum rank =  0   Radius =  0.650 angstrom
                   Q00  =  -0.050560

C          x = -0.528786  y = -2.002524  z =  0.137261 angstrom
           Maximum rank =  0   Radius =  0.650 angstrom
                   Q00  =  -0.089058

H          x = -0.683786  y =  1.686476  z =  1.398261 angstrom
           Maximum rank =  0   Radius =  0.325 angstrom
                   Q00  =   0.070859

H          x = -2.749786  y =  0.529476  z =  0.685261 angstrom
           Maximum rank =  0   Radius =  0.325 angstrom
                   Q00  =   0.060275

H          x =  1.477214  y =  0.481476  z =  1.231261 angstrom
           Maximum rank =  0   Radius =  0.325 angstrom
                   Q00  =   0.056052

H          x = -2.667786  y = -1.835524  z = -0.007739 angstrom
           Maximum rank =  0   Radius =  0.325 angstrom
                   Q00  =   0.064524

H          x =  1.812214  y = -3.142524  z =  0.534261 angstrom
           Maximum rank =  0   Radius =  0.325 angstrom
                   Q00  =   0.098585

H          x =  2.597214  y = -1.702524  z =  1.164261 angstrom
           Maximum rank =  0   Radius =  0.325 angstrom
                   Q00  =   0.096729

H          x = -0.504786  y = -3.025524  z = -0.212739 angstrom
           Maximum rank =  0   Radius =  0.325 angstrom
                   Q00  =   0.060405

H          x =  2.413964  y = -1.897804  z = -0.607585 angstrom
           Maximum rank =  0   Radius =  0.325 angstrom
                   Q00  =   0.105255

Total multipoles referred to origin at
           x =   0.000000,  y =    0.000000,  z =    0.000000 angstrom
                   Q00  =  -0.000000

Finished at 13:30:49 on 28 Apr 2020

  DMA results are available in the Python driver through the
	  variable('DMA DISTRIBUTED MULTIPOLES')
  and
	  variable('DMA TOTAL MULTIPOLES')
  commands.

    Psi4 stopped on: Tuesday, 28 April 2020 01:30PM
    Psi4 wall time for execution: 0:02:06.34

*** Psi4 exiting successfully. Buy a developer a beer!
