                               Psi4 1.3.2 release

  ==> Input File <==

--------------------------------------------------------------------------
import numpy as np
set {scf_type pk
basis cc-pvdz
d_convergence 10
gdma_switch   0
gdma_limit    0
gdma_origin   [ 0.0,  0.0,  0.0 ]
}
molecule test {
    units Angstrom
    0 1
    --
    0 1
    C               -0.024672683688689    -2.860073417130510     0.906370354948904
    C                0.674327316311311    -0.371073417130510     0.390370354948904
    C                0.659327316311311    -1.539073417130510     1.224370354948904
    C                1.437327316311311     0.619926582869490     1.059370354948904
    C                1.377327316311310    -1.204073417130510     2.357370354948904
    C                0.142327316311311    -0.067073417130510    -0.879629645051096
    C                0.347327316311311     1.200926582869490    -1.414629645051096
    C                1.089327316311310     2.159926582869490    -0.731629645051096
    C                1.632327316311311     1.885926582869490     0.523370354948904
    N                1.842327316311311     0.087926582869490     2.256370354948904
    H               -0.430672683688689    -0.806073417130510    -1.421629645051096
    H               -0.065672683688689     1.439926582869490    -2.386629645051096
    H                1.244327316311310     3.133926582869490    -1.179629645051096
    H               -0.360672683688689    -2.805073417130510    -0.128629645051096
    H               -0.911672683688689    -2.961073417130510     1.531370354948904
    H                1.543327316311311    -1.846073417130510     3.214370354948904
    H                2.356327316311310     0.579926582869490     2.983370354948904
    H                2.217327316311311     2.626926582869490     1.046370354948904
    H                0.630117316311311    -3.737904417130510     1.009640354948904
    C               -3.253672683688690     0.001926582869490    -2.387629645051096
    C               -4.742672683688689     0.350926582869490    -2.767629645051096
    H               -2.923672683688689     0.620926582869490    -1.551629645051096
    H               -3.193672683688690    -1.045073417130510    -2.091629645051096
    H               -2.591672683688690     0.176926582869490    -3.231629645051096
    H               -5.070672683688689    -0.392073417130510    -3.494629645051096
    H               -4.730522683688689     1.335592582869490    -3.257819645051096
    H               -5.435292683688689     0.335803582869490    -1.913199645051096

}
e, wfn = energy('scf', return_wfn=True)
gdma(wfn)
dmavals = variable('DMA DISTRIBUTED MULTIPOLES')
charges = np.array(dmavals)
print(charges)
np.save('SSI-030TRP-217THR-1-dimer.npy', np.array(charges))--------------------------------------------------------------------------

*** tstart() called on ds3
*** at Mon Apr 27 01:25:55 2020

   => Loading Basis Set <=

    Name: CC-PVDZ
    Role: ORBITAL
    Keyword: BASIS
    atoms 1-9, 20-21   entry C          line   138 file /theoryfs2/ds/metcalf/miniconda2/envs/tf2gpu/share/psi4/basis/cc-pvdz.gbs
    atoms 10           entry N          line   168 file /theoryfs2/ds/metcalf/miniconda2/envs/tf2gpu/share/psi4/basis/cc-pvdz.gbs
    atoms 11-19, 22-27 entry H          line    22 file /theoryfs2/ds/metcalf/miniconda2/envs/tf2gpu/share/psi4/basis/cc-pvdz.gbs

         ---------------------------------------------------------
                                   SCF
               by Justin Turney, Rob Parrish, Andy Simmonett
                          and Daniel G. A. Smith
                              RHF Reference
                        1 Threads,    500 MiB Core
         ---------------------------------------------------------

  ==> Geometry <==

    Molecular point group: c1
    Full point group: C1

    Geometry (in Angstrom), charge = 0, multiplicity = 1:

       Center              X                  Y                   Z               Mass
    ------------   -----------------  -----------------  -----------------  -----------------
         C           -0.024672683689    -2.860073417131     0.906370354949    12.000000000000
         C            0.674327316311    -0.371073417131     0.390370354949    12.000000000000
         C            0.659327316311    -1.539073417131     1.224370354949    12.000000000000
         C            1.437327316311     0.619926582869     1.059370354949    12.000000000000
         C            1.377327316311    -1.204073417131     2.357370354949    12.000000000000
         C            0.142327316311    -0.067073417131    -0.879629645051    12.000000000000
         C            0.347327316311     1.200926582869    -1.414629645051    12.000000000000
         C            1.089327316311     2.159926582869    -0.731629645051    12.000000000000
         C            1.632327316311     1.885926582869     0.523370354949    12.000000000000
         N            1.842327316311     0.087926582869     2.256370354949    14.003074004430
         H           -0.430672683689    -0.806073417131    -1.421629645051     1.007825032230
         H           -0.065672683689     1.439926582869    -2.386629645051     1.007825032230
         H            1.244327316311     3.133926582869    -1.179629645051     1.007825032230
         H           -0.360672683689    -2.805073417131    -0.128629645051     1.007825032230
         H           -0.911672683689    -2.961073417131     1.531370354949     1.007825032230
         H            1.543327316311    -1.846073417131     3.214370354949     1.007825032230
         H            2.356327316311     0.579926582869     2.983370354949     1.007825032230
         H            2.217327316311     2.626926582869     1.046370354949     1.007825032230
         H            0.630117316311    -3.737904417131     1.009640354949     1.007825032230
         C           -3.253672683689     0.001926582869    -2.387629645051    12.000000000000
         C           -4.742672683689     0.350926582869    -2.767629645051    12.000000000000
         H           -2.923672683689     0.620926582869    -1.551629645051     1.007825032230
         H           -3.193672683689    -1.045073417131    -2.091629645051     1.007825032230
         H           -2.591672683689     0.176926582869    -3.231629645051     1.007825032230
         H           -5.070672683689    -0.392073417131    -3.494629645051     1.007825032230
         H           -4.730522683689     1.335592582869    -3.257819645051     1.007825032230
         H           -5.435292683689     0.335803582869    -1.913199645051     1.007825032230

  Running in c1 symmetry.

  Rotational constants: A =      0.03956  B =      0.01563  C =      0.01195 [cm^-1]
  Rotational constants: A =   1185.88516  B =    468.67261  C =    358.11786 [MHz]
  Nuclear repulsion =  639.323411226662301

  Charge       = 0
  Multiplicity = 1
  Electrons    = 88
  Nalpha       = 44
  Nbeta        = 44

  ==> Algorithm <==

  SCF Algorithm Type is PK.
  DIIS enabled.
  MOM disabled.
  Fractional occupation disabled.
  Guess Type is SAD.
  Energy threshold   = 1.00e-06
  Density threshold  = 1.00e-10
  Integral threshold = 0.00e+00

  ==> Primary Basis <==

  Basis Set: CC-PVDZ
    Blend: CC-PVDZ
    Number of shells: 117
    Number of basis function: 243
    Number of Cartesian functions: 255
    Spherical Harmonics?: true
    Max angular momentum: 2

  ==> Pre-Iterations <==

   -------------------------------------------------------
    Irrep   Nso     Nmo     Nalpha   Nbeta   Ndocc  Nsocc
   -------------------------------------------------------
     A        243     243       0       0       0       0
   -------------------------------------------------------
    Total     243     243      44      44      44       0
   -------------------------------------------------------

  ==> Integral Setup <==

  Using integral reordering PK algorithm.
  Sizing the integral batches needed.
  Building batch lookup table.
   Calculation information:
      Number of atoms:                  27
      Number of AO shells:             117
      Number of primitives:            339
      Number of atomic orbitals:       255
      Number of basis functions:       243

      Integral cutoff                 1.00e-12
      Number of threads:                 1

	Batch   1 pq = [       0,    9405] index = [             0,44231715] size =     44231715
	Batch   2 pq = [    9405,   13301] index = [      44231715,88464951] size =     44233236
	Batch   3 pq = [   13301,   16290] index = [      88464951,132690195] size =     44225244
	Batch   4 pq = [   16290,   18810] index = [     132690195,176917455] size =     44227260
	Batch   5 pq = [   18810,   21030] index = [     176917455,221140965] size =     44223510
	Batch   6 pq = [   21030,   23037] index = [     221140965,265363203] size =     44222238
	Batch   7 pq = [   23037,   24883] index = [     265363203,309594286] size =     44231083
	Batch   8 pq = [   24883,   26601] index = [     309594286,353819901] size =     44225615
	Batch   9 pq = [   26601,   28214] index = [     353819901,398029005] size =     44209104
	Batch  10 pq = [   28214,   29646] index = [     398029005,439457481] size =     41428476
  Task number: 40
  Buffer size: 11059200
  Buffer per thread: 2
  We computed 19595356 shell quartets total.
  Whereas there are 23829156 unique shell quartets.

  ==> DiskJK: Disk-Based J/K Matrices <==

    J tasked:                  Yes
    K tasked:                  Yes
    wK tasked:                  No
    Memory [MiB]:              375
    Schwarz Cutoff:          1E-12

    OpenMP threads:              1

  Minimum eigenvalue in the overlap matrix is 2.4400113012E-04.
  Using Symmetric Orthogonalization.

  SCF Guess: Superposition of Atomic Densities via on-the-fly atomic UHF.

  ==> Iterations <==

                        Total Energy        Delta E     RMS |[F,P]|

   @RHF iter SAD:  -478.86371395674627   -4.78864e+02   0.00000e+00
   @RHF iter   1:  -479.49211651602798   -6.28403e-01   2.56395e-03 DIIS
   @RHF iter   2:  -479.71937030074912   -2.27254e-01   1.13780e-03 DIIS
   @RHF iter   3:  -479.75990636107093   -4.05361e-02   3.06168e-04 DIIS
   @RHF iter   4:  -479.76374706988128   -3.84071e-03   1.40062e-04 DIIS
   @RHF iter   5:  -479.76440540823285   -6.58338e-04   2.00400e-05 DIIS
   @RHF iter   6:  -479.76443459901810   -2.91908e-05   9.48142e-06 DIIS
   @RHF iter   7:  -479.76444074583026   -6.14681e-06   3.88304e-06 DIIS
   @RHF iter   8:  -479.76444252166436   -1.77583e-06   1.55381e-06 DIIS
   @RHF iter   9:  -479.76444288112373   -3.59459e-07   6.89673e-07 DIIS
   @RHF iter  10:  -479.76444295232278   -7.11991e-08   3.19958e-07 DIIS
   @RHF iter  11:  -479.76444297008931   -1.77665e-08   1.17709e-07 DIIS
   @RHF iter  12:  -479.76444297253522   -2.44592e-09   4.13006e-08 DIIS
   @RHF iter  13:  -479.76444297271047   -1.75248e-10   1.29160e-08 DIIS
   @RHF iter  14:  -479.76444297272946   -1.89857e-11   5.49399e-09 DIIS
   @RHF iter  15:  -479.76444297272764    1.81899e-12   2.48053e-09 DIIS
   @RHF iter  16:  -479.76444297273150   -3.86535e-12   1.04826e-09 DIIS
   @RHF iter  17:  -479.76444297272707    4.43379e-12   4.89018e-10 DIIS
   @RHF iter  18:  -479.76444297272644    6.25278e-13   1.76836e-10 DIIS
   @RHF iter  19:  -479.76444297272803   -1.59162e-12   6.26511e-11 DIIS
  Energy and wave function converged.

  ==> Post-Iterations <==

    Orbital Energies [Eh]
    ---------------------

    Doubly Occupied:

       1A    -15.602722     2A    -11.266334     3A    -11.262362
       4A    -11.229806     5A    -11.229612     6A    -11.228317
       7A    -11.227469     8A    -11.221961     9A    -11.221013
      10A    -11.219497    11A    -11.219492    12A    -11.215666
      13A     -1.292824    14A     -1.126620    15A     -1.067580
      16A     -1.003715    17A     -0.995411    18A     -0.983596
      19A     -0.929747    20A     -0.839101    21A     -0.836600
      22A     -0.800763    23A     -0.752108    24A     -0.718842
      25A     -0.658628    26A     -0.641336    27A     -0.601460
      28A     -0.591617    29A     -0.590621    30A     -0.588599
      31A     -0.587261    32A     -0.566147    33A     -0.553793
      34A     -0.534048    35A     -0.522303    36A     -0.495548
      37A     -0.492021    38A     -0.483985    39A     -0.479920
      40A     -0.471295    41A     -0.459487    42A     -0.370900
      43A     -0.296451    44A     -0.269746

    Virtual:

      45A      0.123207    46A      0.172806    47A      0.177052
      48A      0.180868    49A      0.195544    50A      0.204024
      51A      0.218388    52A      0.222435    53A      0.225110
      54A      0.244466    55A      0.262066    56A      0.265554
      57A      0.272938    58A      0.283695    59A      0.294838
      60A      0.302964    61A      0.312268    62A      0.323094
      63A      0.370049    64A      0.378475    65A      0.393114
      66A      0.409124    67A      0.428841    68A      0.447320
      69A      0.470583    70A      0.481095    71A      0.503633
      72A      0.522983    73A      0.587904    74A      0.592587
      75A      0.602556    76A      0.632246    77A      0.640684
      78A      0.643656    79A      0.650950    80A      0.655825
      81A      0.681638    82A      0.695584    83A      0.700021
      84A      0.706830    85A      0.716604    86A      0.729088
      87A      0.732778    88A      0.743202    89A      0.748685
      90A      0.757809    91A      0.763837    92A      0.775937
      93A      0.783279    94A      0.791293    95A      0.797720
      96A      0.827113    97A      0.851619    98A      0.865986
      99A      0.874861   100A      0.886020   101A      0.892406
     102A      0.895857   103A      0.897664   104A      0.903632
     105A      0.907897   106A      0.911409   107A      0.914195
     108A      0.918310   109A      0.937776   110A      0.946630
     111A      0.965339   112A      0.969721   113A      0.985902
     114A      0.988818   115A      1.006071   116A      1.014330
     117A      1.047280   118A      1.084159   119A      1.089598
     120A      1.119396   121A      1.126937   122A      1.136441
     123A      1.139425   124A      1.146609   125A      1.156476
     126A      1.182282   127A      1.212087   128A      1.215135
     129A      1.229917   130A      1.239356   131A      1.247242
     132A      1.254752   133A      1.279035   134A      1.284596
     135A      1.305006   136A      1.329635   137A      1.332001
     138A      1.360043   139A      1.367132   140A      1.434867
     141A      1.450385   142A      1.456983   143A      1.485237
     144A      1.517290   145A      1.538526   146A      1.557709
     147A      1.587102   148A      1.597396   149A      1.626573
     150A      1.638632   151A      1.658141   152A      1.682268
     153A      1.688188   154A      1.695857   155A      1.702192
     156A      1.738094   157A      1.746968   158A      1.764379
     159A      1.782449   160A      1.810313   161A      1.822434
     162A      1.833562   163A      1.862545   164A      1.871287
     165A      1.879469   166A      1.884126   167A      1.895597
     168A      1.896508   169A      1.901189   170A      1.911559
     171A      1.925708   172A      1.933424   173A      1.938894
     174A      1.947424   175A      1.956384   176A      1.961417
     177A      1.963805   178A      1.982829   179A      1.996255
     180A      1.998685   181A      2.010517   182A      2.018982
     183A      2.027917   184A      2.062821   185A      2.081015
     186A      2.086194   187A      2.090971   188A      2.095418
     189A      2.106904   190A      2.131554   191A      2.137976
     192A      2.146698   193A      2.169560   194A      2.175703
     195A      2.191782   196A      2.227469   197A      2.256310
     198A      2.270174   199A      2.291428   200A      2.304912
     201A      2.314522   202A      2.333014   203A      2.343071
     204A      2.355143   205A      2.391493   206A      2.403250
     207A      2.436247   208A      2.454360   209A      2.468008
     210A      2.469010   211A      2.534000   212A      2.550978
     213A      2.577728   214A      2.583158   215A      2.587149
     216A      2.618876   217A      2.660030   218A      2.676450
     219A      2.732293   220A      2.764815   221A      2.771418
     222A      2.775402   223A      2.782792   224A      2.791898
     225A      2.798293   226A      2.803375   227A      2.826854
     228A      2.841583   229A      2.853569   230A      2.863329
     231A      2.916377   232A      2.933651   233A      2.953674
     234A      2.961792   235A      3.020858   236A      3.048505
     237A      3.067176   238A      3.113172   239A      3.200899
     240A      3.287895   241A      3.362921   242A      3.729542
     243A      3.945308

    Final Occupation by Irrep:
              A
    DOCC [    44 ]

  @RHF Final Energy:  -479.76444297272803

   => Energetics <=

    Nuclear Repulsion Energy =            639.3234112266623015
    One-Electron Energy =               -1916.6830564075928578
    Two-Electron Energy =                 797.5952022082025223
    Total Energy =                       -479.7644429727280340

Computation Completed

Properties will be evaluated at   0.000000,   0.000000,   0.000000 [a0]

Properties computed using the SCF density matrix

  Nuclear Dipole Moment: [e a0]
     X:   -16.6199      Y:    -3.1346      Z:   -10.1987

  Electronic Dipole Moment: [e a0]
     X:    16.9654      Y:     3.0845      Z:    10.9573

  Dipole Moment: [e a0]
     X:     0.3455      Y:    -0.0501      Z:     0.7587     Total:     0.8351

  Dipole Moment: [D]
     X:     0.8782      Y:    -0.1273      Z:     1.9284     Total:     2.1227

*** tstop() called on ds3 at Mon Apr 27 01:29:25 2020
Module time:
	user time   =     148.88 seconds =       2.48 minutes
	system time =      68.43 seconds =       1.14 minutes
	total time  =        210 seconds =       3.50 minutes
Total time:
	user time   =     148.88 seconds =       2.48 minutes
	system time =      68.43 seconds =       1.14 minutes
	total time  =        210 seconds =       3.50 minutes
                                     G D M A

                                 by Anthony Stone

                           version 2.2.06, 22 June 2011

               Distributed Multipoles from Gaussian wavefunctions

Starting at 1:29:25 on 27 Apr 2020

Using SCF density matrix from file ./SSI/SSI-030TRP-217THR-1-dimer.test.12555.fchk

                         Distributed Multipole Analysis

Standard DMA

Positions and radii in angstrom
Multipole moments in atomic units, ea_0^k for rank k

C          x = -0.024673  y = -2.860073  z =  0.906370 angstrom
           Maximum rank =  0   Radius =  0.650 angstrom
                   Q00  =  -0.219041

C          x =  0.674327  y = -0.371073  z =  0.390370 angstrom
           Maximum rank =  0   Radius =  0.650 angstrom
                   Q00  =  -0.040705

C          x =  0.659327  y = -1.539073  z =  1.224370 angstrom
           Maximum rank =  0   Radius =  0.650 angstrom
                   Q00  =  -0.136233

C          x =  1.437327  y =  0.619927  z =  1.059370 angstrom
           Maximum rank =  0   Radius =  0.650 angstrom
                   Q00  =   0.239282

C          x =  1.377327  y = -1.204073  z =  2.357370 angstrom
           Maximum rank =  0   Radius =  0.650 angstrom
                   Q00  =   0.073869

C          x =  0.142327  y = -0.067073  z = -0.879630 angstrom
           Maximum rank =  0   Radius =  0.650 angstrom
                   Q00  =  -0.103798

C          x =  0.347327  y =  1.200927  z = -1.414630 angstrom
           Maximum rank =  0   Radius =  0.650 angstrom
                   Q00  =  -0.071082

C          x =  1.089327  y =  2.159927  z = -0.731630 angstrom
           Maximum rank =  0   Radius =  0.650 angstrom
                   Q00  =  -0.029161

C          x =  1.632327  y =  1.885927  z =  0.523370 angstrom
           Maximum rank =  0   Radius =  0.650 angstrom
                   Q00  =  -0.122442

N          x =  1.842327  y =  0.087927  z =  2.256370 angstrom
           Maximum rank =  0   Radius =  0.650 angstrom
                   Q00  =  -0.496066

H          x = -0.430673  y = -0.806073  z = -1.421630 angstrom
           Maximum rank =  0   Radius =  0.325 angstrom
                   Q00  =   0.071562

H          x = -0.065673  y =  1.439927  z = -2.386630 angstrom
           Maximum rank =  0   Radius =  0.325 angstrom
                   Q00  =   0.058567

H          x =  1.244327  y =  3.133927  z = -1.179630 angstrom
           Maximum rank =  0   Radius =  0.325 angstrom
                   Q00  =   0.063603

H          x = -0.360673  y = -2.805073  z = -0.128630 angstrom
           Maximum rank =  0   Radius =  0.325 angstrom
                   Q00  =   0.107924

H          x = -0.911673  y = -2.961073  z =  1.531370 angstrom
           Maximum rank =  0   Radius =  0.325 angstrom
                   Q00  =   0.103438

H          x =  1.543327  y = -1.846073  z =  3.214370 angstrom
           Maximum rank =  0   Radius =  0.325 angstrom
                   Q00  =   0.099331

H          x =  2.356327  y =  0.579927  z =  2.983370 angstrom
           Maximum rank =  0   Radius =  0.325 angstrom
                   Q00  =   0.219988

H          x =  2.217327  y =  2.626927  z =  1.046370 angstrom
           Maximum rank =  0   Radius =  0.325 angstrom
                   Q00  =   0.073126

H          x =  0.630117  y = -3.737904  z =  1.009640 angstrom
           Maximum rank =  0   Radius =  0.325 angstrom
                   Q00  =   0.106704

C          x = -3.253673  y =  0.001927  z = -2.387630 angstrom
           Maximum rank =  0   Radius =  0.650 angstrom
                   Q00  =  -0.253482

C          x = -4.742673  y =  0.350927  z = -2.767630 angstrom
           Maximum rank =  0   Radius =  0.650 angstrom
                   Q00  =  -0.245177

H          x = -2.923673  y =  0.620927  z = -1.551630 angstrom
           Maximum rank =  0   Radius =  0.325 angstrom
                   Q00  =   0.092296

H          x = -3.193673  y = -1.045073  z = -2.091630 angstrom
           Maximum rank =  0   Radius =  0.325 angstrom
                   Q00  =   0.077001

H          x = -2.591673  y =  0.176927  z = -3.231630 angstrom
           Maximum rank =  0   Radius =  0.325 angstrom
                   Q00  =   0.082130

H          x = -5.070673  y = -0.392073  z = -3.494630 angstrom
           Maximum rank =  0   Radius =  0.325 angstrom
                   Q00  =   0.078805

H          x = -4.730523  y =  1.335593  z = -3.257820 angstrom
           Maximum rank =  0   Radius =  0.325 angstrom
                   Q00  =   0.080859

H          x = -5.435293  y =  0.335804  z = -1.913200 angstrom
           Maximum rank =  0   Radius =  0.325 angstrom
                   Q00  =   0.088702

Total multipoles referred to origin at
           x =   0.000000,  y =    0.000000,  z =    0.000000 angstrom
                   Q00  =  -0.000000

Finished at 1:29:25 on 27 Apr 2020

  DMA results are available in the Python driver through the
	  variable('DMA DISTRIBUTED MULTIPOLES')
  and
	  variable('DMA TOTAL MULTIPOLES')
  commands.

    Psi4 stopped on: Monday, 27 April 2020 01:29AM
    Psi4 wall time for execution: 0:03:30.04

*** Psi4 exiting successfully. Buy a developer a beer!
