                               Psi4 1.3.2 release

  ==> Input File <==

--------------------------------------------------------------------------
import numpy as np
set {scf_type pk
basis cc-pvdz
d_convergence 10
gdma_switch   0
gdma_limit    0
gdma_origin   [ 0.0,  0.0,  0.0 ]
}
molecule test {
    units Angstrom
    0 1
    --
    0 1
    C               -1.050974032634443     3.055263146417321    -0.604177807787424
    C                0.874025967365557    -0.268736853582678    -0.409177807787424
    C                0.126025967365557    -1.076736853582678    -1.248177807787424
    C                0.487025967365557     1.067263146417322    -0.201177807787424
    C               -0.650974032634443     1.607263146417322    -0.823177807787424
    C               -1.004974032634443    -0.561736853582678    -1.878177807787424
    C               -1.394974032634443     0.782263146417322    -1.665177807787424
    O                0.474025967365557    -2.383736853582678    -1.447177807787424
    H                1.747025967365557    -0.676736853582678     0.078822192212576
    H                1.074025967365557     1.691263146417322     0.457822192212576
    H               -1.593974032634443    -1.189736853582678    -2.532177807787424
    H               -0.075974032634443    -2.803736853582679    -2.119177807787424
    H               -0.634974032634443     3.406263146417322     0.341822192212576
    H               -2.135974032634443     3.101263146417322    -0.531177807787424
    H               -2.275974032634443     1.171263146417322    -2.160177807787424
    H               -0.730415532634443     3.726500146417322    -1.414537807787424
    C                1.179025967365557    -1.088736853582678     3.078822192212576
    C                0.713025967365557    -0.609736853582678     4.440822192212575
    H                1.995025967365557    -0.466736853582678     2.712822192212576
    H                1.545025967365557    -2.112736853582678     3.164822192212576
    H                0.355025967365557    -1.070736853582678     2.367822192212576
    H                1.576025967365557    -0.509736853582678     5.095822192212576
    H                0.067025967365557    -1.387736853582678     4.846822192212576
    H                0.170822267365557     0.347346146417322     4.437962192212575

}
e, wfn = energy('scf', return_wfn=True)
gdma(wfn)
dmavals = variable('DMA DISTRIBUTED MULTIPOLES')
charges = np.array(dmavals)
print(charges)
np.save('SSI-090TYR-099ILE-1-dimer.npy', np.array(charges))--------------------------------------------------------------------------

*** tstart() called on ds3
*** at Tue Apr 28 08:10:24 2020

   => Loading Basis Set <=

    Name: CC-PVDZ
    Role: ORBITAL
    Keyword: BASIS
    atoms 1-7, 17-18  entry C          line   138 file /theoryfs2/ds/metcalf/miniconda2/envs/tf2gpu/share/psi4/basis/cc-pvdz.gbs
    atoms 8           entry O          line   198 file /theoryfs2/ds/metcalf/miniconda2/envs/tf2gpu/share/psi4/basis/cc-pvdz.gbs
    atoms 9-16, 19-24 entry H          line    22 file /theoryfs2/ds/metcalf/miniconda2/envs/tf2gpu/share/psi4/basis/cc-pvdz.gbs

         ---------------------------------------------------------
                                   SCF
               by Justin Turney, Rob Parrish, Andy Simmonett
                          and Daniel G. A. Smith
                              RHF Reference
                        1 Threads,    500 MiB Core
         ---------------------------------------------------------

  ==> Geometry <==

    Molecular point group: c1
    Full point group: C1

    Geometry (in Angstrom), charge = 0, multiplicity = 1:

       Center              X                  Y                   Z               Mass
    ------------   -----------------  -----------------  -----------------  -----------------
         C           -1.050974032634     3.055263146417    -0.604177807787    12.000000000000
         C            0.874025967366    -0.268736853583    -0.409177807787    12.000000000000
         C            0.126025967366    -1.076736853583    -1.248177807787    12.000000000000
         C            0.487025967366     1.067263146417    -0.201177807787    12.000000000000
         C           -0.650974032634     1.607263146417    -0.823177807787    12.000000000000
         C           -1.004974032634    -0.561736853583    -1.878177807787    12.000000000000
         C           -1.394974032634     0.782263146417    -1.665177807787    12.000000000000
         O            0.474025967366    -2.383736853583    -1.447177807787    15.994914619570
         H            1.747025967366    -0.676736853583     0.078822192213     1.007825032230
         H            1.074025967366     1.691263146417     0.457822192213     1.007825032230
         H           -1.593974032634    -1.189736853583    -2.532177807787     1.007825032230
         H           -0.075974032634    -2.803736853583    -2.119177807787     1.007825032230
         H           -0.634974032634     3.406263146417     0.341822192213     1.007825032230
         H           -2.135974032634     3.101263146417    -0.531177807787     1.007825032230
         H           -2.275974032634     1.171263146417    -2.160177807787     1.007825032230
         H           -0.730415532634     3.726500146417    -1.414537807787     1.007825032230
         C            1.179025967366    -1.088736853583     3.078822192213    12.000000000000
         C            0.713025967366    -0.609736853583     4.440822192213    12.000000000000
         H            1.995025967366    -0.466736853583     2.712822192213     1.007825032230
         H            1.545025967366    -2.112736853583     3.164822192213     1.007825032230
         H            0.355025967366    -1.070736853583     2.367822192213     1.007825032230
         H            1.576025967366    -0.509736853583     5.095822192213     1.007825032230
         H            0.067025967366    -1.387736853583     4.846822192213     1.007825032230
         H            0.170822267366     0.347346146417     4.437962192213     1.007825032230

  Running in c1 symmetry.

  Rotational constants: A =      0.04267  B =      0.02335  C =      0.01638 [cm^-1]
  Rotational constants: A =   1279.09346  B =    699.95593  C =    490.95543 [MHz]
  Nuclear repulsion =  488.608091507261918

  Charge       = 0
  Multiplicity = 1
  Electrons    = 76
  Nalpha       = 38
  Nbeta        = 38

  ==> Algorithm <==

  SCF Algorithm Type is PK.
  DIIS enabled.
  MOM disabled.
  Fractional occupation disabled.
  Guess Type is SAD.
  Energy threshold   = 1.00e-06
  Density threshold  = 1.00e-10
  Integral threshold = 0.00e+00

  ==> Primary Basis <==

  Basis Set: CC-PVDZ
    Blend: CC-PVDZ
    Number of shells: 102
    Number of basis function: 210
    Number of Cartesian functions: 220
    Spherical Harmonics?: true
    Max angular momentum: 2

  ==> Pre-Iterations <==

   -------------------------------------------------------
    Irrep   Nso     Nmo     Nalpha   Nbeta   Ndocc  Nsocc
   -------------------------------------------------------
     A        210     210       0       0       0       0
   -------------------------------------------------------
    Total     210     210      38      38      38       0
   -------------------------------------------------------

  ==> Integral Setup <==

  Using integral reordering PK algorithm.
  Sizing the integral batches needed.
  Building batch lookup table.
   Calculation information:
      Number of atoms:                  24
      Number of AO shells:             102
      Number of primitives:            290
      Number of atomic orbitals:       220
      Number of basis functions:       210

      Integral cutoff                 1.00e-12
      Number of threads:                 1

	Batch   1 pq = [       0,    9405] index = [             0,44231715] size =     44231715
	Batch   2 pq = [    9405,   13301] index = [      44231715,88464951] size =     44233236
	Batch   3 pq = [   13301,   16290] index = [      88464951,132690195] size =     44225244
	Batch   4 pq = [   16290,   18810] index = [     132690195,176917455] size =     44227260
	Batch   5 pq = [   18810,   21030] index = [     176917455,221140965] size =     44223510
	Batch   6 pq = [   21030,   22155] index = [     221140965,245433090] size =     24292125
  Task number: 23
  Buffer size: 11059200
  Buffer per thread: 2
  We computed 11191323 shell quartets total.
  Whereas there are 13799631 unique shell quartets.

  ==> DiskJK: Disk-Based J/K Matrices <==

    J tasked:                  Yes
    K tasked:                  Yes
    wK tasked:                  No
    Memory [MiB]:              375
    Schwarz Cutoff:          1E-12

    OpenMP threads:              1

  Minimum eigenvalue in the overlap matrix is 3.3679506514E-04.
  Using Symmetric Orthogonalization.

  SCF Guess: Superposition of Atomic Densities via on-the-fly atomic UHF.

  ==> Iterations <==

                        Total Energy        Delta E     RMS |[F,P]|

   @RHF iter SAD:  -422.60412696332190   -4.22604e+02   0.00000e+00
   @RHF iter   1:  -423.60215328283914   -9.98026e-01   2.96477e-03 DIIS
   @RHF iter   2:  -423.81709753234583   -2.14944e-01   1.24707e-03 DIIS
   @RHF iter   3:  -423.85137573307890   -3.42782e-02   2.81962e-04 DIIS
   @RHF iter   4:  -423.85422347263233   -2.84774e-03   1.14952e-04 DIIS
   @RHF iter   5:  -423.85456204266774   -3.38570e-04   2.08710e-05 DIIS
   @RHF iter   6:  -423.85457947778610   -1.74351e-05   6.36559e-06 DIIS
   @RHF iter   7:  -423.85458107868129   -1.60090e-06   2.08155e-06 DIIS
   @RHF iter   8:  -423.85458129410540   -2.15424e-07   7.79034e-07 DIIS
   @RHF iter   9:  -423.85458132784208   -3.37367e-08   2.90869e-07 DIIS
   @RHF iter  10:  -423.85458133362658   -5.78450e-09   1.17663e-07 DIIS
   @RHF iter  11:  -423.85458133524901   -1.62242e-09   5.57333e-08 DIIS
   @RHF iter  12:  -423.85458133561633   -3.67322e-10   2.83996e-08 DIIS
   @RHF iter  13:  -423.85458133570273   -8.64020e-11   8.48169e-09 DIIS
   @RHF iter  14:  -423.85458133571024   -7.50333e-12   2.10779e-09 DIIS
   @RHF iter  15:  -423.85458133570847    1.76215e-12   7.57960e-10 DIIS
   @RHF iter  16:  -423.85458133570933   -8.52651e-13   2.53596e-10 DIIS
   @RHF iter  17:  -423.85458133570768    1.64846e-12   1.12200e-10 DIIS
   @RHF iter  18:  -423.85458133571126   -3.58114e-12   5.96781e-11 DIIS
  Energy and wave function converged.

  ==> Post-Iterations <==

    Orbital Energies [Eh]
    ---------------------

    Doubly Occupied:

       1A    -20.582234     2A    -11.298592     3A    -11.241598
       4A    -11.240676     5A    -11.236254     6A    -11.235550
       7A    -11.231056     8A    -11.229909     9A    -11.212552
      10A    -11.209755    11A     -1.396874    12A     -1.145963
      13A     -1.036692    14A     -1.016731    15A     -1.011367
      16A     -0.926566    17A     -0.844690    18A     -0.832445
      19A     -0.798805    20A     -0.729501    21A     -0.664721
      22A     -0.641054    23A     -0.607694    24A     -0.596200
      25A     -0.593327    26A     -0.584616    27A     -0.582023
      28A     -0.568560    29A     -0.566326    30A     -0.527653
      31A     -0.500962    32A     -0.496455    33A     -0.485124
      34A     -0.480457    35A     -0.477546    36A     -0.463435
      37A     -0.333394    38A     -0.303958

    Virtual:

      39A      0.126645    40A      0.155670    41A      0.178648
      42A      0.180955    43A      0.195266    44A      0.212086
      45A      0.223468    46A      0.240279    47A      0.257015
      48A      0.262784    49A      0.266511    50A      0.280596
      51A      0.282004    52A      0.289184    53A      0.295496
      54A      0.314133    55A      0.368312    56A      0.372674
      57A      0.414951    58A      0.426098    59A      0.453813
      60A      0.484029    61A      0.489820    62A      0.504803
      63A      0.594274    64A      0.604226    65A      0.612525
      66A      0.618351    67A      0.635315    68A      0.645554
      69A      0.657194    70A      0.678871    71A      0.681745
      72A      0.690630    73A      0.698385    74A      0.717199
      75A      0.731461    76A      0.736120    77A      0.766838
      78A      0.770268    79A      0.782349    80A      0.792683
      81A      0.807483    82A      0.829517    83A      0.848602
      84A      0.857922    85A      0.877484    86A      0.879390
      87A      0.889350    88A      0.892016    89A      0.895586
      90A      0.904001    91A      0.905487    92A      0.915739
      93A      0.923500    94A      0.930194    95A      0.935260
      96A      0.937366    97A      0.946673    98A      0.969931
      99A      0.996244   100A      1.011901   101A      1.030684
     102A      1.057965   103A      1.111964   104A      1.125307
     105A      1.133550   106A      1.142342   107A      1.161576
     108A      1.173756   109A      1.201903   110A      1.224496
     111A      1.248296   112A      1.252266   113A      1.268765
     114A      1.281804   115A      1.295043   116A      1.306673
     117A      1.314076   118A      1.359737   119A      1.364843
     120A      1.378837   121A      1.469122   122A      1.488517
     123A      1.499330   124A      1.504170   125A      1.526769
     126A      1.550587   127A      1.593125   128A      1.615963
     129A      1.622076   130A      1.679246   131A      1.690851
     132A      1.698526   133A      1.702533   134A      1.726604
     135A      1.743667   136A      1.781756   137A      1.798465
     138A      1.801754   139A      1.860495   140A      1.873349
     141A      1.881646   142A      1.885102   143A      1.887066
     144A      1.902418   145A      1.905458   146A      1.913042
     147A      1.918193   148A      1.943351   149A      1.947299
     150A      1.955225   151A      1.958996   152A      1.964171
     153A      1.973221   154A      1.982992   155A      1.994792
     156A      1.999338   157A      2.029117   158A      2.047398
     159A      2.051399   160A      2.061770   161A      2.066960
     162A      2.100700   163A      2.125846   164A      2.139803
     165A      2.149810   166A      2.161995   167A      2.205722
     168A      2.223843   169A      2.257296   170A      2.269755
     171A      2.295684   172A      2.316450   173A      2.319232
     174A      2.335773   175A      2.371743   176A      2.413256
     177A      2.448328   178A      2.452756   179A      2.469193
     180A      2.479223   181A      2.483142   182A      2.529771
     183A      2.536209   184A      2.566954   185A      2.594753
     186A      2.596206   187A      2.636248   188A      2.741172
     189A      2.766993   190A      2.775207   191A      2.781652
     192A      2.800092   193A      2.806759   194A      2.840077
     195A      2.865351   196A      2.871639   197A      2.891981
     198A      2.942533   199A      2.958366   200A      2.974598
     201A      3.003052   202A      3.070919   203A      3.095014
     204A      3.251224   205A      3.267456   206A      3.345590
     207A      3.567657   208A      3.659302   209A      3.954566
     210A      4.183248

    Final Occupation by Irrep:
              A
    DOCC [    38 ]

  @RHF Final Energy:  -423.85458133571126

   => Energetics <=

    Nuclear Repulsion Energy =            488.6080915072619177
    One-Electron Energy =               -1543.0627131830344752
    Two-Electron Energy =                 630.6000403400613550
    Total Energy =                       -423.8545813357112593

Computation Completed

Properties will be evaluated at   0.000000,   0.000000,   0.000000 [a0]

Properties computed using the SCF density matrix

  Nuclear Dipole Moment: [e a0]
     X:     1.0173      Y:     3.0128      Z:    13.8182

  Electronic Dipole Moment: [e a0]
     X:    -1.4676      Y:    -2.8815      Z:   -14.1913

  Dipole Moment: [e a0]
     X:    -0.4503      Y:     0.1314      Z:    -0.3731     Total:     0.5994

  Dipole Moment: [D]
     X:    -1.1446      Y:     0.3339      Z:    -0.9484     Total:     1.5235

*** tstop() called on ds3 at Tue Apr 28 08:13:33 2020
Module time:
	user time   =      82.05 seconds =       1.37 minutes
	system time =      36.91 seconds =       0.62 minutes
	total time  =        189 seconds =       3.15 minutes
Total time:
	user time   =      82.05 seconds =       1.37 minutes
	system time =      36.91 seconds =       0.62 minutes
	total time  =        189 seconds =       3.15 minutes
                                     G D M A

                                 by Anthony Stone

                           version 2.2.06, 22 June 2011

               Distributed Multipoles from Gaussian wavefunctions

Starting at 8:13:33 on 28 Apr 2020

Using SCF density matrix from file ./SSI/SSI-090TYR-099ILE-1-dimer.test.9628.fchk

                         Distributed Multipole Analysis

Standard DMA

Positions and radii in angstrom
Multipole moments in atomic units, ea_0^k for rank k

C          x = -1.050974  y =  3.055263  z = -0.604178 angstrom
           Maximum rank =  0   Radius =  0.650 angstrom
                   Q00  =  -0.199783

C          x =  0.874026  y = -0.268737  z = -0.409178 angstrom
           Maximum rank =  0   Radius =  0.650 angstrom
                   Q00  =  -0.118985

C          x =  0.126026  y = -1.076737  z = -1.248178 angstrom
           Maximum rank =  0   Radius =  0.650 angstrom
                   Q00  =   0.302976

C          x =  0.487026  y =  1.067263  z = -0.201178 angstrom
           Maximum rank =  0   Radius =  0.650 angstrom
                   Q00  =   0.053538

C          x = -0.650974  y =  1.607263  z = -0.823178 angstrom
           Maximum rank =  0   Radius =  0.650 angstrom
                   Q00  =  -0.136013

C          x = -1.004974  y = -0.561737  z = -1.878178 angstrom
           Maximum rank =  0   Radius =  0.650 angstrom
                   Q00  =  -0.152597

C          x = -1.394974  y =  0.782263  z = -1.665178 angstrom
           Maximum rank =  0   Radius =  0.650 angstrom
                   Q00  =  -0.060975

O          x =  0.474026  y = -2.383737  z = -1.447178 angstrom
           Maximum rank =  0   Radius =  0.650 angstrom
                   Q00  =  -0.682155

H          x =  1.747026  y = -0.676737  z =  0.078822 angstrom
           Maximum rank =  0   Radius =  0.325 angstrom
                   Q00  =   0.084079

H          x =  1.074026  y =  1.691263  z =  0.457822 angstrom
           Maximum rank =  0   Radius =  0.325 angstrom
                   Q00  =   0.065253

H          x = -1.593974  y = -1.189737  z = -2.532178 angstrom
           Maximum rank =  0   Radius =  0.325 angstrom
                   Q00  =   0.071539

H          x = -0.075974  y = -2.803737  z = -2.119178 angstrom
           Maximum rank =  0   Radius =  0.325 angstrom
                   Q00  =   0.407175

H          x = -0.634974  y =  3.406263  z =  0.341822 angstrom
           Maximum rank =  0   Radius =  0.325 angstrom
                   Q00  =   0.098115

H          x = -2.135974  y =  3.101263  z = -0.531178 angstrom
           Maximum rank =  0   Radius =  0.325 angstrom
                   Q00  =   0.096694

H          x = -2.275974  y =  1.171263  z = -2.160178 angstrom
           Maximum rank =  0   Radius =  0.325 angstrom
                   Q00  =   0.070256

H          x = -0.730416  y =  3.726500  z = -1.414538 angstrom
           Maximum rank =  0   Radius =  0.325 angstrom
                   Q00  =   0.101473

C          x =  1.179026  y = -1.088737  z =  3.078822 angstrom
           Maximum rank =  0   Radius =  0.650 angstrom
                   Q00  =  -0.231195

C          x =  0.713026  y = -0.609737  z =  4.440822 angstrom
           Maximum rank =  0   Radius =  0.650 angstrom
                   Q00  =  -0.235968

H          x =  1.995026  y = -0.466737  z =  2.712822 angstrom
           Maximum rank =  0   Radius =  0.325 angstrom
                   Q00  =   0.068814

H          x =  1.545026  y = -2.112737  z =  3.164822 angstrom
           Maximum rank =  0   Radius =  0.325 angstrom
                   Q00  =   0.077699

H          x =  0.355026  y = -1.070737  z =  2.367822 angstrom
           Maximum rank =  0   Radius =  0.325 angstrom
                   Q00  =   0.091410

H          x =  1.576026  y = -0.509737  z =  5.095822 angstrom
           Maximum rank =  0   Radius =  0.325 angstrom
                   Q00  =   0.074169

H          x =  0.067026  y = -1.387737  z =  4.846822 angstrom
           Maximum rank =  0   Radius =  0.325 angstrom
                   Q00  =   0.075183

H          x =  0.170822  y =  0.347346  z =  4.437962 angstrom
           Maximum rank =  0   Radius =  0.325 angstrom
                   Q00  =   0.079298

Total multipoles referred to origin at
           x =   0.000000,  y =    0.000000,  z =    0.000000 angstrom
                   Q00  =  -0.000000

Finished at 8:13:33 on 28 Apr 2020

  DMA results are available in the Python driver through the
	  variable('DMA DISTRIBUTED MULTIPOLES')
  and
	  variable('DMA TOTAL MULTIPOLES')
  commands.

    Psi4 stopped on: Tuesday, 28 April 2020 08:13AM
    Psi4 wall time for execution: 0:03:09.05

*** Psi4 exiting successfully. Buy a developer a beer!
