                               Psi4 1.3.2 release

  ==> Input File <==

--------------------------------------------------------------------------
import numpy as np
set {scf_type pk
basis cc-pvdz
d_convergence 10
gdma_switch   0
gdma_limit    0
gdma_origin   [ 0.0,  0.0,  0.0 ]
}
molecule test {
    units Angstrom
    0 1
    --
    0 1
    C               -3.361625008706490     1.110676377089131    -1.176831297505424
    O               -2.223625008706490     1.103676377089131    -0.334831297505424
    H               -2.471625008706490     0.669676377089131     0.496168702494576
    H               -3.987625008706490     1.951676377089131    -0.892831297505424
    H               -3.053705008706490     1.214266377089131    -2.227761297505425
    H               -3.939075008706491     0.188066377089131    -1.017635297505424
    C                0.351374991293510    -0.247323622910869    -0.528831297505424
    C                1.282374991293510     0.823676377089131    -1.070831297505425
    C                2.584374991293510    -0.971323622910869     0.915168702494575
    S                0.793374991293510    -0.913323622910869     1.075168702494576
    H               -0.675625008706490    -0.216323622910869    -0.749831297505424
    H                0.586374991293510    -1.089323622910869    -1.182831297505425
    H                0.864374991293510     1.152676377089131    -2.021831297505425
    H                2.241374991293510     0.369676377089131    -1.318831297505424
    H                3.032374991293509    -0.003323622910869     0.706168702494576
    H                2.999374991293509    -1.306323622910869     1.856168702494575
    H                2.861374991293510    -1.693323622910869     0.151168702494576
    H                1.465854991293510     1.698776377089131    -0.430096297505424

}
e, wfn = energy('scf', return_wfn=True)
gdma(wfn)
dmavals = variable('DMA DISTRIBUTED MULTIPOLES')
charges = np.array(dmavals)
print(charges)
np.save('SSI-083THR-086MET-1-dimer.npy', np.array(charges))--------------------------------------------------------------------------

*** tstart() called on ds3
*** at Sun Apr 26 18:49:47 2020

   => Loading Basis Set <=

    Name: CC-PVDZ
    Role: ORBITAL
    Keyword: BASIS
    atoms 1, 7-9     entry C          line   138 file /theoryfs2/ds/metcalf/miniconda2/envs/tf2gpu/share/psi4/basis/cc-pvdz.gbs
    atoms 2          entry O          line   198 file /theoryfs2/ds/metcalf/miniconda2/envs/tf2gpu/share/psi4/basis/cc-pvdz.gbs
    atoms 3-6, 11-18 entry H          line    22 file /theoryfs2/ds/metcalf/miniconda2/envs/tf2gpu/share/psi4/basis/cc-pvdz.gbs
    atoms 10         entry S          line   598 file /theoryfs2/ds/metcalf/miniconda2/envs/tf2gpu/share/psi4/basis/cc-pvdz.gbs

         ---------------------------------------------------------
                                   SCF
               by Justin Turney, Rob Parrish, Andy Simmonett
                          and Daniel G. A. Smith
                              RHF Reference
                        1 Threads,    500 MiB Core
         ---------------------------------------------------------

  ==> Geometry <==

    Molecular point group: c1
    Full point group: C1

    Geometry (in Angstrom), charge = 0, multiplicity = 1:

       Center              X                  Y                   Z               Mass
    ------------   -----------------  -----------------  -----------------  -----------------
         C           -3.361625008706     1.110676377089    -1.176831297505    12.000000000000
         O           -2.223625008706     1.103676377089    -0.334831297505    15.994914619570
         H           -2.471625008706     0.669676377089     0.496168702495     1.007825032230
         H           -3.987625008706     1.951676377089    -0.892831297505     1.007825032230
         H           -3.053705008706     1.214266377089    -2.227761297505     1.007825032230
         H           -3.939075008706     0.188066377089    -1.017635297505     1.007825032230
         C            0.351374991294    -0.247323622911    -0.528831297505    12.000000000000
         C            1.282374991294     0.823676377089    -1.070831297505    12.000000000000
         C            2.584374991294    -0.971323622911     0.915168702495    12.000000000000
         S            0.793374991294    -0.913323622911     1.075168702495    31.972071174400
         H           -0.675625008706    -0.216323622911    -0.749831297505     1.007825032230
         H            0.586374991294    -1.089323622911    -1.182831297505     1.007825032230
         H            0.864374991294     1.152676377089    -2.021831297505     1.007825032230
         H            2.241374991294     0.369676377089    -1.318831297505     1.007825032230
         H            3.032374991294    -0.003323622911     0.706168702495     1.007825032230
         H            2.999374991294    -1.306323622911     1.856168702495     1.007825032230
         H            2.861374991294    -1.693323622911     0.151168702495     1.007825032230
         H            1.465854991294     1.698776377089    -0.430096297505     1.007825032230

  Running in c1 symmetry.

  Rotational constants: A =      0.16882  B =      0.03167  C =      0.02795 [cm^-1]
  Rotational constants: A =   5061.18174  B =    949.53036  C =    837.83490 [MHz]
  Nuclear repulsion =  304.992222788650679

  Charge       = 0
  Multiplicity = 1
  Electrons    = 60
  Nalpha       = 30
  Nbeta        = 30

  ==> Algorithm <==

  SCF Algorithm Type is PK.
  DIIS enabled.
  MOM disabled.
  Fractional occupation disabled.
  Guess Type is SAD.
  Energy threshold   = 1.00e-06
  Density threshold  = 1.00e-10
  Integral threshold = 0.00e+00

  ==> Primary Basis <==

  Basis Set: CC-PVDZ
    Blend: CC-PVDZ
    Number of shells: 74
    Number of basis function: 148
    Number of Cartesian functions: 154
    Spherical Harmonics?: true
    Max angular momentum: 2

  ==> Pre-Iterations <==

   -------------------------------------------------------
    Irrep   Nso     Nmo     Nalpha   Nbeta   Ndocc  Nsocc
   -------------------------------------------------------
     A        148     148       0       0       0       0
   -------------------------------------------------------
    Total     148     148      30      30      30       0
   -------------------------------------------------------

  ==> Integral Setup <==

  Using integral reordering PK algorithm.
  Sizing the integral batches needed.
  Building batch lookup table.
   Calculation information:
      Number of atoms:                  18
      Number of AO shells:              74
      Number of primitives:            220
      Number of atomic orbitals:       154
      Number of basis functions:       148

      Integral cutoff                 1.00e-12
      Number of threads:                 1

	Batch   1 pq = [       0,    9405] index = [             0,44231715] size =     44231715
	Batch   2 pq = [    9405,   11026] index = [      44231715,60791851] size =     16560136
  Task number: 6
  Buffer size: 11059200
  Buffer per thread: 2
  We computed 3270034 shell quartets total.
  Whereas there are 3851700 unique shell quartets.

  ==> DiskJK: Disk-Based J/K Matrices <==

    J tasked:                  Yes
    K tasked:                  Yes
    wK tasked:                  No
    Memory [MiB]:              375
    Schwarz Cutoff:          1E-12

    OpenMP threads:              1

  Minimum eigenvalue in the overlap matrix is 5.7920617528E-03.
  Using Symmetric Orthogonalization.

  SCF Guess: Superposition of Atomic Densities via on-the-fly atomic UHF.

  ==> Iterations <==

                        Total Energy        Delta E     RMS |[F,P]|

   @RHF iter SAD:  -629.78912355691546   -6.29789e+02   0.00000e+00
   @RHF iter   1:  -630.65332598275586   -8.64202e-01   3.45586e-03 DIIS
   @RHF iter   2:  -630.78978064465662   -1.36455e-01   1.60992e-03 DIIS
   @RHF iter   3:  -630.81490590715191   -2.51253e-02   3.72223e-04 DIIS
   @RHF iter   4:  -630.81729724372190   -2.39134e-03   9.33698e-05 DIIS
   @RHF iter   5:  -630.81742303324086   -1.25790e-04   2.33403e-05 DIIS
   @RHF iter   6:  -630.81743178408635   -8.75085e-06   5.77755e-06 DIIS
   @RHF iter   7:  -630.81743250629745   -7.22211e-07   1.49512e-06 DIIS
   @RHF iter   8:  -630.81743256504524   -5.87478e-08   5.32337e-07 DIIS
   @RHF iter   9:  -630.81743257278436   -7.73912e-09   1.25233e-07 DIIS
   @RHF iter  10:  -630.81743257327025   -4.85898e-10   3.68739e-08 DIIS
   @RHF iter  11:  -630.81743257330902   -3.87672e-11   1.30066e-08 DIIS
   @RHF iter  12:  -630.81743257331686   -7.84439e-12   4.42514e-09 DIIS
   @RHF iter  13:  -630.81743257331652    3.41061e-13   1.36856e-09 DIIS
   @RHF iter  14:  -630.81743257331641    1.13687e-13   4.37125e-10 DIIS
   @RHF iter  15:  -630.81743257331846   -2.04636e-12   1.47606e-10 DIIS
   @RHF iter  16:  -630.81743257331539    3.06954e-12   3.90990e-11 DIIS
  Energy and wave function converged.

  ==> Post-Iterations <==

    Orbital Energies [Eh]
    ---------------------

    Doubly Occupied:

       1A    -91.922338     2A    -20.557922     3A    -11.282565
       4A    -11.244586     5A    -11.229092     6A    -11.217924
       7A     -8.926436     8A     -6.608541     9A     -6.607069
      10A     -6.604791    11A     -1.360090    12A     -1.074127
      13A     -0.983303    14A     -0.926325    15A     -0.884717
      16A     -0.776884    17A     -0.690346    18A     -0.631624
      19A     -0.614454    20A     -0.600504    21A     -0.592572
      22A     -0.569353    23A     -0.545580    24A     -0.530507
      25A     -0.505494    26A     -0.487289    27A     -0.475741
      28A     -0.438902    29A     -0.406096    30A     -0.315138

    Virtual:

      31A      0.170148    32A      0.181470    33A      0.206064
      34A      0.219936    35A      0.232700    36A      0.244066
      37A      0.256073    38A      0.261942    39A      0.273718
      40A      0.279096    41A      0.286721    42A      0.295005
      43A      0.312570    44A      0.335732    45A      0.369673
      46A      0.412628    47A      0.543699    48A      0.590098
      49A      0.605565    50A      0.607362    51A      0.629726
      52A      0.639818    53A      0.650978    54A      0.668456
      55A      0.688957    56A      0.726121    57A      0.744544
      58A      0.758219    59A      0.811515    60A      0.823814
      61A      0.829221    62A      0.848615    63A      0.852457
      64A      0.861861    65A      0.870064    66A      0.877293
      67A      0.888974    68A      0.894566    69A      0.903801
      70A      0.916532    71A      0.919960    72A      0.930038
      73A      0.946772    74A      0.954916    75A      0.991749
      76A      1.026279    77A      1.078290    78A      1.126197
      79A      1.147276    80A      1.163551    81A      1.180696
      82A      1.204405    83A      1.284682    84A      1.312270
      85A      1.323735    86A      1.335184    87A      1.384222
      88A      1.403454    89A      1.451740    90A      1.490126
      91A      1.503616    92A      1.526106    93A      1.599386
      94A      1.654156    95A      1.659195    96A      1.670394
      97A      1.685407    98A      1.707061    99A      1.776648
     100A      1.830816   101A      1.847290   102A      1.865172
     103A      1.874601   104A      1.891903   105A      1.908357
     106A      1.911536   107A      1.928183   108A      1.930940
     109A      1.952106   110A      1.980707   111A      1.997578
     112A      2.035497   113A      2.050311   114A      2.062990
     115A      2.084994   116A      2.110180   117A      2.155571
     118A      2.160022   119A      2.205689   120A      2.269895
     121A      2.297749   122A      2.310359   123A      2.337648
     124A      2.351949   125A      2.374368   126A      2.380917
     127A      2.401277   128A      2.466502   129A      2.476112
     130A      2.500790   131A      2.617004   132A      2.640152
     133A      2.726627   134A      2.742415   135A      2.771126
     136A      2.775613   137A      2.800038   138A      2.804179
     139A      2.814591   140A      2.871485   141A      2.875801
     142A      2.908807   143A      3.109600   144A      3.304644
     145A      3.372676   146A      3.452517   147A      3.589743
     148A      4.089337

    Final Occupation by Irrep:
              A
    DOCC [    30 ]

  @RHF Final Energy:  -630.81743257331539

   => Energetics <=

    Nuclear Repulsion Energy =            304.9922227886506789
    One-Electron Energy =               -1472.3986897435449919
    Two-Electron Energy =                 536.5890343815789265
    Total Energy =                       -630.8174325733153864

Computation Completed

Properties will be evaluated at   0.000000,   0.000000,   0.000000 [a0]

Properties computed using the SCF density matrix

  Nuclear Dipole Moment: [e a0]
     X:    -0.0615      Y:     2.7338      Z:    -6.1905

  Electronic Dipole Moment: [e a0]
     X:    -0.4005      Y:    -2.7381      Z:     5.7055

  Dipole Moment: [e a0]
     X:    -0.4620      Y:    -0.0043      Z:    -0.4851     Total:     0.6699

  Dipole Moment: [D]
     X:    -1.1743      Y:    -0.0110      Z:    -1.2329     Total:     1.7027

*** tstop() called on ds3 at Sun Apr 26 18:50:22 2020
Module time:
	user time   =      27.06 seconds =       0.45 minutes
	system time =       8.61 seconds =       0.14 minutes
	total time  =         35 seconds =       0.58 minutes
Total time:
	user time   =      27.06 seconds =       0.45 minutes
	system time =       8.61 seconds =       0.14 minutes
	total time  =         35 seconds =       0.58 minutes
                                     G D M A

                                 by Anthony Stone

                           version 2.2.06, 22 June 2011

               Distributed Multipoles from Gaussian wavefunctions

Starting at 18:50:22 on 26 Apr 2020

Using SCF density matrix from file ./SSI/SSI-083THR-086MET-1-dimer.test.19840.fchk

                         Distributed Multipole Analysis

Standard DMA

Positions and radii in angstrom
Multipole moments in atomic units, ea_0^k for rank k

C          x = -3.361625  y =  1.110676  z = -1.176831 angstrom
           Maximum rank =  0   Radius =  0.650 angstrom
                   Q00  =  -0.055574

O          x = -2.223625  y =  1.103676  z = -0.334831 angstrom
           Maximum rank =  0   Radius =  0.650 angstrom
                   Q00  =  -0.563814

H          x = -2.471625  y =  0.669676  z =  0.496169 angstrom
           Maximum rank =  0   Radius =  0.325 angstrom
                   Q00  =   0.389828

H          x = -3.987625  y =  1.951676  z = -0.892831 angstrom
           Maximum rank =  0   Radius =  0.325 angstrom
                   Q00  =   0.083677

H          x = -3.053705  y =  1.214266  z = -2.227761 angstrom
           Maximum rank =  0   Radius =  0.325 angstrom
                   Q00  =   0.109862

H          x = -3.939075  y =  0.188066  z = -1.017635 angstrom
           Maximum rank =  0   Radius =  0.325 angstrom
                   Q00  =   0.067443

C          x =  0.351375  y = -0.247324  z = -0.528831 angstrom
           Maximum rank =  0   Radius =  0.650 angstrom
                   Q00  =  -0.176471

C          x =  1.282375  y =  0.823676  z = -1.070831 angstrom
           Maximum rank =  0   Radius =  0.650 angstrom
                   Q00  =  -0.221853

C          x =  2.584375  y = -0.971324  z =  0.915169 angstrom
           Maximum rank =  0   Radius =  0.650 angstrom
                   Q00  =  -0.363479

S          x =  0.793375  y = -0.913324  z =  1.075169 angstrom
           Maximum rank =  0   Radius =  0.650 angstrom
                   Q00  =   0.075255

H          x = -0.675625  y = -0.216324  z = -0.749831 angstrom
           Maximum rank =  0   Radius =  0.325 angstrom
                   Q00  =   0.110499

H          x =  0.586375  y = -1.089324  z = -1.182831 angstrom
           Maximum rank =  0   Radius =  0.325 angstrom
                   Q00  =   0.003730

H          x =  0.864375  y =  1.152676  z = -2.021831 angstrom
           Maximum rank =  0   Radius =  0.325 angstrom
                   Q00  =   0.090126

H          x =  2.241375  y =  0.369676  z = -1.318831 angstrom
           Maximum rank =  0   Radius =  0.325 angstrom
                   Q00  =   0.076259

H          x =  3.032375  y = -0.003324  z =  0.706169 angstrom
           Maximum rank =  0   Radius =  0.325 angstrom
                   Q00  =   0.093449

H          x =  2.999375  y = -1.306324  z =  1.856169 angstrom
           Maximum rank =  0   Radius =  0.325 angstrom
                   Q00  =   0.118344

H          x =  2.861375  y = -1.693324  z =  0.151169 angstrom
           Maximum rank =  0   Radius =  0.325 angstrom
                   Q00  =   0.077567

H          x =  1.465855  y =  1.698776  z = -0.430096 angstrom
           Maximum rank =  0   Radius =  0.325 angstrom
                   Q00  =   0.085151

Total multipoles referred to origin at
           x =   0.000000,  y =    0.000000,  z =    0.000000 angstrom
                   Q00  =  -0.000000

Finished at 18:50:22 on 26 Apr 2020

  DMA results are available in the Python driver through the
	  variable('DMA DISTRIBUTED MULTIPOLES')
  and
	  variable('DMA TOTAL MULTIPOLES')
  commands.

    Psi4 stopped on: Sunday, 26 April 2020 06:50PM
    Psi4 wall time for execution: 0:00:35.31

*** Psi4 exiting successfully. Buy a developer a beer!
