                               Psi4 1.3.2 release

  ==> Input File <==

--------------------------------------------------------------------------
import numpy as np
set {scf_type pk
basis cc-pvdz
d_convergence 10
gdma_switch   0
gdma_limit    0
gdma_origin   [ 0.0,  0.0,  0.0 ]
}
molecule test {
    units Angstrom
    0 1
    --
    0 1
    C                0.861009567528708    -1.240026788305570     1.103926481927069
    C                1.499009567528708    -0.174026788305570     1.976926481927069
    H                1.582009567528708    -1.632026788305570     0.387926481927069
    H                0.551009567528708    -2.058026788305570     1.747926481927069
    H               -0.007990432471292    -0.843026788305570     0.585926481927069
    H                2.211009567528708    -0.638026788305570     2.647926481927070
    H                2.017289567528708     0.571403211694430     1.355856481927070
    H                0.736279567528708     0.335663211694430     2.583937481927069
    C               -0.903990432471292     0.080973211694430    -1.875073518072931
    C               -1.458990432471292     1.336973211694430    -1.210073518072931
    H                0.146009567528708    -0.050026788305570    -1.615073518072931
    H               -1.463990432471292    -0.793026788305570    -1.543073518072930
    H               -0.988990432471292     0.164973211694430    -2.959073518072930
    H               -1.428990432471293     1.190973211694430    -0.134073518072931
    H               -0.821670432471292     2.192953211694430    -1.476763518072931
    H               -2.496710432471293     1.511843211694430    -1.530313518072931

}
e, wfn = energy('scf', return_wfn=True)
gdma(wfn)
dmavals = variable('DMA DISTRIBUTED MULTIPOLES')
charges = np.array(dmavals)
print(charges)
np.save('SSI-030LEU-034LEU-1-dimer.npy', np.array(charges))--------------------------------------------------------------------------

*** tstart() called on ds3
*** at Mon Apr 27 16:40:09 2020

   => Loading Basis Set <=

    Name: CC-PVDZ
    Role: ORBITAL
    Keyword: BASIS
    atoms 1-2, 9-10  entry C          line   138 file /theoryfs2/ds/metcalf/miniconda2/envs/tf2gpu/share/psi4/basis/cc-pvdz.gbs
    atoms 3-8, 11-16 entry H          line    22 file /theoryfs2/ds/metcalf/miniconda2/envs/tf2gpu/share/psi4/basis/cc-pvdz.gbs

         ---------------------------------------------------------
                                   SCF
               by Justin Turney, Rob Parrish, Andy Simmonett
                          and Daniel G. A. Smith
                              RHF Reference
                        1 Threads,    500 MiB Core
         ---------------------------------------------------------

  ==> Geometry <==

    Molecular point group: c1
    Full point group: C1

    Geometry (in Angstrom), charge = 0, multiplicity = 1:

       Center              X                  Y                   Z               Mass
    ------------   -----------------  -----------------  -----------------  -----------------
         C            0.861009567529    -1.240026788306     1.103926481927    12.000000000000
         C            1.499009567529    -0.174026788306     1.976926481927    12.000000000000
         H            1.582009567529    -1.632026788306     0.387926481927     1.007825032230
         H            0.551009567529    -2.058026788306     1.747926481927     1.007825032230
         H           -0.007990432471    -0.843026788306     0.585926481927     1.007825032230
         H            2.211009567529    -0.638026788306     2.647926481927     1.007825032230
         H            2.017289567529     0.571403211694     1.355856481927     1.007825032230
         H            0.736279567529     0.335663211694     2.583937481927     1.007825032230
         C           -0.903990432471     0.080973211694    -1.875073518073    12.000000000000
         C           -1.458990432471     1.336973211694    -1.210073518073    12.000000000000
         H            0.146009567529    -0.050026788306    -1.615073518073     1.007825032230
         H           -1.463990432471    -0.793026788306    -1.543073518073     1.007825032230
         H           -0.988990432471     0.164973211694    -2.959073518073     1.007825032230
         H           -1.428990432471     1.190973211694    -0.134073518073     1.007825032230
         H           -0.821670432471     2.192953211694    -1.476763518073     1.007825032230
         H           -2.496710432471     1.511843211694    -1.530313518073     1.007825032230

  Running in c1 symmetry.

  Rotational constants: A =      0.36880  B =      0.06104  C =      0.05548 [cm^-1]
  Rotational constants: A =  11056.35022  B =   1830.02645  C =   1663.35050 [MHz]
  Nuclear repulsion =  125.252635207311954

  Charge       = 0
  Multiplicity = 1
  Electrons    = 36
  Nalpha       = 18
  Nbeta        = 18

  ==> Algorithm <==

  SCF Algorithm Type is PK.
  DIIS enabled.
  MOM disabled.
  Fractional occupation disabled.
  Guess Type is SAD.
  Energy threshold   = 1.00e-06
  Density threshold  = 1.00e-10
  Integral threshold = 0.00e+00

  ==> Primary Basis <==

  Basis Set: CC-PVDZ
    Blend: CC-PVDZ
    Number of shells: 60
    Number of basis function: 116
    Number of Cartesian functions: 120
    Spherical Harmonics?: true
    Max angular momentum: 2

  ==> Pre-Iterations <==

   -------------------------------------------------------
    Irrep   Nso     Nmo     Nalpha   Nbeta   Ndocc  Nsocc
   -------------------------------------------------------
     A        116     116       0       0       0       0
   -------------------------------------------------------
    Total     116     116      18      18      18       0
   -------------------------------------------------------

  ==> Integral Setup <==

  Using integral reordering PK algorithm.
  Sizing the integral batches needed.
  Building batch lookup table.
   Calculation information:
      Number of atoms:                  16
      Number of AO shells:              60
      Number of primitives:            148
      Number of atomic orbitals:       120
      Number of basis functions:       116

      Integral cutoff                 1.00e-12
      Number of threads:                 1

	Batch   1 pq = [       0,    6786] index = [             0,23028291] size =     23028291
  Task number: 3
  Buffer size: 11059200
  Buffer per thread: 2
  We computed 1536440 shell quartets total.
  Whereas there are 1675365 unique shell quartets.

  ==> DiskJK: Disk-Based J/K Matrices <==

    J tasked:                  Yes
    K tasked:                  Yes
    wK tasked:                  No
    Memory [MiB]:              375
    Schwarz Cutoff:          1E-12

    OpenMP threads:              1

  Minimum eigenvalue in the overlap matrix is 7.4343544796E-03.
  Using Symmetric Orthogonalization.

  SCF Guess: Superposition of Atomic Densities via on-the-fly atomic UHF.

  ==> Iterations <==

                        Total Energy        Delta E     RMS |[F,P]|

   @RHF iter SAD:  -157.39464340575839   -1.57395e+02   0.00000e+00
   @RHF iter   1:  -158.30500666646995   -9.10363e-01   4.23484e-03 DIIS
   @RHF iter   2:  -158.43957244309755   -1.34566e-01   1.80427e-03 DIIS
   @RHF iter   3:  -158.46317205268343   -2.35996e-02   3.51799e-04 DIIS
   @RHF iter   4:  -158.46502316395842   -1.85111e-03   3.93399e-05 DIIS
   @RHF iter   5:  -158.46504743421792   -2.42703e-05   6.86762e-06 DIIS
   @RHF iter   6:  -158.46504811657283   -6.82355e-07   1.22201e-06 DIIS
   @RHF iter   7:  -158.46504813111130   -1.45385e-08   3.19339e-07 DIIS
   @RHF iter   8:  -158.46504813203410   -9.22796e-10   3.86827e-08 DIIS
   @RHF iter   9:  -158.46504813205627   -2.21689e-11   8.15554e-09 DIIS
   @RHF iter  10:  -158.46504813205735   -1.08002e-12   1.75819e-09 DIIS
   @RHF iter  11:  -158.46504813205732    2.84217e-14   3.88952e-10 DIIS
   @RHF iter  12:  -158.46504813205729    2.84217e-14   1.19448e-10 DIIS
   @RHF iter  13:  -158.46504813205706    2.27374e-13   2.26256e-11 DIIS
  Energy and wave function converged.

  ==> Post-Iterations <==

    Orbital Energies [Eh]
    ---------------------

    Doubly Occupied:

       1A    -11.219372     2A    -11.217486     3A    -11.215996
       4A    -11.214485     5A     -1.022798     6A     -1.018870
       7A     -0.838566     8A     -0.834248     9A     -0.610837
      10A     -0.600783    11A     -0.597052    12A     -0.591993
      13A     -0.504257    14A     -0.498343    15A     -0.489658
      16A     -0.486718    17A     -0.483900    18A     -0.480836

    Virtual:

      19A      0.167052    20A      0.206029    21A      0.218471
      22A      0.229988    23A      0.249662    24A      0.256973
      25A      0.266083    26A      0.276013    27A      0.283136
      28A      0.296421    29A      0.305407    30A      0.359799
      31A      0.395433    32A      0.399734    33A      0.583751
      34A      0.592782    35A      0.598664    36A      0.612754
      37A      0.614882    38A      0.653556    39A      0.654994
      40A      0.691114    41A      0.692125    42A      0.811901
      43A      0.844481    44A      0.852343    45A      0.878657
      46A      0.881465    47A      0.886380    48A      0.896658
      49A      0.904527    50A      0.908466    51A      0.919713
      52A      0.932966    53A      0.949182    54A      0.970053
      55A      0.982633    56A      1.037949    57A      1.120417
      58A      1.125558    59A      1.127617    60A      1.144778
      61A      1.236576    62A      1.273914    63A      1.473833
      64A      1.477070    65A      1.488218    66A      1.492987
      67A      1.559656    68A      1.587867    69A      1.676822
      70A      1.687373    71A      1.695654    72A      1.713762
      73A      1.848170    74A      1.861730    75A      1.872356
      76A      1.883121    77A      1.899714    78A      1.903882
      79A      1.933479    80A      1.943821    81A      1.948778
      82A      1.950877    83A      1.953474    84A      1.960243
      85A      1.964638    86A      1.978969    87A      1.988685
      88A      2.022407    89A      2.103517    90A      2.114127
      91A      2.126377    92A      2.166557    93A      2.285830
      94A      2.304862    95A      2.314465    96A      2.321283
      97A      2.452915    98A      2.457190    99A      2.461775
     100A      2.466347   101A      2.562714   102A      2.571987
     103A      2.587195   104A      2.595157   105A      2.764415
     106A      2.767405   107A      2.794654   108A      2.802978
     109A      2.844119   110A      2.847362   111A      2.856367
     112A      2.876194   113A      2.940444   114A      2.950839
     115A      2.994146   116A      2.998337

    Final Occupation by Irrep:
              A
    DOCC [    18 ]

  @RHF Final Energy:  -158.46504813205706

   => Energetics <=

    Nuclear Repulsion Energy =            125.2526352073119540
    One-Electron Energy =                -459.5829660074473395
    Two-Electron Energy =                 175.8652826680782937
    Total Energy =                       -158.4650481320570634

Computation Completed

Properties will be evaluated at   0.000000,   0.000000,   0.000000 [a0]

Properties computed using the SCF density matrix

  Nuclear Dipole Moment: [e a0]
     X:     0.0331      Y:    -0.0435      Z:     0.0479

  Electronic Dipole Moment: [e a0]
     X:    -0.0316      Y:     0.0249      Z:    -0.0503

  Dipole Moment: [e a0]
     X:     0.0015      Y:    -0.0185      Z:    -0.0024     Total:     0.0187

  Dipole Moment: [D]
     X:     0.0037      Y:    -0.0470      Z:    -0.0060     Total:     0.0476

*** tstop() called on ds3 at Mon Apr 27 16:40:24 2020
Module time:
	user time   =      10.70 seconds =       0.18 minutes
	system time =       4.05 seconds =       0.07 minutes
	total time  =         15 seconds =       0.25 minutes
Total time:
	user time   =      10.70 seconds =       0.18 minutes
	system time =       4.05 seconds =       0.07 minutes
	total time  =         15 seconds =       0.25 minutes
                                     G D M A

                                 by Anthony Stone

                           version 2.2.06, 22 June 2011

               Distributed Multipoles from Gaussian wavefunctions

Starting at 16:40:24 on 27 Apr 2020

Using SCF density matrix from file ./SSI/SSI-030LEU-034LEU-1-dimer.test.27643.fchk

                         Distributed Multipole Analysis

Standard DMA

Positions and radii in angstrom
Multipole moments in atomic units, ea_0^k for rank k

C          x =  0.861010  y = -1.240027  z =  1.103926 angstrom
           Maximum rank =  0   Radius =  0.650 angstrom
                   Q00  =  -0.238886

C          x =  1.499010  y = -0.174027  z =  1.976926 angstrom
           Maximum rank =  0   Radius =  0.650 angstrom
                   Q00  =  -0.230269

H          x =  1.582010  y = -1.632027  z =  0.387926 angstrom
           Maximum rank =  0   Radius =  0.325 angstrom
                   Q00  =   0.078551

H          x =  0.551010  y = -2.058027  z =  1.747926 angstrom
           Maximum rank =  0   Radius =  0.325 angstrom
                   Q00  =   0.075283

H          x = -0.007990  y = -0.843027  z =  0.585926 angstrom
           Maximum rank =  0   Radius =  0.325 angstrom
                   Q00  =   0.082862

H          x =  2.211010  y = -0.638027  z =  2.647926 angstrom
           Maximum rank =  0   Radius =  0.325 angstrom
                   Q00  =   0.079542

H          x =  2.017290  y =  0.571403  z =  1.355856 angstrom
           Maximum rank =  0   Radius =  0.325 angstrom
                   Q00  =   0.075178

H          x =  0.736280  y =  0.335663  z =  2.583937 angstrom
           Maximum rank =  0   Radius =  0.325 angstrom
                   Q00  =   0.076356

C          x = -0.903990  y =  0.080973  z = -1.875074 angstrom
           Maximum rank =  0   Radius =  0.650 angstrom
                   Q00  =  -0.238557

C          x = -1.458990  y =  1.336973  z = -1.210074 angstrom
           Maximum rank =  0   Radius =  0.650 angstrom
                   Q00  =  -0.232273

H          x =  0.146010  y = -0.050027  z = -1.615074 angstrom
           Maximum rank =  0   Radius =  0.325 angstrom
                   Q00  =   0.080869

H          x = -1.463990  y = -0.793027  z = -1.543074 angstrom
           Maximum rank =  0   Radius =  0.325 angstrom
                   Q00  =   0.077007

H          x = -0.988990  y =  0.164973  z = -2.959074 angstrom
           Maximum rank =  0   Radius =  0.325 angstrom
                   Q00  =   0.078737

H          x = -1.428990  y =  1.190973  z = -0.134074 angstrom
           Maximum rank =  0   Radius =  0.325 angstrom
                   Q00  =   0.077015

H          x = -0.821670  y =  2.192953  z = -1.476764 angstrom
           Maximum rank =  0   Radius =  0.325 angstrom
                   Q00  =   0.078372

H          x = -2.496710  y =  1.511843  z = -1.530314 angstrom
           Maximum rank =  0   Radius =  0.325 angstrom
                   Q00  =   0.080214

Total multipoles referred to origin at
           x =   0.000000,  y =    0.000000,  z =    0.000000 angstrom
                   Q00  =  -0.000000

Finished at 16:40:24 on 27 Apr 2020

  DMA results are available in the Python driver through the
	  variable('DMA DISTRIBUTED MULTIPOLES')
  and
	  variable('DMA TOTAL MULTIPOLES')
  commands.

    Psi4 stopped on: Monday, 27 April 2020 04:40PM
    Psi4 wall time for execution: 0:00:14.69

*** Psi4 exiting successfully. Buy a developer a beer!
