                               Psi4 1.3.2 release

  ==> Input File <==

--------------------------------------------------------------------------
import numpy as np
set {scf_type pk
basis cc-pvdz
d_convergence 10
gdma_switch   0
gdma_limit    0
gdma_origin   [ 0.0,  0.0,  0.0 ]
}
molecule test {
    units Angstrom
    0 1
    --
    0 1
    C               -0.190336369812620    -0.927057406576426    -1.710414105517126
    C                1.042663630187380    -0.255057406576427    -2.319414105517127
    H               -0.614336369812620    -1.650057406576427    -2.409414105517126
    H                0.093663630187380    -1.451057406576427    -0.799414105517127
    H               -0.949336369812619    -0.190057406576427    -1.442414105517127
    H                1.376663630187381     0.538942593423574    -1.652414105517127
    H                0.794753630187380     0.166675593423573    -3.304646105517126
    H                1.849993630187380    -0.996243406576427    -2.413590105517126
    C                0.185663630187380     0.573942593423573     1.555585894482874
    C               -1.038336369812620     0.607942593423574     2.472585894482874
    H                0.399663630187380    -0.450057406576427     1.251585894482873
    H               -0.003336369812620     1.183942593423573     0.670585894482873
    H                1.059663630187381     0.984942593423573     2.057585894482874
    H               -1.152336369812620     1.619942593423573     2.862585894482873
    H               -0.914936369812619    -0.099642406576427     3.305705894482874
    H               -1.936006369812619     0.345403593423573     1.893565894482873

}
e, wfn = energy('scf', return_wfn=True)
gdma(wfn)
dmavals = variable('DMA DISTRIBUTED MULTIPOLES')
charges = np.array(dmavals)
print(charges)
np.save('SSI-122VAL-143VAL-1-dimer.npy', np.array(charges))--------------------------------------------------------------------------

*** tstart() called on ds3
*** at Sun Apr 26 21:36:25 2020

   => Loading Basis Set <=

    Name: CC-PVDZ
    Role: ORBITAL
    Keyword: BASIS
    atoms 1-2, 9-10  entry C          line   138 file /theoryfs2/ds/metcalf/miniconda2/envs/tf2gpu/share/psi4/basis/cc-pvdz.gbs
    atoms 3-8, 11-16 entry H          line    22 file /theoryfs2/ds/metcalf/miniconda2/envs/tf2gpu/share/psi4/basis/cc-pvdz.gbs

         ---------------------------------------------------------
                                   SCF
               by Justin Turney, Rob Parrish, Andy Simmonett
                          and Daniel G. A. Smith
                              RHF Reference
                        1 Threads,    500 MiB Core
         ---------------------------------------------------------

  ==> Geometry <==

    Molecular point group: c1
    Full point group: C1

    Geometry (in Angstrom), charge = 0, multiplicity = 1:

       Center              X                  Y                   Z               Mass
    ------------   -----------------  -----------------  -----------------  -----------------
         C           -0.190336369813    -0.927057406576    -1.710414105517    12.000000000000
         C            1.042663630187    -0.255057406576    -2.319414105517    12.000000000000
         H           -0.614336369813    -1.650057406576    -2.409414105517     1.007825032230
         H            0.093663630187    -1.451057406576    -0.799414105517     1.007825032230
         H           -0.949336369813    -0.190057406576    -1.442414105517     1.007825032230
         H            1.376663630187     0.538942593424    -1.652414105517     1.007825032230
         H            0.794753630187     0.166675593424    -3.304646105517     1.007825032230
         H            1.849993630187    -0.996243406576    -2.413590105517     1.007825032230
         C            0.185663630187     0.573942593424     1.555585894483    12.000000000000
         C           -1.038336369813     0.607942593424     2.472585894483    12.000000000000
         H            0.399663630187    -0.450057406576     1.251585894483     1.007825032230
         H           -0.003336369813     1.183942593424     0.670585894483     1.007825032230
         H            1.059663630187     0.984942593424     2.057585894483     1.007825032230
         H           -1.152336369813     1.619942593424     2.862585894483     1.007825032230
         H           -0.914936369813    -0.099642406576     3.305705894483     1.007825032230
         H           -1.936006369813     0.345403593424     1.893565894483     1.007825032230

  Running in c1 symmetry.

  Rotational constants: A =      0.46718  B =      0.05561  C =      0.05193 [cm^-1]
  Rotational constants: A =  14005.67426  B =   1667.10744  C =   1556.87101 [MHz]
  Nuclear repulsion =  124.431154033672826

  Charge       = 0
  Multiplicity = 1
  Electrons    = 36
  Nalpha       = 18
  Nbeta        = 18

  ==> Algorithm <==

  SCF Algorithm Type is PK.
  DIIS enabled.
  MOM disabled.
  Fractional occupation disabled.
  Guess Type is SAD.
  Energy threshold   = 1.00e-06
  Density threshold  = 1.00e-10
  Integral threshold = 0.00e+00

  ==> Primary Basis <==

  Basis Set: CC-PVDZ
    Blend: CC-PVDZ
    Number of shells: 60
    Number of basis function: 116
    Number of Cartesian functions: 120
    Spherical Harmonics?: true
    Max angular momentum: 2

  ==> Pre-Iterations <==

   -------------------------------------------------------
    Irrep   Nso     Nmo     Nalpha   Nbeta   Ndocc  Nsocc
   -------------------------------------------------------
     A        116     116       0       0       0       0
   -------------------------------------------------------
    Total     116     116      18      18      18       0
   -------------------------------------------------------

  ==> Integral Setup <==

  Using integral reordering PK algorithm.
  Sizing the integral batches needed.
  Building batch lookup table.
   Calculation information:
      Number of atoms:                  16
      Number of AO shells:              60
      Number of primitives:            148
      Number of atomic orbitals:       120
      Number of basis functions:       116

      Integral cutoff                 1.00e-12
      Number of threads:                 1

	Batch   1 pq = [       0,    6786] index = [             0,23028291] size =     23028291
  Task number: 3
  Buffer size: 11059200
  Buffer per thread: 2
  We computed 1516545 shell quartets total.
  Whereas there are 1675365 unique shell quartets.

  ==> DiskJK: Disk-Based J/K Matrices <==

    J tasked:                  Yes
    K tasked:                  Yes
    wK tasked:                  No
    Memory [MiB]:              375
    Schwarz Cutoff:          1E-12

    OpenMP threads:              1

  Minimum eigenvalue in the overlap matrix is 7.4461654195E-03.
  Using Symmetric Orthogonalization.

  SCF Guess: Superposition of Atomic Densities via on-the-fly atomic UHF.

  ==> Iterations <==

                        Total Energy        Delta E     RMS |[F,P]|

   @RHF iter SAD:  -157.35258243011521   -1.57353e+02   0.00000e+00
   @RHF iter   1:  -158.30714658917429   -9.54564e-01   4.20708e-03 DIIS
   @RHF iter   2:  -158.44067460498044   -1.33528e-01   1.78987e-03 DIIS
   @RHF iter   3:  -158.46394861908547   -2.32740e-02   3.49097e-04 DIIS
   @RHF iter   4:  -158.46576998339418   -1.82136e-03   3.79698e-05 DIIS
   @RHF iter   5:  -158.46579262312534   -2.26397e-05   6.01535e-06 DIIS
   @RHF iter   6:  -158.46579318566927   -5.62544e-07   6.58572e-07 DIIS
   @RHF iter   7:  -158.46579319187182   -6.20255e-09   9.46905e-08 DIIS
   @RHF iter   8:  -158.46579319198142   -1.09594e-10   2.70196e-08 DIIS
   @RHF iter   9:  -158.46579319198906   -7.64544e-12   6.66175e-09 DIIS
   @RHF iter  10:  -158.46579319199054   -1.47793e-12   1.76457e-09 DIIS
   @RHF iter  11:  -158.46579319198995    5.96856e-13   3.57645e-10 DIIS
   @RHF iter  12:  -158.46579319198963    3.12639e-13   6.94927e-11 DIIS
  Energy and wave function converged.

  ==> Post-Iterations <==

    Orbital Energies [Eh]
    ---------------------

    Doubly Occupied:

       1A    -11.219834     2A    -11.219100     3A    -11.216536
       4A    -11.216070     5A     -1.019675     6A     -1.015798
       7A     -0.838397     8A     -0.834719     9A     -0.604688
      10A     -0.601442    11A     -0.594433    12A     -0.591411
      13A     -0.500712    14A     -0.498223    15A     -0.492533
      16A     -0.486314    17A     -0.483716    18A     -0.479375

    Virtual:

      19A      0.171667    20A      0.198405    21A      0.226495
      22A      0.228971    23A      0.242059    24A      0.253663
      25A      0.264579    26A      0.276751    27A      0.284400
      28A      0.297207    29A      0.318920    30A      0.373671
      31A      0.389147    32A      0.408935    33A      0.565695
      34A      0.587622    35A      0.595642    36A      0.604313
      37A      0.615847    38A      0.634048    39A      0.663473
      40A      0.681333    41A      0.689915    42A      0.823529
      43A      0.837891    44A      0.852126    45A      0.882919
      46A      0.890869    47A      0.891896    48A      0.899052
      49A      0.901377    50A      0.908744    51A      0.917764
      52A      0.929984    53A      0.943364    54A      0.962421
      55A      0.980886    56A      0.985466    57A      1.122072
      58A      1.123887    59A      1.129411    60A      1.161606
      61A      1.215889    62A      1.264122    63A      1.475385
      64A      1.477472    65A      1.477998    66A      1.484531
      67A      1.544918    68A      1.615638    69A      1.676465
      70A      1.682323    71A      1.685760    72A      1.725500
      73A      1.856805    74A      1.860387    75A      1.871968
      76A      1.882747    77A      1.900250    78A      1.914034
      79A      1.938824    80A      1.940819    81A      1.944838
      82A      1.946852    83A      1.952110    84A      1.953621
      85A      1.960108    86A      1.966572    87A      1.974242
      88A      2.036401    89A      2.108416    90A      2.110737
      91A      2.118704    92A      2.128349    93A      2.288852
      94A      2.296245    95A      2.317642    96A      2.324468
      97A      2.444822    98A      2.449154    99A      2.457714
     100A      2.470988   101A      2.560758   102A      2.571676
     103A      2.576233   104A      2.580406   105A      2.760407
     106A      2.766542   107A      2.783918   108A      2.799707
     109A      2.844100   110A      2.846134   111A      2.856629
     112A      2.858748   113A      2.935687   114A      2.956751
     115A      2.967631   116A      2.983939

    Final Occupation by Irrep:
              A
    DOCC [    18 ]

  @RHF Final Energy:  -158.46579319198963

   => Energetics <=

    Nuclear Repulsion Energy =            124.4311540336728257
    One-Electron Energy =                -457.9679468460931844
    Two-Electron Energy =                 175.0709996204307117
    Total Energy =                       -158.4657931919896328

Computation Completed

Properties will be evaluated at   0.000000,   0.000000,   0.000000 [a0]

Properties computed using the SCF density matrix

  Nuclear Dipole Moment: [e a0]
     X:     0.0039      Y:     0.0026      Z:     0.0185

  Electronic Dipole Moment: [e a0]
     X:     0.0015      Y:     0.0016      Z:    -0.0061

  Dipole Moment: [e a0]
     X:     0.0054      Y:     0.0041      Z:     0.0124     Total:     0.0141

  Dipole Moment: [D]
     X:     0.0136      Y:     0.0105      Z:     0.0315     Total:     0.0359

*** tstop() called on ds3 at Sun Apr 26 21:36:37 2020
Module time:
	user time   =       8.64 seconds =       0.14 minutes
	system time =       2.78 seconds =       0.05 minutes
	total time  =         12 seconds =       0.20 minutes
Total time:
	user time   =       8.64 seconds =       0.14 minutes
	system time =       2.78 seconds =       0.05 minutes
	total time  =         12 seconds =       0.20 minutes
                                     G D M A

                                 by Anthony Stone

                           version 2.2.06, 22 June 2011

               Distributed Multipoles from Gaussian wavefunctions

Starting at 21:36:37 on 26 Apr 2020

Using SCF density matrix from file ./SSI/SSI-122VAL-143VAL-1-dimer.test.1630.fchk

                         Distributed Multipole Analysis

Standard DMA

Positions and radii in angstrom
Multipole moments in atomic units, ea_0^k for rank k

C          x = -0.190336  y = -0.927057  z = -1.710414 angstrom
           Maximum rank =  0   Radius =  0.650 angstrom
                   Q00  =  -0.226776

C          x =  1.042664  y = -0.255057  z = -2.319414 angstrom
           Maximum rank =  0   Radius =  0.650 angstrom
                   Q00  =  -0.245305

H          x = -0.614336  y = -1.650057  z = -2.409414 angstrom
           Maximum rank =  0   Radius =  0.325 angstrom
                   Q00  =   0.078372

H          x =  0.093664  y = -1.451057  z = -0.799414 angstrom
           Maximum rank =  0   Radius =  0.325 angstrom
                   Q00  =   0.077582

H          x = -0.949336  y = -0.190057  z = -1.442414 angstrom
           Maximum rank =  0   Radius =  0.325 angstrom
                   Q00  =   0.078210

H          x =  1.376664  y =  0.538943  z = -1.652414 angstrom
           Maximum rank =  0   Radius =  0.325 angstrom
                   Q00  =   0.080690

H          x =  0.794754  y =  0.166676  z = -3.304646 angstrom
           Maximum rank =  0   Radius =  0.325 angstrom
                   Q00  =   0.079188

H          x =  1.849994  y = -0.996243  z = -2.413590 angstrom
           Maximum rank =  0   Radius =  0.325 angstrom
                   Q00  =   0.078412

C          x =  0.185664  y =  0.573943  z =  1.555586 angstrom
           Maximum rank =  0   Radius =  0.650 angstrom
                   Q00  =  -0.234368

C          x = -1.038336  y =  0.607943  z =  2.472586 angstrom
           Maximum rank =  0   Radius =  0.650 angstrom
                   Q00  =  -0.239024

H          x =  0.399664  y = -0.450057  z =  1.251586 angstrom
           Maximum rank =  0   Radius =  0.325 angstrom
                   Q00  =   0.080122

H          x = -0.003336  y =  1.183943  z =  0.670586 angstrom
           Maximum rank =  0   Radius =  0.325 angstrom
                   Q00  =   0.077103

H          x =  1.059664  y =  0.984943  z =  2.057586 angstrom
           Maximum rank =  0   Radius =  0.325 angstrom
                   Q00  =   0.078581

H          x = -1.152336  y =  1.619943  z =  2.862586 angstrom
           Maximum rank =  0   Radius =  0.325 angstrom
                   Q00  =   0.079309

H          x = -0.914936  y = -0.099642  z =  3.305706 angstrom
           Maximum rank =  0   Radius =  0.325 angstrom
                   Q00  =   0.079672

H          x = -1.936006  y =  0.345404  z =  1.893566 angstrom
           Maximum rank =  0   Radius =  0.325 angstrom
                   Q00  =   0.078232

Total multipoles referred to origin at
           x =   0.000000,  y =    0.000000,  z =    0.000000 angstrom
                   Q00  =  -0.000000

Finished at 21:36:37 on 26 Apr 2020

  DMA results are available in the Python driver through the
	  variable('DMA DISTRIBUTED MULTIPOLES')
  and
	  variable('DMA TOTAL MULTIPOLES')
  commands.

    Psi4 stopped on: Sunday, 26 April 2020 09:36PM
    Psi4 wall time for execution: 0:00:11.50

*** Psi4 exiting successfully. Buy a developer a beer!
