                               Psi4 1.3.2 release

  ==> Input File <==

--------------------------------------------------------------------------
import numpy as np
set {scf_type pk
basis cc-pvdz
d_convergence 10
gdma_switch   0
gdma_limit    0
gdma_origin   [ 0.0,  0.0,  0.0 ]
}
molecule test {
    units Angstrom
    -1 1
    --
    -1 1
    C                0.369515104211496     2.380244912619399    -0.037654027400078
    C                0.070515104211496     3.501244912619399     0.945345972599922
    C               -0.284484895788504     2.616244912619399    -1.371654027400078
    O               -1.497484895788504     2.901244912619399    -1.431654027400078
    O                0.425515104211496     2.531244912619399    -2.379654027400079
    H                1.433515104211496     2.256244912619399    -0.183654027400078
    H                0.005515104211496     1.440244912619399     0.367345972599922
    H                0.070515104211496     4.454244912619399     0.416345972599922
    H                0.871226104211496     3.514994912619399     1.699445972599922
    H               -0.906047895788504     3.337044912619399     1.424265972599922
    C               -2.385484895788504    -2.105755087380601    -0.911654027400078
    C               -0.970484895788504    -1.059755087380601     0.892345972599922
    C               -1.091484895788504    -1.977755087380601    -0.149654027400078
    C                0.213515104211496    -0.965755087380601     1.623345972599922
    C               -0.004484895788504    -2.798755087380601    -0.453654027400078
    C                1.291515104211496    -1.785755087380601     1.295345972599921
    C                1.183515104211496    -2.698755087380601     0.258345972599922
    O                2.471515104211496    -1.691755087380601     1.971345972599921
    H               -1.797484895788504    -0.406755087380601     1.134345972599922
    H                0.307515104211496    -0.244755087380601     2.423345972599922
    H               -2.186484895788504    -2.139755087380601    -1.983654027400078
    H               -2.978484895788504    -1.226755087380601    -0.695654027400078
    H               -0.086484895788504    -3.512755087380601    -1.262654027400078
    H                2.027515104211496    -3.319755087380601     0.004345972599922
    H                3.148515104211496    -2.256755087380601     1.583345972599921
    H               -2.976746895788504    -2.985085087380601    -0.616384027400078

}
e, wfn = energy('scf', return_wfn=True)
gdma(wfn)
dmavals = variable('DMA DISTRIBUTED MULTIPOLES')
charges = np.array(dmavals)
print(charges)
np.save('SSI-053ASP-058TYR-1-dimer.npy', np.array(charges))--------------------------------------------------------------------------

*** tstart() called on ds3
*** at Mon Apr 27 22:17:12 2020

   => Loading Basis Set <=

    Name: CC-PVDZ
    Role: ORBITAL
    Keyword: BASIS
    atoms 1-3, 11-17  entry C          line   138 file /theoryfs2/ds/metcalf/miniconda2/envs/tf2gpu/share/psi4/basis/cc-pvdz.gbs
    atoms 4-5, 18     entry O          line   198 file /theoryfs2/ds/metcalf/miniconda2/envs/tf2gpu/share/psi4/basis/cc-pvdz.gbs
    atoms 6-10, 19-26 entry H          line    22 file /theoryfs2/ds/metcalf/miniconda2/envs/tf2gpu/share/psi4/basis/cc-pvdz.gbs

         ---------------------------------------------------------
                                   SCF
               by Justin Turney, Rob Parrish, Andy Simmonett
                          and Daniel G. A. Smith
                              RHF Reference
                        1 Threads,    500 MiB Core
         ---------------------------------------------------------

  ==> Geometry <==

    Molecular point group: c1
    Full point group: C1

    Geometry (in Angstrom), charge = -1, multiplicity = 1:

       Center              X                  Y                   Z               Mass
    ------------   -----------------  -----------------  -----------------  -----------------
         C            0.369515104211     2.380244912619    -0.037654027400    12.000000000000
         C            0.070515104211     3.501244912619     0.945345972600    12.000000000000
         C           -0.284484895789     2.616244912619    -1.371654027400    12.000000000000
         O           -1.497484895789     2.901244912619    -1.431654027400    15.994914619570
         O            0.425515104211     2.531244912619    -2.379654027400    15.994914619570
         H            1.433515104211     2.256244912619    -0.183654027400     1.007825032230
         H            0.005515104211     1.440244912619     0.367345972600     1.007825032230
         H            0.070515104211     4.454244912619     0.416345972600     1.007825032230
         H            0.871226104211     3.514994912619     1.699445972600     1.007825032230
         H           -0.906047895789     3.337044912619     1.424265972600     1.007825032230
         C           -2.385484895789    -2.105755087381    -0.911654027400    12.000000000000
         C           -0.970484895789    -1.059755087381     0.892345972600    12.000000000000
         C           -1.091484895789    -1.977755087381    -0.149654027400    12.000000000000
         C            0.213515104211    -0.965755087381     1.623345972600    12.000000000000
         C           -0.004484895789    -2.798755087381    -0.453654027400    12.000000000000
         C            1.291515104211    -1.785755087381     1.295345972600    12.000000000000
         C            1.183515104211    -2.698755087381     0.258345972600    12.000000000000
         O            2.471515104211    -1.691755087381     1.971345972600    15.994914619570
         H           -1.797484895789    -0.406755087381     1.134345972600     1.007825032230
         H            0.307515104211    -0.244755087381     2.423345972600     1.007825032230
         H           -2.186484895789    -2.139755087381    -1.983654027400     1.007825032230
         H           -2.978484895789    -1.226755087381    -0.695654027400     1.007825032230
         H           -0.086484895789    -3.512755087381    -1.262654027400     1.007825032230
         H            2.027515104211    -3.319755087381     0.004345972600     1.007825032230
         H            3.148515104211    -2.256755087381     1.583345972600     1.007825032230
         H           -2.976746895789    -2.985085087381    -0.616384027400     1.007825032230

  Running in c1 symmetry.

  Rotational constants: A =      0.03091  B =      0.01355  C =      0.01118 [cm^-1]
  Rotational constants: A =    926.73203  B =    406.14618  C =    335.10163 [MHz]
  Nuclear repulsion =  738.826109278039212

  Charge       = -1
  Multiplicity = 1
  Electrons    = 98
  Nalpha       = 49
  Nbeta        = 49

  ==> Algorithm <==

  SCF Algorithm Type is PK.
  DIIS enabled.
  MOM disabled.
  Fractional occupation disabled.
  Guess Type is SAD.
  Energy threshold   = 1.00e-06
  Density threshold  = 1.00e-10
  Integral threshold = 0.00e+00

  ==> Primary Basis <==

  Basis Set: CC-PVDZ
    Blend: CC-PVDZ
    Number of shells: 117
    Number of basis function: 247
    Number of Cartesian functions: 260
    Spherical Harmonics?: true
    Max angular momentum: 2

  ==> Pre-Iterations <==

   -------------------------------------------------------
    Irrep   Nso     Nmo     Nalpha   Nbeta   Ndocc  Nsocc
   -------------------------------------------------------
     A        247     247       0       0       0       0
   -------------------------------------------------------
    Total     247     247      49      49      49       0
   -------------------------------------------------------

  ==> Integral Setup <==

  Using integral reordering PK algorithm.
  Sizing the integral batches needed.
  Building batch lookup table.
   Calculation information:
      Number of atoms:                  26
      Number of AO shells:             117
      Number of primitives:            351
      Number of atomic orbitals:       260
      Number of basis functions:       247

      Integral cutoff                 1.00e-12
      Number of threads:                 1

	Batch   1 pq = [       0,    9405] index = [             0,44231715] size =     44231715
	Batch   2 pq = [    9405,   13301] index = [      44231715,88464951] size =     44233236
	Batch   3 pq = [   13301,   16290] index = [      88464951,132690195] size =     44225244
	Batch   4 pq = [   16290,   18810] index = [     132690195,176917455] size =     44227260
	Batch   5 pq = [   18810,   21030] index = [     176917455,221140965] size =     44223510
	Batch   6 pq = [   21030,   23037] index = [     221140965,265363203] size =     44222238
	Batch   7 pq = [   23037,   24883] index = [     265363203,309594286] size =     44231083
	Batch   8 pq = [   24883,   26601] index = [     309594286,353819901] size =     44225615
	Batch   9 pq = [   26601,   28214] index = [     353819901,398029005] size =     44209104
	Batch  10 pq = [   28214,   29740] index = [     398029005,442248670] size =     44219665
	Batch  11 pq = [   29740,   30628] index = [     442248670,469052506] size =     26803836
  Task number: 43
  Buffer size: 11059200
  Buffer per thread: 2
  We computed 21310713 shell quartets total.
  Whereas there are 23829156 unique shell quartets.

  ==> DiskJK: Disk-Based J/K Matrices <==

    J tasked:                  Yes
    K tasked:                  Yes
    wK tasked:                  No
    Memory [MiB]:              375
    Schwarz Cutoff:          1E-12

    OpenMP threads:              1

  Minimum eigenvalue in the overlap matrix is 3.2282480273E-04.
  Using Symmetric Orthogonalization.

  SCF Guess: Superposition of Atomic Densities via on-the-fly atomic UHF.

  ==> Iterations <==

                        Total Energy        Delta E     RMS |[F,P]|

   @RHF iter SAD:  -609.30870085809840   -6.09309e+02   0.00000e+00
   @RHF iter   1:  -610.50544313249247   -1.19674e+00   3.43205e-03 DIIS
   @RHF iter   2:  -610.81522052631124   -3.09777e-01   1.76304e-03 DIIS
   @RHF iter   3:  -610.88845744582989   -7.32369e-02   3.15887e-04 DIIS
   @RHF iter   4:  -610.89260628393492   -4.14884e-03   1.24651e-04 DIIS
   @RHF iter   5:  -610.89319781044912   -5.91527e-04   1.98834e-05 DIIS
   @RHF iter   6:  -610.89322103574500   -2.32253e-05   7.91320e-06 DIIS
   @RHF iter   7:  -610.89322392825738   -2.89251e-06   2.67971e-06 DIIS
   @RHF iter   8:  -610.89322436539624   -4.37139e-07   8.51760e-07 DIIS
   @RHF iter   9:  -610.89322442733169   -6.19355e-08   3.40838e-07 DIIS
   @RHF iter  10:  -610.89322443945753   -1.21258e-08   1.35270e-07 DIIS
   @RHF iter  11:  -610.89322444214133   -2.68381e-09   6.93521e-08 DIIS
   @RHF iter  12:  -610.89322444275433   -6.12999e-10   3.22333e-08 DIIS
   @RHF iter  13:  -610.89322444288962   -1.35287e-10   1.05733e-08 DIIS
   @RHF iter  14:  -610.89322444290474   -1.51203e-11   4.33620e-09 DIIS
   @RHF iter  15:  -610.89322444291156   -6.82121e-12   1.67899e-09 DIIS
   @RHF iter  16:  -610.89322444290315    8.41283e-12   7.32312e-10 DIIS
   @RHF iter  17:  -610.89322444291315   -1.00044e-11   2.82457e-10 DIIS
   @RHF iter  18:  -610.89322444290929    3.86535e-12   8.24489e-11 DIIS
  Energy and wave function converged.

  ==> Post-Iterations <==

    Orbital Energies [Eh]
    ---------------------

    Doubly Occupied:

       1A    -20.499288     2A    -20.245542     3A    -20.244989
       4A    -11.210013     5A    -11.149880     6A    -11.145450
       7A    -11.144752     8A    -11.141814     9A    -11.139783
      10A    -11.135247    11A    -11.097426    12A    -11.071403
      13A    -11.037363    14A     -1.316127    15A     -1.145137
      16A     -1.060811    17A     -1.026986    18A     -0.947313
      19A     -0.928600    20A     -0.868999    21A     -0.835928
      22A     -0.756029    23A     -0.713641    24A     -0.697263
      25A     -0.644556    26A     -0.581582    27A     -0.552393
      28A     -0.518385    29A     -0.504412    30A     -0.499901
      31A     -0.497164    32A     -0.482755    33A     -0.475484
      34A     -0.452407    35A     -0.437340    36A     -0.422680
      37A     -0.407182    38A     -0.395655    39A     -0.382174
      40A     -0.378751    41A     -0.361419    42A     -0.353242
      43A     -0.318692    44A     -0.292384    45A     -0.246083
      46A     -0.212000    47A     -0.170791    48A     -0.159424
      49A     -0.150074

    Virtual:

      50A      0.220549    51A      0.246308    52A      0.256095
      53A      0.275301    54A      0.298103    55A      0.306099
      56A      0.338656    57A      0.346753    58A      0.362361
      59A      0.365573    60A      0.376271    61A      0.395806
      62A      0.417193    63A      0.421508    64A      0.451666
      65A      0.463908    66A      0.465566    67A      0.490649
      68A      0.512113    69A      0.541451    70A      0.565489
      71A      0.583166    72A      0.586814    73A      0.598759
      74A      0.619658    75A      0.695483    76A      0.703099
      77A      0.714190    78A      0.734473    79A      0.739707
      80A      0.746191    81A      0.771118    82A      0.776564
      83A      0.781737    84A      0.794404    85A      0.808757
      86A      0.815186    87A      0.827742    88A      0.851138
      89A      0.856543    90A      0.871345    91A      0.878565
      92A      0.886744    93A      0.907223    94A      0.923575
      95A      0.935821    96A      0.960623    97A      0.962574
      98A      0.969991    99A      0.975852   100A      0.985548
     101A      0.985748   102A      0.996931   103A      1.007077
     104A      1.014001   105A      1.023266   106A      1.027150
     107A      1.039924   108A      1.044261   109A      1.055490
     110A      1.061783   111A      1.067710   112A      1.078510
     113A      1.098788   114A      1.104621   115A      1.111687
     116A      1.134463   117A      1.167825   118A      1.188204
     119A      1.214914   120A      1.232497   121A      1.235238
     122A      1.251707   123A      1.292400   124A      1.302326
     125A      1.308683   126A      1.333077   127A      1.338770
     128A      1.354714   129A      1.370262   130A      1.380211
     131A      1.394263   132A      1.399178   133A      1.403189
     134A      1.439001   135A      1.446752   136A      1.457233
     137A      1.477488   138A      1.478251   139A      1.529554
     140A      1.570653   141A      1.586295   142A      1.595989
     143A      1.610697   144A      1.614630   145A      1.637454
     146A      1.644709   147A      1.659610   148A      1.684525
     149A      1.701865   150A      1.709503   151A      1.728507
     152A      1.764998   153A      1.776238   154A      1.798047
     155A      1.822687   156A      1.827682   157A      1.841114
     158A      1.866589   159A      1.876513   160A      1.893640
     161A      1.902128   162A      1.947054   163A      1.975172
     164A      1.982987   165A      1.984708   166A      1.992156
     167A      2.007759   168A      2.012701   169A      2.022695
     170A      2.041107   171A      2.046407   172A      2.051596
     173A      2.054677   174A      2.083025   175A      2.092898
     176A      2.095394   177A      2.122039   178A      2.134723
     179A      2.142226   180A      2.147411   181A      2.154958
     182A      2.159622   183A      2.167814   184A      2.187478
     185A      2.221117   186A      2.233696   187A      2.256903
     188A      2.260363   189A      2.273935   190A      2.297567
     191A      2.310643   192A      2.319389   193A      2.346870
     194A      2.361571   195A      2.364721   196A      2.392395
     197A      2.400355   198A      2.431078   199A      2.448525
     200A      2.456701   201A      2.500959   202A      2.519808
     203A      2.538968   204A      2.547755   205A      2.567481
     206A      2.594608   207A      2.605580   208A      2.619953
     209A      2.627893   210A      2.657817   211A      2.700526
     212A      2.737064   213A      2.756580   214A      2.769678
     215A      2.840662   216A      2.861663   217A      2.875896
     218A      2.890556   219A      2.896607   220A      2.919094
     221A      2.938562   222A      2.994295   223A      2.998721
     224A      3.007675   225A      3.052023   226A      3.069887
     227A      3.092741   228A      3.157675   229A      3.186705
     230A      3.209897   231A      3.260513   232A      3.299419
     233A      3.325938   234A      3.337175   235A      3.373298
     236A      3.384377   237A      3.429059   238A      3.662035
     239A      3.665346   240A      3.755954   241A      3.819083
     242A      3.846206   243A      4.069971   244A      4.084179
     245A      4.105983   246A      4.234005   247A      4.270091

    Final Occupation by Irrep:
              A
    DOCC [    49 ]

  @RHF Final Energy:  -610.89322444290929

   => Energetics <=

    Nuclear Repulsion Energy =            738.8261092780392119
    One-Electron Energy =               -2314.5252375832778853
    Two-Electron Energy =                 964.8059038623293873
    Total Energy =                       -610.8932244429092862

Computation Completed

Properties will be evaluated at   0.000000,   0.000000,   0.000000 [a0]

Properties computed using the SCF density matrix

  Nuclear Dipole Moment: [e a0]
     X:    -2.8689      Y:    -1.0035      Z:     4.0324

  Electronic Dipole Moment: [e a0]
     X:     3.8992      Y:    -4.3206      Z:    -0.9581

  Dipole Moment: [e a0]
     X:     1.0303      Y:    -5.3241      Z:     3.0743     Total:     6.2337

  Dipole Moment: [D]
     X:     2.6188      Y:   -13.5324      Z:     7.8141     Total:    15.8444

*** tstop() called on ds3 at Mon Apr 27 22:21:21 2020
Module time:
	user time   =     171.22 seconds =       2.85 minutes
	system time =      71.97 seconds =       1.20 minutes
	total time  =        249 seconds =       4.15 minutes
Total time:
	user time   =     171.22 seconds =       2.85 minutes
	system time =      71.97 seconds =       1.20 minutes
	total time  =        249 seconds =       4.15 minutes
                                     G D M A

                                 by Anthony Stone

                           version 2.2.06, 22 June 2011

               Distributed Multipoles from Gaussian wavefunctions

Starting at 22:21:21 on 27 Apr 2020

Using SCF density matrix from file ./SSI/SSI-053ASP-058TYR-1-dimer.test.5893.fchk

                         Distributed Multipole Analysis

Standard DMA

Positions and radii in angstrom
Multipole moments in atomic units, ea_0^k for rank k

C          x =  0.369515  y =  2.380245  z = -0.037654 angstrom
           Maximum rank =  0   Radius =  0.650 angstrom
                   Q00  =  -0.115724

C          x =  0.070515  y =  3.501245  z =  0.945346 angstrom
           Maximum rank =  0   Radius =  0.650 angstrom
                   Q00  =  -0.222393

C          x = -0.284485  y =  2.616245  z = -1.371654 angstrom
           Maximum rank =  0   Radius =  0.650 angstrom
                   Q00  =   1.017296

O          x = -1.497485  y =  2.901245  z = -1.431654 angstrom
           Maximum rank =  0   Radius =  0.650 angstrom
                   Q00  =  -0.983065

O          x =  0.425515  y =  2.531245  z = -2.379654 angstrom
           Maximum rank =  0   Radius =  0.650 angstrom
                   Q00  =  -0.933563

H          x =  1.433515  y =  2.256245  z = -0.183654 angstrom
           Maximum rank =  0   Radius =  0.325 angstrom
                   Q00  =   0.024120

H          x =  0.005515  y =  1.440245  z =  0.367346 angstrom
           Maximum rank =  0   Radius =  0.325 angstrom
                   Q00  =   0.038408

H          x =  0.070515  y =  4.454245  z =  0.416346 angstrom
           Maximum rank =  0   Radius =  0.325 angstrom
                   Q00  =   0.082603

H          x =  0.871226  y =  3.514995  z =  1.699446 angstrom
           Maximum rank =  0   Radius =  0.325 angstrom
                   Q00  =   0.018508

H          x = -0.906048  y =  3.337045  z =  1.424266 angstrom
           Maximum rank =  0   Radius =  0.325 angstrom
                   Q00  =   0.066902

C          x = -2.385485  y = -2.105755  z = -0.911654 angstrom
           Maximum rank =  0   Radius =  0.650 angstrom
                   Q00  =  -0.197117

C          x = -0.970485  y = -1.059755  z =  0.892346 angstrom
           Maximum rank =  0   Radius =  0.650 angstrom
                   Q00  =  -0.038238

C          x = -1.091485  y = -1.977755  z = -0.149654 angstrom
           Maximum rank =  0   Radius =  0.650 angstrom
                   Q00  =  -0.124094

C          x =  0.213515  y = -0.965755  z =  1.623346 angstrom
           Maximum rank =  0   Radius =  0.650 angstrom
                   Q00  =  -0.108579

C          x = -0.004485  y = -2.798755  z = -0.453654 angstrom
           Maximum rank =  0   Radius =  0.650 angstrom
                   Q00  =   0.028312

C          x =  1.291515  y = -1.785755  z =  1.295346 angstrom
           Maximum rank =  0   Radius =  0.650 angstrom
                   Q00  =   0.310351

C          x =  1.183515  y = -2.698755  z =  0.258346 angstrom
           Maximum rank =  0   Radius =  0.650 angstrom
                   Q00  =  -0.178906

O          x =  2.471515  y = -1.691755  z =  1.971346 angstrom
           Maximum rank =  0   Radius =  0.650 angstrom
                   Q00  =  -0.640310

H          x = -1.797485  y = -0.406755  z =  1.134346 angstrom
           Maximum rank =  0   Radius =  0.325 angstrom
                   Q00  =   0.076594

H          x =  0.307515  y = -0.244755  z =  2.423346 angstrom
           Maximum rank =  0   Radius =  0.325 angstrom
                   Q00  =   0.079817

H          x = -2.186485  y = -2.139755  z = -1.983654 angstrom
           Maximum rank =  0   Radius =  0.325 angstrom
                   Q00  =   0.105179

H          x = -2.978485  y = -1.226755  z = -0.695654 angstrom
           Maximum rank =  0   Radius =  0.325 angstrom
                   Q00  =   0.115477

H          x = -0.086485  y = -3.512755  z = -1.262654 angstrom
           Maximum rank =  0   Radius =  0.325 angstrom
                   Q00  =   0.055034

H          x =  2.027515  y = -3.319755  z =  0.004346 angstrom
           Maximum rank =  0   Radius =  0.325 angstrom
                   Q00  =   0.054054

H          x =  3.148515  y = -2.256755  z =  1.583346 angstrom
           Maximum rank =  0   Radius =  0.325 angstrom
                   Q00  =   0.396434

H          x = -2.976747  y = -2.985085  z = -0.616384 angstrom
           Maximum rank =  0   Radius =  0.325 angstrom
                   Q00  =   0.072901

Total multipoles referred to origin at
           x =   0.000000,  y =    0.000000,  z =    0.000000 angstrom
                   Q00  =  -1.000000

Finished at 22:21:21 on 27 Apr 2020

  DMA results are available in the Python driver through the
	  variable('DMA DISTRIBUTED MULTIPOLES')
  and
	  variable('DMA TOTAL MULTIPOLES')
  commands.

    Psi4 stopped on: Monday, 27 April 2020 10:21PM
    Psi4 wall time for execution: 0:04:09.29

*** Psi4 exiting successfully. Buy a developer a beer!
