                               Psi4 1.3.2 release

  ==> Input File <==

--------------------------------------------------------------------------
import numpy as np
set {scf_type pk
basis cc-pvdz
d_convergence 10
gdma_switch   0
gdma_limit    0
gdma_origin   [ 0.0,  0.0,  0.0 ]
}
molecule test {
    units Angstrom
    0 1
    --
    0 1
    C               -1.813304935662550    -0.858904464253601    -0.442999370416770
    C               -2.612304935662550    -2.165904464253601    -0.643999370416770
    C               -2.586304935662550     0.274095535746399     0.148000629583230
    C               -3.974304935662550     0.371095535746399     0.033000629583230
    C               -1.861304935662550     1.244095535746399     0.847000629583230
    C               -4.665304935662550     1.455095535746399     0.633000629583230
    C               -2.503304935662551     2.319095535746399     1.444000629583230
    C               -3.889304935662550     2.441095535746399     1.315000629583230
    H               -0.972304935662550    -1.075904464253601     0.217000629583230
    H               -1.418304935662550    -0.532904464253601    -1.405999370416770
    H               -3.420304935662550    -1.991904464253601    -1.355999370416770
    H               -4.549304935662549    -0.370904464253601    -0.498999370416770
    H               -0.793304935662550     1.156095535746399     0.953000629583230
    H               -5.741304935662550     1.540095535746399     0.576000629583230
    H               -1.937304935662550     3.059095535746399     1.994000629583230
    H               -4.387304935662550     3.277095535746399     1.782000629583230
    H               -3.025754935662550    -2.542174464253601     0.303357629583230
    H               -1.949194935662550    -2.920184464253601    -1.092720370416770
    C                5.560695064337450    -1.835904464253601    -0.636999370416770
    C                1.807695064337450     0.243095535746399    -0.346999370416770
    C                1.859695064337450    -1.084904464253601    -0.762999370416770
    C                2.962695064337450     0.897095535746399     0.048000629583230
    C                3.086695064337450    -1.766904464253601    -0.871999370416770
    C                4.179695064337450     0.209095535746399    -0.057999370416770
    C                4.244695064337450    -1.117904464253601    -0.500999370416770
    H                0.865695064337450     0.765095535746399    -0.323999370416770
    H                0.947695064337450    -1.599904464253601    -1.016999370416770
    H                2.931695064337450     1.922095535746399     0.389000629583230
    H                3.110695064337450    -2.789904464253601    -1.221999370416770
    H                5.092695064337449     0.717095535746399     0.222000629583230
    H                5.427695064337450    -2.906904464253601    -0.474999370416770
    H                6.212695064337450    -1.466904464253601     0.155000629583230
    H                6.029445064337450    -1.662184464253601    -1.616845370416770

}
e, wfn = energy('scf', return_wfn=True)
gdma(wfn)
dmavals = variable('DMA DISTRIBUTED MULTIPOLES')
charges = np.array(dmavals)
print(charges)
np.save('SSI-198PHE-205PHE-1-dimer.npy', np.array(charges))--------------------------------------------------------------------------

*** tstart() called on ds3
*** at Tue Apr 28 08:09:28 2020

   => Loading Basis Set <=

    Name: CC-PVDZ
    Role: ORBITAL
    Keyword: BASIS
    atoms 1-8, 19-25  entry C          line   138 file /theoryfs2/ds/metcalf/miniconda2/envs/tf2gpu/share/psi4/basis/cc-pvdz.gbs
    atoms 9-18, 26-33 entry H          line    22 file /theoryfs2/ds/metcalf/miniconda2/envs/tf2gpu/share/psi4/basis/cc-pvdz.gbs

         ---------------------------------------------------------
                                   SCF
               by Justin Turney, Rob Parrish, Andy Simmonett
                          and Daniel G. A. Smith
                              RHF Reference
                        1 Threads,    500 MiB Core
         ---------------------------------------------------------

  ==> Geometry <==

    Molecular point group: c1
    Full point group: C1

    Geometry (in Angstrom), charge = 0, multiplicity = 1:

       Center              X                  Y                   Z               Mass
    ------------   -----------------  -----------------  -----------------  -----------------
         C           -1.813304935663    -0.858904464254    -0.442999370417    12.000000000000
         C           -2.612304935663    -2.165904464254    -0.643999370417    12.000000000000
         C           -2.586304935663     0.274095535746     0.148000629583    12.000000000000
         C           -3.974304935663     0.371095535746     0.033000629583    12.000000000000
         C           -1.861304935663     1.244095535746     0.847000629583    12.000000000000
         C           -4.665304935663     1.455095535746     0.633000629583    12.000000000000
         C           -2.503304935663     2.319095535746     1.444000629583    12.000000000000
         C           -3.889304935663     2.441095535746     1.315000629583    12.000000000000
         H           -0.972304935663    -1.075904464254     0.217000629583     1.007825032230
         H           -1.418304935663    -0.532904464254    -1.405999370417     1.007825032230
         H           -3.420304935663    -1.991904464254    -1.355999370417     1.007825032230
         H           -4.549304935663    -0.370904464254    -0.498999370417     1.007825032230
         H           -0.793304935663     1.156095535746     0.953000629583     1.007825032230
         H           -5.741304935663     1.540095535746     0.576000629583     1.007825032230
         H           -1.937304935663     3.059095535746     1.994000629583     1.007825032230
         H           -4.387304935663     3.277095535746     1.782000629583     1.007825032230
         H           -3.025754935663    -2.542174464254     0.303357629583     1.007825032230
         H           -1.949194935663    -2.920184464254    -1.092720370417     1.007825032230
         C            5.560695064337    -1.835904464254    -0.636999370417    12.000000000000
         C            1.807695064337     0.243095535746    -0.346999370417    12.000000000000
         C            1.859695064337    -1.084904464254    -0.762999370417    12.000000000000
         C            2.962695064337     0.897095535746     0.048000629583    12.000000000000
         C            3.086695064337    -1.766904464254    -0.871999370417    12.000000000000
         C            4.179695064337     0.209095535746    -0.057999370417    12.000000000000
         C            4.244695064337    -1.117904464254    -0.500999370417    12.000000000000
         H            0.865695064337     0.765095535746    -0.323999370417     1.007825032230
         H            0.947695064337    -1.599904464254    -1.016999370417     1.007825032230
         H            2.931695064337     1.922095535746     0.389000629583     1.007825032230
         H            3.110695064337    -2.789904464254    -1.221999370417     1.007825032230
         H            5.092695064337     0.717095535746     0.222000629583     1.007825032230
         H            5.427695064337    -2.906904464254    -0.474999370417     1.007825032230
         H            6.212695064337    -1.466904464254     0.155000629583     1.007825032230
         H            6.029445064337    -1.662184464254    -1.616845370417     1.007825032230

  Running in c1 symmetry.

  Rotational constants: A =      0.04398  B =      0.00678  C =      0.00593 [cm^-1]
  Rotational constants: A =   1318.37723  B =    203.20492  C =    177.83902 [MHz]
  Nuclear repulsion =  849.604483941439753

  Charge       = 0
  Multiplicity = 1
  Electrons    = 108
  Nalpha       = 54
  Nbeta        = 54

  ==> Algorithm <==

  SCF Algorithm Type is PK.
  DIIS enabled.
  MOM disabled.
  Fractional occupation disabled.
  Guess Type is SAD.
  Energy threshold   = 1.00e-06
  Density threshold  = 1.00e-10
  Integral threshold = 0.00e+00

  ==> Primary Basis <==

  Basis Set: CC-PVDZ
    Blend: CC-PVDZ
    Number of shells: 144
    Number of basis function: 300
    Number of Cartesian functions: 315
    Spherical Harmonics?: true
    Max angular momentum: 2

  ==> Pre-Iterations <==

   -------------------------------------------------------
    Irrep   Nso     Nmo     Nalpha   Nbeta   Ndocc  Nsocc
   -------------------------------------------------------
     A        300     300       0       0       0       0
   -------------------------------------------------------
    Total     300     300      54      54      54       0
   -------------------------------------------------------

  ==> Integral Setup <==

  Using integral reordering PK algorithm.
  Sizing the integral batches needed.
  Building batch lookup table.
   Calculation information:
      Number of atoms:                  33
      Number of AO shells:             144
      Number of primitives:            420
      Number of atomic orbitals:       315
      Number of basis functions:       300

      Integral cutoff                 1.00e-12
      Number of threads:                 1

	Batch   1 pq = [       0,    9405] index = [             0,44231715] size =     44231715
	Batch   2 pq = [    9405,   13301] index = [      44231715,88464951] size =     44233236
	Batch   3 pq = [   13301,   16290] index = [      88464951,132690195] size =     44225244
	Batch   4 pq = [   16290,   18810] index = [     132690195,176917455] size =     44227260
	Batch   5 pq = [   18810,   21030] index = [     176917455,221140965] size =     44223510
	Batch   6 pq = [   21030,   23037] index = [     221140965,265363203] size =     44222238
	Batch   7 pq = [   23037,   24883] index = [     265363203,309594286] size =     44231083
	Batch   8 pq = [   24883,   26601] index = [     309594286,353819901] size =     44225615
	Batch   9 pq = [   26601,   28214] index = [     353819901,398029005] size =     44209104
	Batch  10 pq = [   28214,   29740] index = [     398029005,442248670] size =     44219665
	Batch  11 pq = [   29740,   31191] index = [     442248670,486454836] size =     44206166
	Batch  12 pq = [   31191,   32578] index = [     486454836,530679331] size =     44224495
	Batch  13 pq = [   32578,   33908] index = [     530679331,574893186] size =     44213855
	Batch  14 pq = [   33908,   35188] index = [     574893186,619115266] size =     44222080
	Batch  15 pq = [   35188,   36423] index = [     619115266,663335676] size =     44220410
	Batch  16 pq = [   36423,   37617] index = [     663335676,707538153] size =     44202477
	Batch  17 pq = [   37617,   38775] index = [     707538153,751769700] size =     44231547
	Batch  18 pq = [   38775,   39899] index = [     751769700,795985050] size =     44215350
	Batch  19 pq = [   39899,   40992] index = [     795985050,840192528] size =     44207478
	Batch  20 pq = [   40992,   42057] index = [     840192528,884416653] size =     44224125
	Batch  21 pq = [   42057,   43095] index = [     884416653,928611060] size =     44194407
	Batch  22 pq = [   43095,   44109] index = [     928611060,972823995] size =     44212935
	Batch  23 pq = [   44109,   45150] index = [     972823995,1019283825] size =     46459830
  Task number: 93
  Buffer size: 11059200
  Buffer per thread: 2
  We computed 45667210 shell quartets total.
  Whereas there are 54502020 unique shell quartets.

  ==> DiskJK: Disk-Based J/K Matrices <==

    J tasked:                  Yes
    K tasked:                  Yes
    wK tasked:                  No
    Memory [MiB]:              375
    Schwarz Cutoff:          1E-12

    OpenMP threads:              1

  Minimum eigenvalue in the overlap matrix is 3.1152602915E-04.
  Using Symmetric Orthogonalization.

  SCF Guess: Superposition of Atomic Densities via on-the-fly atomic UHF.

  ==> Iterations <==

                        Total Energy        Delta E     RMS |[F,P]|

   @RHF iter SAD:  -577.32283335728880   -5.77323e+02   0.00000e+00
   @RHF iter   1:  -578.23094156816626   -9.08108e-01   2.19637e-03 DIIS
   @RHF iter   2:  -578.50308188039651   -2.72140e-01   8.93710e-04 DIIS
   @RHF iter   3:  -578.54289286139010   -3.98110e-02   2.12447e-04 DIIS
   @RHF iter   4:  -578.54647135698542   -3.57850e-03   5.47938e-05 DIIS
   @RHF iter   5:  -578.54663988086668   -1.68524e-04   1.67469e-05 DIIS
   @RHF iter   6:  -578.54665610416771   -1.62233e-05   3.94930e-06 DIIS
   @RHF iter   7:  -578.54665725132452   -1.14716e-06   1.11129e-06 DIIS
   @RHF iter   8:  -578.54665736811069   -1.16786e-07   3.52533e-07 DIIS
   @RHF iter   9:  -578.54665739079007   -2.26794e-08   1.70978e-07 DIIS
   @RHF iter  10:  -578.54665739646907   -5.67900e-09   8.22567e-08 DIIS
   @RHF iter  11:  -578.54665739852078   -2.05171e-09   3.30037e-08 DIIS
   @RHF iter  12:  -578.54665739878078   -2.60002e-10   1.38297e-08 DIIS
   @RHF iter  13:  -578.54665739881148   -3.06954e-11   4.52010e-09 DIIS
   @RHF iter  14:  -578.54665739881182   -3.41061e-13   1.44370e-09 DIIS
   @RHF iter  15:  -578.54665739881443   -2.61480e-12   6.17718e-10 DIIS
   @RHF iter  16:  -578.54665739881079    3.63798e-12   3.01226e-10 DIIS
   @RHF iter  17:  -578.54665739881011    6.82121e-13   1.59940e-10 DIIS
   @RHF iter  18:  -578.54665739881182   -1.70530e-12   4.99973e-11 DIIS
  Energy and wave function converged.

  ==> Post-Iterations <==

    Orbital Energies [Eh]
    ---------------------

    Doubly Occupied:

       1A    -11.243256     2A    -11.240492     3A    -11.238449
       4A    -11.238296     5A    -11.237100     6A    -11.235825
       7A    -11.234492     8A    -11.234027     9A    -11.233466
      10A    -11.231843    11A    -11.231582    12A    -11.230026
      13A    -11.229428    14A    -11.228895    15A    -11.226022
      16A     -1.153394    17A     -1.148514    18A     -1.060240
      19A     -1.047501    20A     -1.009767    21A     -1.009406
      22A     -0.976218    23A     -0.932164    24A     -0.867832
      25A     -0.828577    26A     -0.822117    27A     -0.794793
      28A     -0.781117    29A     -0.693433    30A     -0.689170
      31A     -0.637665    32A     -0.633688    33A     -0.630915
      34A     -0.627042    35A     -0.608701    36A     -0.592543
      37A     -0.584344    38A     -0.579423    39A     -0.575409
      40A     -0.563175    41A     -0.534972    42A     -0.522491
      43A     -0.517918    44A     -0.508190    45A     -0.490946
      46A     -0.488478    47A     -0.478009    48A     -0.477134
      49A     -0.474276    50A     -0.467739    51A     -0.332197
      52A     -0.331158    53A     -0.323878    54A     -0.316393

    Virtual:

      55A      0.126988    56A      0.131257    57A      0.139572
      58A      0.142466    59A      0.177573    60A      0.190549
      61A      0.193328    62A      0.204258    63A      0.218347
      64A      0.229877    65A      0.235588    66A      0.237783
      67A      0.249503    68A      0.253539    69A      0.258585
      70A      0.271825    71A      0.276277    72A      0.282481
      73A      0.297173    74A      0.309437    75A      0.328222
      76A      0.332375    77A      0.358435    78A      0.367008
      79A      0.371867    80A      0.396778    81A      0.423377
      82A      0.437188    83A      0.452062    84A      0.458337
      85A      0.473337    86A      0.478860    87A      0.488752
      88A      0.505141    89A      0.511743    90A      0.552305
      91A      0.591678    92A      0.596977    93A      0.600439
      94A      0.617155    95A      0.636500    96A      0.655787
      97A      0.668334    98A      0.676433    99A      0.688601
     100A      0.697842   101A      0.707043   102A      0.709296
     103A      0.717065   104A      0.720300   105A      0.725712
     106A      0.733956   107A      0.737416   108A      0.738413
     109A      0.743257   110A      0.747165   111A      0.748326
     112A      0.753330   113A      0.759633   114A      0.766206
     115A      0.772487   116A      0.783435   117A      0.806567
     118A      0.815649   119A      0.834057   120A      0.841334
     121A      0.846315   122A      0.857045   123A      0.867086
     124A      0.872352   125A      0.873687   126A      0.874667
     127A      0.881285   128A      0.886747   129A      0.896152
     130A      0.897127   131A      0.899872   132A      0.915306
     133A      0.917900   134A      0.926050   135A      0.928392
     136A      0.934716   137A      0.939006   138A      0.940920
     139A      0.965143   140A      0.969026   141A      0.987107
     142A      0.991805   143A      1.021563   144A      1.028469
     145A      1.042600   146A      1.051230   147A      1.061199
     148A      1.083336   149A      1.113289   150A      1.129125
     151A      1.136649   152A      1.143627   153A      1.151796
     154A      1.159343   155A      1.171530   156A      1.179130
     157A      1.188690   158A      1.210144   159A      1.232874
     160A      1.238881   161A      1.243208   162A      1.248489
     163A      1.251923   164A      1.259721   165A      1.273993
     166A      1.282751   167A      1.290741   168A      1.300217
     169A      1.308170   170A      1.319531   171A      1.321779
     172A      1.324626   173A      1.333886   174A      1.344211
     175A      1.396887   176A      1.411699   177A      1.434005
     178A      1.490561   179A      1.502932   180A      1.524278
     181A      1.542640   182A      1.550883   183A      1.564263
     184A      1.592640   185A      1.609092   186A      1.622862
     187A      1.671985   188A      1.682115   189A      1.695654
     190A      1.712880   191A      1.734437   192A      1.743168
     193A      1.747708   194A      1.750570   195A      1.755947
     196A      1.758179   197A      1.775564   198A      1.787396
     199A      1.803764   200A      1.806968   201A      1.816775
     202A      1.855128   203A      1.867455   204A      1.872138
     205A      1.881996   206A      1.888245   207A      1.891485
     208A      1.897017   209A      1.904719   210A      1.908630
     211A      1.914601   212A      1.918845   213A      1.932918
     214A      1.939851   215A      1.942118   216A      1.947833
     217A      1.950306   218A      1.959428   219A      1.964479
     220A      1.977456   221A      1.978742   222A      1.990690
     223A      1.991872   224A      1.998390   225A      2.011697
     226A      2.021600   227A      2.036700   228A      2.039445
     229A      2.060327   230A      2.066386   231A      2.073160
     232A      2.082555   233A      2.104998   234A      2.113870
     235A      2.121618   236A      2.138820   237A      2.145929
     238A      2.152285   239A      2.169691   240A      2.170053
     241A      2.175431   242A      2.179929   243A      2.199544
     244A      2.206766   245A      2.220459   246A      2.227335
     247A      2.244761   248A      2.257216   249A      2.271199
     250A      2.277590   251A      2.285276   252A      2.293493
     253A      2.308723   254A      2.314777   255A      2.323330
     256A      2.348145   257A      2.365784   258A      2.403384
     259A      2.405154   260A      2.463469   261A      2.477339
     262A      2.481545   263A      2.490643   264A      2.493241
     265A      2.537407   266A      2.543319   267A      2.552498
     268A      2.604340   269A      2.623965   270A      2.638513
     271A      2.731071   272A      2.738494   273A      2.744585
     274A      2.759476   275A      2.766608   276A      2.768819
     277A      2.770850   278A      2.785787   279A      2.798789
     280A      2.818461   281A      2.836219   282A      2.849862
     283A      2.876292   284A      2.884093   285A      2.932310
     286A      2.952687   287A      2.965169   288A      2.985993
     289A      3.010620   290A      3.016914   291A      3.024701
     292A      3.037421   293A      3.142725   294A      3.161202
     295A      3.193910   296A      3.210731   297A      3.288301
     298A      3.297381   299A      3.931799   300A      3.959268

    Final Occupation by Irrep:
              A
    DOCC [    54 ]

  @RHF Final Energy:  -578.54665739881182

   => Energetics <=

    Nuclear Repulsion Energy =            849.6044839414397529
    One-Electron Energy =               -2467.0540238665580546
    Two-Electron Energy =                1038.9028825263064846
    Total Energy =                       -578.5466573988117034

Computation Completed

Properties will be evaluated at   0.000000,   0.000000,   0.000000 [a0]

Properties computed using the SCF density matrix

  Nuclear Dipole Moment: [e a0]
     X:     2.2724      Y:    -6.9589      Z:    -2.2660

  Electronic Dipole Moment: [e a0]
     X:    -2.0723      Y:     6.7896      Z:     2.1993

  Dipole Moment: [e a0]
     X:     0.2001      Y:    -0.1693      Z:    -0.0668     Total:     0.2705

  Dipole Moment: [D]
     X:     0.5085      Y:    -0.4304      Z:    -0.1698     Total:     0.6875

*** tstop() called on ds3 at Tue Apr 28 08:28:13 2020
Module time:
	user time   =     396.70 seconds =       6.61 minutes
	system time =     159.74 seconds =       2.66 minutes
	total time  =       1125 seconds =      18.75 minutes
Total time:
	user time   =     396.70 seconds =       6.61 minutes
	system time =     159.74 seconds =       2.66 minutes
	total time  =       1125 seconds =      18.75 minutes
                                     G D M A

                                 by Anthony Stone

                           version 2.2.06, 22 June 2011

               Distributed Multipoles from Gaussian wavefunctions

Starting at 8:28:13 on 28 Apr 2020

Using SCF density matrix from file ./SSI/SSI-198PHE-205PHE-1-dimer.test.9377.fchk

                         Distributed Multipole Analysis

Standard DMA

Positions and radii in angstrom
Multipole moments in atomic units, ea_0^k for rank k

C          x = -1.813305  y = -0.858904  z = -0.442999 angstrom
           Maximum rank =  0   Radius =  0.650 angstrom
                   Q00  =  -0.066208

C          x = -2.612305  y = -2.165904  z = -0.643999 angstrom
           Maximum rank =  0   Radius =  0.650 angstrom
                   Q00  =  -0.251774

C          x = -2.586305  y =  0.274096  z =  0.148001 angstrom
           Maximum rank =  0   Radius =  0.650 angstrom
                   Q00  =  -0.057498

C          x = -3.974305  y =  0.371096  z =  0.033001 angstrom
           Maximum rank =  0   Radius =  0.650 angstrom
                   Q00  =  -0.127775

C          x = -1.861305  y =  1.244096  z =  0.847001 angstrom
           Maximum rank =  0   Radius =  0.650 angstrom
                   Q00  =  -0.007565

C          x = -4.665305  y =  1.455096  z =  0.633001 angstrom
           Maximum rank =  0   Radius =  0.650 angstrom
                   Q00  =  -0.078589

C          x = -2.503305  y =  2.319096  z =  1.444001 angstrom
           Maximum rank =  0   Radius =  0.650 angstrom
                   Q00  =  -0.069615

C          x = -3.889305  y =  2.441096  z =  1.315001 angstrom
           Maximum rank =  0   Radius =  0.650 angstrom
                   Q00  =  -0.059884

H          x = -0.972305  y = -1.075904  z =  0.217001 angstrom
           Maximum rank =  0   Radius =  0.325 angstrom
                   Q00  =   0.063770

H          x = -1.418305  y = -0.532904  z = -1.405999 angstrom
           Maximum rank =  0   Radius =  0.325 angstrom
                   Q00  =   0.080260

H          x = -3.420305  y = -1.991904  z = -1.355999 angstrom
           Maximum rank =  0   Radius =  0.325 angstrom
                   Q00  =   0.083319

H          x = -4.549305  y = -0.370904  z = -0.498999 angstrom
           Maximum rank =  0   Radius =  0.325 angstrom
                   Q00  =   0.062804

H          x = -0.793305  y =  1.156096  z =  0.953001 angstrom
           Maximum rank =  0   Radius =  0.325 angstrom
                   Q00  =   0.048838

H          x = -5.741305  y =  1.540096  z =  0.576001 angstrom
           Maximum rank =  0   Radius =  0.325 angstrom
                   Q00  =   0.074658

H          x = -1.937305  y =  3.059096  z =  1.994001 angstrom
           Maximum rank =  0   Radius =  0.325 angstrom
                   Q00  =   0.066212

H          x = -4.387305  y =  3.277096  z =  1.782001 angstrom
           Maximum rank =  0   Radius =  0.325 angstrom
                   Q00  =   0.062347

H          x = -3.025755  y = -2.542174  z =  0.303358 angstrom
           Maximum rank =  0   Radius =  0.325 angstrom
                   Q00  =   0.088863

H          x = -1.949195  y = -2.920184  z = -1.092720 angstrom
           Maximum rank =  0   Radius =  0.325 angstrom
                   Q00  =   0.089545

C          x =  5.560695  y = -1.835904  z = -0.636999 angstrom
           Maximum rank =  0   Radius =  0.650 angstrom
                   Q00  =  -0.201876

C          x =  1.807695  y =  0.243096  z = -0.346999 angstrom
           Maximum rank =  0   Radius =  0.650 angstrom
                   Q00  =  -0.093031

C          x =  1.859695  y = -1.084904  z = -0.762999 angstrom
           Maximum rank =  0   Radius =  0.650 angstrom
                   Q00  =  -0.058468

C          x =  2.962695  y =  0.897096  z =  0.048001 angstrom
           Maximum rank =  0   Radius =  0.650 angstrom
                   Q00  =  -0.071916

C          x =  3.086695  y = -1.766904  z = -0.871999 angstrom
           Maximum rank =  0   Radius =  0.650 angstrom
                   Q00  =  -0.084438

C          x =  4.179695  y =  0.209096  z = -0.057999 angstrom
           Maximum rank =  0   Radius =  0.650 angstrom
                   Q00  =   0.011275

C          x =  4.244695  y = -1.117904  z = -0.500999 angstrom
           Maximum rank =  0   Radius =  0.650 angstrom
                   Q00  =  -0.103260

H          x =  0.865695  y =  0.765096  z = -0.323999 angstrom
           Maximum rank =  0   Radius =  0.325 angstrom
                   Q00  =   0.051122

H          x =  0.947695  y = -1.599904  z = -1.016999 angstrom
           Maximum rank =  0   Radius =  0.325 angstrom
                   Q00  =   0.063827

H          x =  2.931695  y =  1.922096  z =  0.389001 angstrom
           Maximum rank =  0   Radius =  0.325 angstrom
                   Q00  =   0.068161

H          x =  3.110695  y = -2.789904  z = -1.221999 angstrom
           Maximum rank =  0   Radius =  0.325 angstrom
                   Q00  =   0.059385

H          x =  5.092695  y =  0.717096  z =  0.222001 angstrom
           Maximum rank =  0   Radius =  0.325 angstrom
                   Q00  =   0.056444

H          x =  5.427695  y = -2.906904  z = -0.474999 angstrom
           Maximum rank =  0   Radius =  0.325 angstrom
                   Q00  =   0.098572

H          x =  6.212695  y = -1.466904  z =  0.155001 angstrom
           Maximum rank =  0   Radius =  0.325 angstrom
                   Q00  =   0.096664

H          x =  6.029445  y = -1.662184  z = -1.616845 angstrom
           Maximum rank =  0   Radius =  0.325 angstrom
                   Q00  =   0.105831

Total multipoles referred to origin at
           x =   0.000000,  y =    0.000000,  z =    0.000000 angstrom
                   Q00  =  -0.000000

Finished at 8:28:13 on 28 Apr 2020

  DMA results are available in the Python driver through the
	  variable('DMA DISTRIBUTED MULTIPOLES')
  and
	  variable('DMA TOTAL MULTIPOLES')
  commands.

    Psi4 stopped on: Tuesday, 28 April 2020 08:28AM
    Psi4 wall time for execution: 0:18:45.01

*** Psi4 exiting successfully. Buy a developer a beer!
