                               Psi4 1.3.2 release

  ==> Input File <==

--------------------------------------------------------------------------
import numpy as np
set {scf_type pk
basis cc-pvdz
d_convergence 10
gdma_switch   0
gdma_limit    0
gdma_origin   [ 0.0,  0.0,  0.0 ]
}
molecule test {
    units Angstrom
    0 1
    --
    0 1
    C               -1.951129955772847     1.991525463546793     1.294609395281899
    C               -0.841129955772847     1.519525463546793     0.442609395281899
    C                0.447870044227153     1.947525463546793     0.449609395281899
    C               -0.934129955772847     0.528525463546793    -0.581390604718101
    C                0.356870044227153     0.389525463546793    -1.152390604718101
    C               -1.982129955772847    -0.255474536453207    -1.072390604718102
    C                0.612870044227153    -0.492474536453207    -2.184390604718101
    C               -1.727129955772847    -1.137474536453207    -2.096390604718101
    C               -0.443129955772847    -1.254474536453207    -2.644390604718101
    N                1.173870044227153     1.270525463546794    -0.502390604718101
    H               -1.549129955772847     2.335525463546793     2.247609395281899
    H               -2.604129955772847     1.142525463546793     1.502609395281899
    H                0.838870044227153     2.714525463546793     1.105609395281899
    H                2.153870044227153     1.450525463546793    -0.710390604718101
    H               -2.975129955772847    -0.162474536453207    -0.654390604718101
    H                1.601870044227153    -0.571474536453207    -2.609390604718101
    H               -2.533129955772847    -1.744474536453207    -2.481390604718101
    H               -0.281129955772847    -1.949474536453207    -3.455390604718101
    H               -2.542760955772847     2.792395463546793     0.827079395281899
    C                1.492870044227153    -0.844474536453207     2.419609395281899
    C                2.675870044227153    -1.803474536453207     2.587609395281898
    O                0.441870044227153    -1.468474536453207     1.702609395281899
    H                1.140870044227153    -0.531474536453207     3.401609395281899
    H                1.829870044227153     0.042525463546793     1.882609395281899
    H                3.377870044227153    -1.352474536453207     3.290609395281899
    H               -0.003129955772847    -0.789474536453207     1.176609395281899
    H                3.176023044227153    -1.977735536453207     1.623509395281899
    H                2.341903044227153    -2.756838536453206     3.022999395281899

}
e, wfn = energy('scf', return_wfn=True)
gdma(wfn)
dmavals = variable('DMA DISTRIBUTED MULTIPOLES')
charges = np.array(dmavals)
print(charges)
np.save('SSI-125TRP-138SER-1-dimer.npy', np.array(charges))--------------------------------------------------------------------------

*** tstart() called on ds3
*** at Mon Apr 27 22:30:02 2020

   => Loading Basis Set <=

    Name: CC-PVDZ
    Role: ORBITAL
    Keyword: BASIS
    atoms 1-9, 20-21   entry C          line   138 file /theoryfs2/ds/metcalf/miniconda2/envs/tf2gpu/share/psi4/basis/cc-pvdz.gbs
    atoms 10           entry N          line   168 file /theoryfs2/ds/metcalf/miniconda2/envs/tf2gpu/share/psi4/basis/cc-pvdz.gbs
    atoms 11-19, 23-28 entry H          line    22 file /theoryfs2/ds/metcalf/miniconda2/envs/tf2gpu/share/psi4/basis/cc-pvdz.gbs
    atoms 22           entry O          line   198 file /theoryfs2/ds/metcalf/miniconda2/envs/tf2gpu/share/psi4/basis/cc-pvdz.gbs

         ---------------------------------------------------------
                                   SCF
               by Justin Turney, Rob Parrish, Andy Simmonett
                          and Daniel G. A. Smith
                              RHF Reference
                        1 Threads,    500 MiB Core
         ---------------------------------------------------------

  ==> Geometry <==

    Molecular point group: c1
    Full point group: C1

    Geometry (in Angstrom), charge = 0, multiplicity = 1:

       Center              X                  Y                   Z               Mass
    ------------   -----------------  -----------------  -----------------  -----------------
         C           -1.951129955773     1.991525463547     1.294609395282    12.000000000000
         C           -0.841129955773     1.519525463547     0.442609395282    12.000000000000
         C            0.447870044227     1.947525463547     0.449609395282    12.000000000000
         C           -0.934129955773     0.528525463547    -0.581390604718    12.000000000000
         C            0.356870044227     0.389525463547    -1.152390604718    12.000000000000
         C           -1.982129955773    -0.255474536453    -1.072390604718    12.000000000000
         C            0.612870044227    -0.492474536453    -2.184390604718    12.000000000000
         C           -1.727129955773    -1.137474536453    -2.096390604718    12.000000000000
         C           -0.443129955773    -1.254474536453    -2.644390604718    12.000000000000
         N            1.173870044227     1.270525463547    -0.502390604718    14.003074004430
         H           -1.549129955773     2.335525463547     2.247609395282     1.007825032230
         H           -2.604129955773     1.142525463547     1.502609395282     1.007825032230
         H            0.838870044227     2.714525463547     1.105609395282     1.007825032230
         H            2.153870044227     1.450525463547    -0.710390604718     1.007825032230
         H           -2.975129955773    -0.162474536453    -0.654390604718     1.007825032230
         H            1.601870044227    -0.571474536453    -2.609390604718     1.007825032230
         H           -2.533129955773    -1.744474536453    -2.481390604718     1.007825032230
         H           -0.281129955773    -1.949474536453    -3.455390604718     1.007825032230
         H           -2.542760955773     2.792395463547     0.827079395282     1.007825032230
         C            1.492870044227    -0.844474536453     2.419609395282    12.000000000000
         C            2.675870044227    -1.803474536453     2.587609395282    12.000000000000
         O            0.441870044227    -1.468474536453     1.702609395282    15.994914619570
         H            1.140870044227    -0.531474536453     3.401609395282     1.007825032230
         H            1.829870044227     0.042525463547     1.882609395282     1.007825032230
         H            3.377870044227    -1.352474536453     3.290609395282     1.007825032230
         H           -0.003129955773    -0.789474536453     1.176609395282     1.007825032230
         H            3.176023044227    -1.977735536453     1.623509395282     1.007825032230
         H            2.341903044227    -2.756838536453     3.022999395282     1.007825032230

  Running in c1 symmetry.

  Rotational constants: A =      0.03112  B =      0.02004  C =      0.01635 [cm^-1]
  Rotational constants: A =    932.95870  B =    600.83169  C =    490.10246 [MHz]
  Nuclear repulsion =  784.173027309868075

  Charge       = 0
  Multiplicity = 1
  Electrons    = 96
  Nalpha       = 48
  Nbeta        = 48

  ==> Algorithm <==

  SCF Algorithm Type is PK.
  DIIS enabled.
  MOM disabled.
  Fractional occupation disabled.
  Guess Type is SAD.
  Energy threshold   = 1.00e-06
  Density threshold  = 1.00e-10
  Integral threshold = 0.00e+00

  ==> Primary Basis <==

  Basis Set: CC-PVDZ
    Blend: CC-PVDZ
    Number of shells: 123
    Number of basis function: 257
    Number of Cartesian functions: 270
    Spherical Harmonics?: true
    Max angular momentum: 2

  ==> Pre-Iterations <==

   -------------------------------------------------------
    Irrep   Nso     Nmo     Nalpha   Nbeta   Ndocc  Nsocc
   -------------------------------------------------------
     A        257     257       0       0       0       0
   -------------------------------------------------------
    Total     257     257      48      48      48       0
   -------------------------------------------------------

  ==> Integral Setup <==

  Using integral reordering PK algorithm.
  Sizing the integral batches needed.
  Building batch lookup table.
   Calculation information:
      Number of atoms:                  28
      Number of AO shells:             123
      Number of primitives:            361
      Number of atomic orbitals:       270
      Number of basis functions:       257

      Integral cutoff                 1.00e-12
      Number of threads:                 1

	Batch   1 pq = [       0,    9405] index = [             0,44231715] size =     44231715
	Batch   2 pq = [    9405,   13301] index = [      44231715,88464951] size =     44233236
	Batch   3 pq = [   13301,   16290] index = [      88464951,132690195] size =     44225244
	Batch   4 pq = [   16290,   18810] index = [     132690195,176917455] size =     44227260
	Batch   5 pq = [   18810,   21030] index = [     176917455,221140965] size =     44223510
	Batch   6 pq = [   21030,   23037] index = [     221140965,265363203] size =     44222238
	Batch   7 pq = [   23037,   24883] index = [     265363203,309594286] size =     44231083
	Batch   8 pq = [   24883,   26601] index = [     309594286,353819901] size =     44225615
	Batch   9 pq = [   26601,   28214] index = [     353819901,398029005] size =     44209104
	Batch  10 pq = [   28214,   29740] index = [     398029005,442248670] size =     44219665
	Batch  11 pq = [   29740,   31191] index = [     442248670,486454836] size =     44206166
	Batch  12 pq = [   31191,   32578] index = [     486454836,530679331] size =     44224495
	Batch  13 pq = [   32578,   33153] index = [     530679331,549577281] size =     18897950
  Task number: 50
  Buffer size: 11059200
  Buffer per thread: 2
  We computed 31586080 shell quartets total.
  Whereas there are 29081751 unique shell quartets.
     8.61 percent of shell quartets recomputed by reordering.

  ==> DiskJK: Disk-Based J/K Matrices <==

    J tasked:                  Yes
    K tasked:                  Yes
    wK tasked:                  No
    Memory [MiB]:              375
    Schwarz Cutoff:          1E-12

    OpenMP threads:              1

  Minimum eigenvalue in the overlap matrix is 2.3281849883E-04.
  Using Symmetric Orthogonalization.

  SCF Guess: Superposition of Atomic Densities via on-the-fly atomic UHF.

  ==> Iterations <==

                        Total Energy        Delta E     RMS |[F,P]|

   @RHF iter SAD:  -553.94726453820749   -5.53947e+02   0.00000e+00
   @RHF iter   1:  -554.32465803848163   -3.77394e-01   2.65273e-03 DIIS
   @RHF iter   2:  -554.57177503105891   -2.47117e-01   1.25660e-03 DIIS
   @RHF iter   3:  -554.62076726171301   -4.89922e-02   3.08466e-04 DIIS
   @RHF iter   4:  -554.62495554600412   -4.18828e-03   1.29315e-04 DIIS
   @RHF iter   5:  -554.62558220083497   -6.26655e-04   2.24601e-05 DIIS
   @RHF iter   6:  -554.62561590029134   -3.36995e-05   1.08712e-05 DIIS
   @RHF iter   7:  -554.62562393927487   -8.03898e-06   3.79581e-06 DIIS
   @RHF iter   8:  -554.62562595693510   -2.01766e-06   1.57274e-06 DIIS
   @RHF iter   9:  -554.62562635658128   -3.99646e-07   7.26056e-07 DIIS
   @RHF iter  10:  -554.62562643661317   -8.00319e-08   3.23485e-07 DIIS
   @RHF iter  11:  -554.62562645664275   -2.00296e-08   1.25113e-07 DIIS
   @RHF iter  12:  -554.62562645933190   -2.68915e-09   4.93356e-08 DIIS
   @RHF iter  13:  -554.62562645960838   -2.76486e-10   1.56613e-08 DIIS
   @RHF iter  14:  -554.62562645962464   -1.62572e-11   5.62054e-09 DIIS
   @RHF iter  15:  -554.62562645963260   -7.95808e-12   2.16062e-09 DIIS
   @RHF iter  16:  -554.62562645963328   -6.82121e-13   1.02380e-09 DIIS
   @RHF iter  17:  -554.62562645963271    5.68434e-13   5.30894e-10 DIIS
   @RHF iter  18:  -554.62562645962566    7.04858e-12   1.93060e-10 DIIS
   @RHF iter  19:  -554.62562645962726   -1.59162e-12   8.28401e-11 DIIS
  Energy and wave function converged.

  ==> Post-Iterations <==

    Orbital Energies [Eh]
    ---------------------

    Doubly Occupied:

       1A    -20.525515     2A    -15.611405     3A    -11.271381
       4A    -11.270292     5A    -11.260649     6A    -11.234946
       7A    -11.234729     8A    -11.233602     9A    -11.230680
      10A    -11.225785    11A    -11.224287    12A    -11.224005
      13A    -11.212031    14A     -1.330399    15A     -1.306646
      16A     -1.138752    17A     -1.086740    18A     -1.007977
      19A     -0.996279    20A     -0.993621    21A     -0.940759
      22A     -0.847255    23A     -0.819519    24A     -0.813374
      25A     -0.761015    26A     -0.727637    27A     -0.679630
      28A     -0.670772    29A     -0.649602    30A     -0.624799
      31A     -0.610715    32A     -0.601052    33A     -0.599510
      34A     -0.576396    35A     -0.560715    36A     -0.548241
      37A     -0.547536    38A     -0.531799    39A     -0.524865
      40A     -0.511841    41A     -0.500744    42A     -0.478574
      43A     -0.474092    44A     -0.458486    45A     -0.416090
      46A     -0.382637    47A     -0.303556    48A     -0.283631

    Virtual:

      49A      0.118784    50A      0.164019    51A      0.166641
      52A      0.181034    53A      0.198116    54A      0.207966
      55A      0.213250    56A      0.224049    57A      0.228806
      58A      0.250632    59A      0.260536    60A      0.263807
      61A      0.265271    62A      0.277694    63A      0.285833
      64A      0.287774    65A      0.301809    66A      0.318517
      67A      0.372798    68A      0.381160    69A      0.400471
      70A      0.403897    71A      0.417357    72A      0.421347
      73A      0.443092    74A      0.468738    75A      0.475353
      76A      0.498123    77A      0.522005    78A      0.581287
      79A      0.595079    80A      0.616491    81A      0.619413
      82A      0.635762    83A      0.651672    84A      0.665269
      85A      0.682115    86A      0.690241    87A      0.691029
      88A      0.703849    89A      0.715259    90A      0.727993
      91A      0.733287    92A      0.740240    93A      0.742254
      94A      0.759300    95A      0.766835    96A      0.772106
      97A      0.781597    98A      0.790785    99A      0.793922
     100A      0.828983   101A      0.845521   102A      0.856008
     103A      0.868622   104A      0.875068   105A      0.876818
     106A      0.881595   107A      0.887164   108A      0.897968
     109A      0.905337   110A      0.906101   111A      0.909271
     112A      0.921204   113A      0.927765   114A      0.941010
     115A      0.945645   116A      0.963973   117A      0.967180
     118A      0.973392   119A      0.988463   120A      1.004587
     121A      1.014648   122A      1.062951   123A      1.084671
     124A      1.094178   125A      1.125247   126A      1.130733
     127A      1.134888   128A      1.146041   129A      1.152767
     130A      1.163545   131A      1.178406   132A      1.204767
     133A      1.225878   134A      1.226303   135A      1.235921
     136A      1.248622   137A      1.255925   138A      1.270466
     139A      1.287675   140A      1.297143   141A      1.321809
     142A      1.329054   143A      1.354852   144A      1.364206
     145A      1.379628   146A      1.404416   147A      1.414042
     148A      1.440630   149A      1.479416   150A      1.502803
     151A      1.515097   152A      1.536354   153A      1.562417
     154A      1.573307   155A      1.581824   156A      1.594324
     157A      1.632855   158A      1.644163   159A      1.655881
     160A      1.685499   161A      1.690170   162A      1.697784
     163A      1.720574   164A      1.744521   165A      1.758968
     166A      1.770648   167A      1.786155   168A      1.803132
     169A      1.811649   170A      1.832256   171A      1.866070
     172A      1.869997   173A      1.876567   174A      1.890743
     175A      1.898484   176A      1.903348   177A      1.911832
     178A      1.917817   179A      1.924583   180A      1.933432
     181A      1.940350   182A      1.943735   183A      1.952465
     184A      1.963818   185A      1.981357   186A      1.986888
     187A      2.007433   188A      2.013881   189A      2.021426
     190A      2.029048   191A      2.032489   192A      2.066406
     193A      2.078437   194A      2.089868   195A      2.098626
     196A      2.107809   197A      2.112675   198A      2.123976
     199A      2.131208   200A      2.148427   201A      2.161397
     202A      2.173636   203A      2.181037   204A      2.204164
     205A      2.230992   206A      2.260125   207A      2.263392
     208A      2.297241   209A      2.304849   210A      2.311080
     211A      2.328792   212A      2.330461   213A      2.342947
     214A      2.366565   215A      2.408148   216A      2.423845
     217A      2.450752   218A      2.462755   219A      2.495659
     220A      2.527529   221A      2.556421   222A      2.560347
     223A      2.586893   224A      2.601910   225A      2.626508
     226A      2.664785   227A      2.690309   228A      2.705861
     229A      2.708654   230A      2.763471   231A      2.767129
     232A      2.773625   233A      2.782606   234A      2.794665
     235A      2.813925   236A      2.834667   237A      2.848705
     238A      2.864706   239A      2.882026   240A      2.894883
     241A      2.923932   242A      2.955561   243A      2.980591
     244A      3.042621   245A      3.081725   246A      3.091558
     247A      3.134002   248A      3.212299   249A      3.320166
     250A      3.358146   251A      3.384606   252A      3.457030
     253A      3.498396   254A      3.655404   255A      3.753296
     256A      3.968880   257A      4.193376

    Final Occupation by Irrep:
              A
    DOCC [    48 ]

  @RHF Final Energy:  -554.62562645962726

   => Energetics <=

    Nuclear Repulsion Energy =            784.1730273098680755
    One-Electron Energy =               -2309.4681780427808917
    Two-Electron Energy =                 970.6695242732855604
    Total Energy =                       -554.6256264596272558

Computation Completed

Properties will be evaluated at   0.000000,   0.000000,   0.000000 [a0]

Properties computed using the SCF density matrix

  Nuclear Dipole Moment: [e a0]
     X:     3.7229      Y:    -1.2837      Z:     9.5436

  Electronic Dipole Moment: [e a0]
     X:    -3.0540      Y:     2.3885      Z:    -9.6808

  Dipole Moment: [e a0]
     X:     0.6689      Y:     1.1048      Z:    -0.1372     Total:     1.2988

  Dipole Moment: [D]
     X:     1.7002      Y:     2.8082      Z:    -0.3488     Total:     3.3013

*** tstop() called on ds3 at Mon Apr 27 22:36:35 2020
Module time:
	user time   =     282.46 seconds =       4.71 minutes
	system time =     105.26 seconds =       1.75 minutes
	total time  =        393 seconds =       6.55 minutes
Total time:
	user time   =     282.46 seconds =       4.71 minutes
	system time =     105.26 seconds =       1.75 minutes
	total time  =        393 seconds =       6.55 minutes
                                     G D M A

                                 by Anthony Stone

                           version 2.2.06, 22 June 2011

               Distributed Multipoles from Gaussian wavefunctions

Starting at 22:36:35 on 27 Apr 2020

Using SCF density matrix from file ./SSI/SSI-125TRP-138SER-1-dimer.test.31064.fchk

                         Distributed Multipole Analysis

Standard DMA

Positions and radii in angstrom
Multipole moments in atomic units, ea_0^k for rank k

C          x = -1.951130  y =  1.991525  z =  1.294609 angstrom
           Maximum rank =  0   Radius =  0.650 angstrom
                   Q00  =  -0.212629

C          x = -0.841130  y =  1.519525  z =  0.442609 angstrom
           Maximum rank =  0   Radius =  0.650 angstrom
                   Q00  =  -0.115921

C          x =  0.447870  y =  1.947525  z =  0.449609 angstrom
           Maximum rank =  0   Radius =  0.650 angstrom
                   Q00  =   0.069076

C          x = -0.934130  y =  0.528525  z = -0.581391 angstrom
           Maximum rank =  0   Radius =  0.650 angstrom
                   Q00  =  -0.088407

C          x =  0.356870  y =  0.389525  z = -1.152391 angstrom
           Maximum rank =  0   Radius =  0.650 angstrom
                   Q00  =   0.208361

C          x = -1.982130  y = -0.255475  z = -1.072391 angstrom
           Maximum rank =  0   Radius =  0.650 angstrom
                   Q00  =  -0.089679

C          x =  0.612870  y = -0.492475  z = -2.184391 angstrom
           Maximum rank =  0   Radius =  0.650 angstrom
                   Q00  =  -0.112561

C          x = -1.727130  y = -1.137475  z = -2.096391 angstrom
           Maximum rank =  0   Radius =  0.650 angstrom
                   Q00  =  -0.087332

C          x = -0.443130  y = -1.254475  z = -2.644391 angstrom
           Maximum rank =  0   Radius =  0.650 angstrom
                   Q00  =   0.006651

N          x =  1.173870  y =  1.270525  z = -0.502391 angstrom
           Maximum rank =  0   Radius =  0.650 angstrom
                   Q00  =  -0.479144

H          x = -1.549130  y =  2.335525  z =  2.247609 angstrom
           Maximum rank =  0   Radius =  0.325 angstrom
                   Q00  =   0.105809

H          x = -2.604130  y =  1.142525  z =  1.502609 angstrom
           Maximum rank =  0   Radius =  0.325 angstrom
                   Q00  =   0.103970

H          x =  0.838870  y =  2.714525  z =  1.105609 angstrom
           Maximum rank =  0   Radius =  0.325 angstrom
                   Q00  =   0.101064

H          x =  2.153870  y =  1.450525  z = -0.710391 angstrom
           Maximum rank =  0   Radius =  0.325 angstrom
                   Q00  =   0.224445

H          x = -2.975130  y = -0.162475  z = -0.654391 angstrom
           Maximum rank =  0   Radius =  0.325 angstrom
                   Q00  =   0.072619

H          x =  1.601870  y = -0.571475  z = -2.609391 angstrom
           Maximum rank =  0   Radius =  0.325 angstrom
                   Q00  =   0.075668

H          x = -2.533130  y = -1.744475  z = -2.481391 angstrom
           Maximum rank =  0   Radius =  0.325 angstrom
                   Q00  =   0.062864

H          x = -0.281130  y = -1.949475  z = -3.455391 angstrom
           Maximum rank =  0   Radius =  0.325 angstrom
                   Q00  =   0.067310

H          x = -2.542761  y =  2.792395  z =  0.827079 angstrom
           Maximum rank =  0   Radius =  0.325 angstrom
                   Q00  =   0.102399

C          x =  1.492870  y = -0.844475  z =  2.419609 angstrom
           Maximum rank =  0   Radius =  0.650 angstrom
                   Q00  =   0.128081

C          x =  2.675870  y = -1.803475  z =  2.587609 angstrom
           Maximum rank =  0   Radius =  0.650 angstrom
                   Q00  =  -0.248565

O          x =  0.441870  y = -1.468475  z =  1.702609 angstrom
           Maximum rank =  0   Radius =  0.650 angstrom
                   Q00  =  -0.645366

H          x =  1.140870  y = -0.531475  z =  3.401609 angstrom
           Maximum rank =  0   Radius =  0.325 angstrom
                   Q00  =   0.035968

H          x =  1.829870  y =  0.042525  z =  1.882609 angstrom
           Maximum rank =  0   Radius =  0.325 angstrom
                   Q00  =   0.021103

H          x =  3.377870  y = -1.352475  z =  3.290609 angstrom
           Maximum rank =  0   Radius =  0.325 angstrom
                   Q00  =   0.072740

H          x = -0.003130  y = -0.789475  z =  1.176609 angstrom
           Maximum rank =  0   Radius =  0.325 angstrom
                   Q00  =   0.446602

H          x =  3.176023  y = -1.977736  z =  1.623509 angstrom
           Maximum rank =  0   Radius =  0.325 angstrom
                   Q00  =   0.080816

H          x =  2.341903  y = -2.756839  z =  3.022999 angstrom
           Maximum rank =  0   Radius =  0.325 angstrom
                   Q00  =   0.094057

Total multipoles referred to origin at
           x =   0.000000,  y =    0.000000,  z =    0.000000 angstrom
                   Q00  =  -0.000000

Finished at 22:36:35 on 27 Apr 2020

  DMA results are available in the Python driver through the
	  variable('DMA DISTRIBUTED MULTIPOLES')
  and
	  variable('DMA TOTAL MULTIPOLES')
  commands.

    Psi4 stopped on: Monday, 27 April 2020 10:36PM
    Psi4 wall time for execution: 0:06:33.50

*** Psi4 exiting successfully. Buy a developer a beer!
