                               Psi4 1.3.2 release

  ==> Input File <==

--------------------------------------------------------------------------
import numpy as np
set {scf_type pk
basis cc-pvdz
d_convergence 10
gdma_switch   0
gdma_limit    0
gdma_origin   [ 0.0,  0.0,  0.0 ]
}
molecule test {
    units Angstrom
    0 1
    --
    0 1
    C               -1.854333784342613    -0.244867046539602    -1.805247911602025
    C               -3.139333784342613    -1.094867046539602    -1.742247911602026
    C               -1.471333784342613     0.383132953460398    -3.145247911602026
    H               -1.921333784342613     0.550132953460398    -1.063247911602025
    H               -1.025333784342613    -0.891867046539602    -1.516247911602025
    H               -3.199333784342613    -1.725867046539602    -2.632247911602025
    H               -1.382333784342613    -0.402867046539602    -3.894247911602025
    H               -4.014923784342613    -0.435932046539602    -1.646617911602025
    H               -3.087863784342613    -1.724790046539602    -0.841947911602025
    H               -2.243773784342613     1.093078953460398    -3.475877911602026
    H               -0.480903784342613     0.843631953460398    -3.014887911602026
    C               -0.570333784342613     0.814132953460398     1.668752088397975
    C               -0.721333784342613     0.209132953460398     3.070752088397974
    C                0.693666215657387     0.400132953460398     0.973752088397975
    C                1.809666215657387     1.120132953460398     0.679752088397975
    C                2.139666215657387    -0.934867046539602    -0.009247911602025
    N                0.930666215657387    -0.880867046539602     0.539752088397975
    N                2.701666215657387     0.265132953460398     0.061752088397975
    H               -1.427333784342613     0.527132953460398     1.067752088397975
    H               -0.568333784342613     1.903132953460398     1.741752088397975
    H                0.164666215657387     0.469132953460398     3.652752088397974
    H                1.968666215657387     2.165132953460398     0.912752088397975
    H                2.611666215657387    -1.829867046539602    -0.374247911602025
    H                3.651666215657387     0.480132953460398    -0.219247911602025
    H               -0.848313784342613    -0.883325046539602     3.050466088397974
    H               -1.591843784342613     0.654221953460398     3.574846088397974

}
e, wfn = energy('scf', return_wfn=True)
gdma(wfn)
dmavals = variable('DMA DISTRIBUTED MULTIPOLES')
charges = np.array(dmavals)
print(charges)
np.save('SSI-092LEU-095HIE-1-dimer.npy', np.array(charges))--------------------------------------------------------------------------

*** tstart() called on ds3
*** at Tue Apr 28 13:54:58 2020

   => Loading Basis Set <=

    Name: CC-PVDZ
    Role: ORBITAL
    Keyword: BASIS
    atoms 1-3, 12-16  entry C          line   138 file /theoryfs2/ds/metcalf/miniconda2/envs/tf2gpu/share/psi4/basis/cc-pvdz.gbs
    atoms 4-11, 19-26 entry H          line    22 file /theoryfs2/ds/metcalf/miniconda2/envs/tf2gpu/share/psi4/basis/cc-pvdz.gbs
    atoms 17-18       entry N          line   168 file /theoryfs2/ds/metcalf/miniconda2/envs/tf2gpu/share/psi4/basis/cc-pvdz.gbs

         ---------------------------------------------------------
                                   SCF
               by Justin Turney, Rob Parrish, Andy Simmonett
                          and Daniel G. A. Smith
                              RHF Reference
                        1 Threads,    500 MiB Core
         ---------------------------------------------------------

  ==> Geometry <==

    Molecular point group: c1
    Full point group: C1

    Geometry (in Angstrom), charge = 0, multiplicity = 1:

       Center              X                  Y                   Z               Mass
    ------------   -----------------  -----------------  -----------------  -----------------
         C           -1.854333784343    -0.244867046540    -1.805247911602    12.000000000000
         C           -3.139333784343    -1.094867046540    -1.742247911602    12.000000000000
         C           -1.471333784343     0.383132953460    -3.145247911602    12.000000000000
         H           -1.921333784343     0.550132953460    -1.063247911602     1.007825032230
         H           -1.025333784343    -0.891867046540    -1.516247911602     1.007825032230
         H           -3.199333784343    -1.725867046540    -2.632247911602     1.007825032230
         H           -1.382333784343    -0.402867046540    -3.894247911602     1.007825032230
         H           -4.014923784343    -0.435932046540    -1.646617911602     1.007825032230
         H           -3.087863784343    -1.724790046540    -0.841947911602     1.007825032230
         H           -2.243773784343     1.093078953460    -3.475877911602     1.007825032230
         H           -0.480903784343     0.843631953460    -3.014887911602     1.007825032230
         C           -0.570333784343     0.814132953460     1.668752088398    12.000000000000
         C           -0.721333784343     0.209132953460     3.070752088398    12.000000000000
         C            0.693666215657     0.400132953460     0.973752088398    12.000000000000
         C            1.809666215657     1.120132953460     0.679752088398    12.000000000000
         C            2.139666215657    -0.934867046540    -0.009247911602    12.000000000000
         N            0.930666215657    -0.880867046540     0.539752088398    14.003074004430
         N            2.701666215657     0.265132953460     0.061752088398    14.003074004430
         H           -1.427333784343     0.527132953460     1.067752088398     1.007825032230
         H           -0.568333784343     1.903132953460     1.741752088398     1.007825032230
         H            0.164666215657     0.469132953460     3.652752088398     1.007825032230
         H            1.968666215657     2.165132953460     0.912752088398     1.007825032230
         H            2.611666215657    -1.829867046540    -0.374247911602     1.007825032230
         H            3.651666215657     0.480132953460    -0.219247911602     1.007825032230
         H           -0.848313784343    -0.883325046540     3.050466088398     1.007825032230
         H           -1.591843784343     0.654221953460     3.574846088398     1.007825032230

  Running in c1 symmetry.

  Rotational constants: A =      0.04584  B =      0.02278  C =      0.01773 [cm^-1]
  Rotational constants: A =   1374.10369  B =    683.05532  C =    531.62261 [MHz]
  Nuclear repulsion =  518.505764953921130

  Charge       = 0
  Multiplicity = 1
  Electrons    = 78
  Nalpha       = 39
  Nbeta        = 39

  ==> Algorithm <==

  SCF Algorithm Type is PK.
  DIIS enabled.
  MOM disabled.
  Fractional occupation disabled.
  Guess Type is SAD.
  Energy threshold   = 1.00e-06
  Density threshold  = 1.00e-10
  Integral threshold = 0.00e+00

  ==> Primary Basis <==

  Basis Set: CC-PVDZ
    Blend: CC-PVDZ
    Number of shells: 108
    Number of basis function: 220
    Number of Cartesian functions: 230
    Spherical Harmonics?: true
    Max angular momentum: 2

  ==> Pre-Iterations <==

   -------------------------------------------------------
    Irrep   Nso     Nmo     Nalpha   Nbeta   Ndocc  Nsocc
   -------------------------------------------------------
     A        220     220       0       0       0       0
   -------------------------------------------------------
    Total     220     220      39      39      39       0
   -------------------------------------------------------

  ==> Integral Setup <==

  Using integral reordering PK algorithm.
  Sizing the integral batches needed.
  Building batch lookup table.
   Calculation information:
      Number of atoms:                  26
      Number of AO shells:             108
      Number of primitives:            300
      Number of atomic orbitals:       230
      Number of basis functions:       220

      Integral cutoff                 1.00e-12
      Number of threads:                 1

	Batch   1 pq = [       0,    9405] index = [             0,44231715] size =     44231715
	Batch   2 pq = [    9405,   13301] index = [      44231715,88464951] size =     44233236
	Batch   3 pq = [   13301,   16290] index = [      88464951,132690195] size =     44225244
	Batch   4 pq = [   16290,   18810] index = [     132690195,176917455] size =     44227260
	Batch   5 pq = [   18810,   21030] index = [     176917455,221140965] size =     44223510
	Batch   6 pq = [   21030,   23037] index = [     221140965,265363203] size =     44222238
	Batch   7 pq = [   23037,   24310] index = [     265363203,295500205] size =     30137002
  Task number: 27
  Buffer size: 11059200
  Buffer per thread: 2
  We computed 15426328 shell quartets total.
  Whereas there are 17325441 unique shell quartets.

  ==> DiskJK: Disk-Based J/K Matrices <==

    J tasked:                  Yes
    K tasked:                  Yes
    wK tasked:                  No
    Memory [MiB]:              375
    Schwarz Cutoff:          1E-12

    OpenMP threads:              1

  Minimum eigenvalue in the overlap matrix is 1.1508537085E-03.
  Using Symmetric Orthogonalization.

  SCF Guess: Superposition of Atomic Densities via on-the-fly atomic UHF.

  ==> Iterations <==

                        Total Energy        Delta E     RMS |[F,P]|

   @RHF iter SAD:  -420.18258837275948   -4.20183e+02   0.00000e+00
   @RHF iter   1:  -420.89851709919111   -7.15929e-01   2.94034e-03 DIIS
   @RHF iter   2:  -421.11828131303150   -2.19764e-01   1.49808e-03 DIIS
   @RHF iter   3:  -421.17063114251079   -5.23498e-02   3.89444e-04 DIIS
   @RHF iter   4:  -421.17517332106843   -4.54218e-03   1.66280e-04 DIIS
   @RHF iter   5:  -421.17592335829710   -7.50037e-04   2.23381e-05 DIIS
   @RHF iter   6:  -421.17594714353504   -2.37852e-05   8.95537e-06 DIIS
   @RHF iter   7:  -421.17595035608502   -3.21255e-06   3.00894e-06 DIIS
   @RHF iter   8:  -421.17595094659765   -5.90513e-07   1.24408e-06 DIIS
   @RHF iter   9:  -421.17595108319767   -1.36600e-07   4.43750e-07 DIIS
   @RHF iter  10:  -421.17595109960428   -1.64066e-08   1.42574e-07 DIIS
   @RHF iter  11:  -421.17595110163523   -2.03096e-09   6.02220e-08 DIIS
   @RHF iter  12:  -421.17595110188495   -2.49713e-10   2.45077e-08 DIIS
   @RHF iter  13:  -421.17595110192428   -3.93356e-11   7.97212e-09 DIIS
   @RHF iter  14:  -421.17595110193167   -7.38964e-12   2.64039e-09 DIIS
   @RHF iter  15:  -421.17595110193184   -1.70530e-13   9.90692e-10 DIIS
   @RHF iter  16:  -421.17595110193241   -5.68434e-13   3.77096e-10 DIIS
   @RHF iter  17:  -421.17595110193150    9.09495e-13   1.47615e-10 DIIS
   @RHF iter  18:  -421.17595110193406   -2.55795e-12   3.79523e-11 DIIS
  Energy and wave function converged.

  ==> Post-Iterations <==

    Orbital Energies [Eh]
    ---------------------

    Doubly Occupied:

       1A    -15.623313     2A    -15.529474     3A    -11.293832
       4A    -11.252258     5A    -11.240068     6A    -11.224417
       7A    -11.214378     8A    -11.207288     9A    -11.207108
      10A    -11.201971    11A     -1.343244    12A     -1.157337
      13A     -1.049274    14A     -1.036158    15A     -0.984685
      16A     -0.914931    17A     -0.858632    18A     -0.821012
      19A     -0.778859    20A     -0.761305    21A     -0.737191
      22A     -0.623388    23A     -0.611566    24A     -0.606519
      25A     -0.596609    26A     -0.584580    27A     -0.579550
      28A     -0.562500    29A     -0.540288    30A     -0.525038
      31A     -0.511875    32A     -0.490390    33A     -0.483124
      34A     -0.459365    35A     -0.451581    36A     -0.447141
      37A     -0.409293    38A     -0.379035    39A     -0.310533

    Virtual:

      40A      0.171583    41A      0.181559    42A      0.187978
      43A      0.200389    44A      0.214968    45A      0.225447
      46A      0.235628    47A      0.243974    48A      0.245892
      49A      0.250964    50A      0.262526    51A      0.280335
      52A      0.283003    53A      0.286853    54A      0.296366
      55A      0.304045    56A      0.314412    57A      0.360032
      58A      0.379505    59A      0.385266    60A      0.394649
      61A      0.409512    62A      0.440099    63A      0.447643
      64A      0.485575    65A      0.486763    66A      0.579622
      67A      0.596560    68A      0.603990    69A      0.618318
      70A      0.625340    71A      0.633403    72A      0.641528
      73A      0.650295    74A      0.661070    75A      0.673721
      76A      0.712587    77A      0.723324    78A      0.745648
      79A      0.765286    80A      0.775217    81A      0.782867
      82A      0.801395    83A      0.820106    84A      0.832633
      85A      0.850067    86A      0.864686    87A      0.889791
      88A      0.890414    89A      0.899870    90A      0.904968
      91A      0.908390    92A      0.909701    93A      0.914180
      94A      0.917650    95A      0.920758    96A      0.929790
      97A      0.930889    98A      0.951239    99A      0.954667
     100A      0.966888   101A      0.972356   102A      0.983951
     103A      0.996080   104A      1.014990   105A      1.030546
     106A      1.051622   107A      1.072356   108A      1.096660
     109A      1.113193   110A      1.125908   111A      1.130978
     112A      1.132445   113A      1.164678   114A      1.204516
     115A      1.237873   116A      1.255016   117A      1.276204
     118A      1.307652   119A      1.316524   120A      1.335947
     121A      1.390231   122A      1.409576   123A      1.412543
     124A      1.419968   125A      1.457811   126A      1.484342
     127A      1.498665   128A      1.516630   129A      1.541788
     130A      1.552394   131A      1.564164   132A      1.597006
     133A      1.654150   134A      1.670226   135A      1.683165
     136A      1.691934   137A      1.698425   138A      1.710866
     139A      1.729676   140A      1.752113   141A      1.775350
     142A      1.830292   143A      1.839485   144A      1.865582
     145A      1.873001   146A      1.879013   147A      1.888888
     148A      1.899728   149A      1.918480   150A      1.921353
     151A      1.924546   152A      1.930682   153A      1.945266
     154A      1.957005   155A      1.960866   156A      1.974335
     157A      1.976969   158A      1.988247   159A      1.994733
     160A      2.003143   161A      2.006958   162A      2.022994
     163A      2.026213   164A      2.032738   165A      2.050912
     166A      2.062389   167A      2.071493   168A      2.091639
     169A      2.131165   170A      2.136325   171A      2.152819
     172A      2.165394   173A      2.196670   174A      2.218316
     175A      2.257035   176A      2.279438   177A      2.285803
     178A      2.297031   179A      2.318582   180A      2.337181
     181A      2.342751   182A      2.372633   183A      2.392781
     184A      2.444694   185A      2.451731   186A      2.489271
     187A      2.493794   188A      2.502389   189A      2.546139
     190A      2.566856   191A      2.587620   192A      2.594775
     193A      2.606867   194A      2.629644   195A      2.647492
     196A      2.684967   197A      2.740469   198A      2.754152
     199A      2.768204   200A      2.770970   201A      2.776329
     202A      2.792639   203A      2.806432   204A      2.818126
     205A      2.847097   206A      2.873822   207A      2.897581
     208A      2.904739   209A      2.915893   210A      2.942583
     211A      2.953812   212A      2.956260   213A      2.975618
     214A      3.015060   215A      3.081128   216A      3.097650
     217A      3.176639   218A      3.268455   219A      3.475447
     220A      3.792151

    Final Occupation by Irrep:
              A
    DOCC [    39 ]

  @RHF Final Energy:  -421.17595110193406

   => Energetics <=

    Nuclear Repulsion Energy =            518.5057649539211297
    One-Electron Energy =               -1598.1452143893288849
    Two-Electron Energy =                 658.4634983334735807
    Total Energy =                       -421.1759511019340607

Computation Completed

Properties will be evaluated at   0.000000,   0.000000,   0.000000 [a0]

Properties computed using the SCF density matrix

  Nuclear Dipole Moment: [e a0]
     X:   -12.5679      Y:     0.7435      Z:    -4.3877

  Electronic Dipole Moment: [e a0]
     X:    13.8675      Y:    -0.1438      Z:     4.2493

  Dipole Moment: [e a0]
     X:     1.2996      Y:     0.5997      Z:    -0.1384     Total:     1.4380

  Dipole Moment: [D]
     X:     3.3033      Y:     1.5243      Z:    -0.3517     Total:     3.6550

*** tstop() called on ds3 at Tue Apr 28 13:58:37 2020
Module time:
	user time   =     110.79 seconds =       1.85 minutes
	system time =      49.22 seconds =       0.82 minutes
	total time  =        219 seconds =       3.65 minutes
Total time:
	user time   =     110.79 seconds =       1.85 minutes
	system time =      49.22 seconds =       0.82 minutes
	total time  =        219 seconds =       3.65 minutes
                                     G D M A

                                 by Anthony Stone

                           version 2.2.06, 22 June 2011

               Distributed Multipoles from Gaussian wavefunctions

Starting at 13:58:37 on 28 Apr 2020

Using SCF density matrix from file ./SSI/SSI-092LEU-095HIE-1-dimer.test.30100.fchk

                         Distributed Multipole Analysis

Standard DMA

Positions and radii in angstrom
Multipole moments in atomic units, ea_0^k for rank k

C          x = -1.854334  y = -0.244867  z = -1.805248 angstrom
           Maximum rank =  0   Radius =  0.650 angstrom
                   Q00  =  -0.079874

C          x = -3.139334  y = -1.094867  z = -1.742248 angstrom
           Maximum rank =  0   Radius =  0.650 angstrom
                   Q00  =  -0.246413

C          x = -1.471334  y =  0.383133  z = -3.145248 angstrom
           Maximum rank =  0   Radius =  0.650 angstrom
                   Q00  =  -0.239658

H          x = -1.921334  y =  0.550133  z = -1.063248 angstrom
           Maximum rank =  0   Radius =  0.325 angstrom
                   Q00  =   0.035679

H          x = -1.025334  y = -0.891867  z = -1.516248 angstrom
           Maximum rank =  0   Radius =  0.325 angstrom
                   Q00  =   0.060907

H          x = -3.199334  y = -1.725867  z = -2.632248 angstrom
           Maximum rank =  0   Radius =  0.325 angstrom
                   Q00  =   0.077002

H          x = -1.382334  y = -0.402867  z = -3.894248 angstrom
           Maximum rank =  0   Radius =  0.325 angstrom
                   Q00  =   0.072803

H          x = -4.014924  y = -0.435932  z = -1.646618 angstrom
           Maximum rank =  0   Radius =  0.325 angstrom
                   Q00  =   0.071516

H          x = -3.087864  y = -1.724790  z = -0.841948 angstrom
           Maximum rank =  0   Radius =  0.325 angstrom
                   Q00  =   0.090633

H          x = -2.243774  y =  1.093079  z = -3.475878 angstrom
           Maximum rank =  0   Radius =  0.325 angstrom
                   Q00  =   0.071045

H          x = -0.480904  y =  0.843632  z = -3.014888 angstrom
           Maximum rank =  0   Radius =  0.325 angstrom
                   Q00  =   0.082723

C          x = -0.570334  y =  0.814133  z =  1.668752 angstrom
           Maximum rank =  0   Radius =  0.650 angstrom
                   Q00  =  -0.026589

C          x = -0.721334  y =  0.209133  z =  3.070752 angstrom
           Maximum rank =  0   Radius =  0.650 angstrom
                   Q00  =  -0.238333

C          x =  0.693666  y =  0.400133  z =  0.973752 angstrom
           Maximum rank =  0   Radius =  0.650 angstrom
                   Q00  =   0.219532

C          x =  1.809666  y =  1.120133  z =  0.679752 angstrom
           Maximum rank =  0   Radius =  0.650 angstrom
                   Q00  =  -0.007895

C          x =  2.139666  y = -0.934867  z = -0.009248 angstrom
           Maximum rank =  0   Radius =  0.650 angstrom
                   Q00  =   0.465417

N          x =  0.930666  y = -0.880867  z =  0.539752 angstrom
           Maximum rank =  0   Radius =  0.650 angstrom
                   Q00  =  -0.782516

N          x =  2.701666  y =  0.265133  z =  0.061752 angstrom
           Maximum rank =  0   Radius =  0.650 angstrom
                   Q00  =  -0.471905

H          x = -1.427334  y =  0.527133  z =  1.067752 angstrom
           Maximum rank =  0   Radius =  0.325 angstrom
                   Q00  =   0.086007

H          x = -0.568334  y =  1.903133  z =  1.741752 angstrom
           Maximum rank =  0   Radius =  0.325 angstrom
                   Q00  =   0.058606

H          x =  0.164666  y =  0.469133  z =  3.652752 angstrom
           Maximum rank =  0   Radius =  0.325 angstrom
                   Q00  =   0.075748

H          x =  1.968666  y =  2.165133  z =  0.912752 angstrom
           Maximum rank =  0   Radius =  0.325 angstrom
                   Q00  =   0.103095

H          x =  2.611666  y = -1.829867  z = -0.374248 angstrom
           Maximum rank =  0   Radius =  0.325 angstrom
                   Q00  =   0.122638

H          x =  3.651666  y =  0.480133  z = -0.219248 angstrom
           Maximum rank =  0   Radius =  0.325 angstrom
                   Q00  =   0.222938

H          x = -0.848314  y = -0.883325  z =  3.050466 angstrom
           Maximum rank =  0   Radius =  0.325 angstrom
                   Q00  =   0.099173

H          x = -1.591844  y =  0.654222  z =  3.574846 angstrom
           Maximum rank =  0   Radius =  0.325 angstrom
                   Q00  =   0.077719

Total multipoles referred to origin at
           x =   0.000000,  y =    0.000000,  z =    0.000000 angstrom
                   Q00  =  -0.000000

Finished at 13:58:37 on 28 Apr 2020

  DMA results are available in the Python driver through the
	  variable('DMA DISTRIBUTED MULTIPOLES')
  and
	  variable('DMA TOTAL MULTIPOLES')
  commands.

    Psi4 stopped on: Tuesday, 28 April 2020 01:58PM
    Psi4 wall time for execution: 0:03:39.32

*** Psi4 exiting successfully. Buy a developer a beer!
