                               Psi4 1.3.2 release

  ==> Input File <==

--------------------------------------------------------------------------
import numpy as np
set {scf_type pk
basis cc-pvdz
d_convergence 10
gdma_switch   0
gdma_limit    0
gdma_origin   [ 0.0,  0.0,  0.0 ]
}
molecule test {
    units Angstrom
    0 1
    --
    0 1
    C               -0.208774864604784     2.181439765040448     2.165962453038591
    C                1.068225135395216     0.761439765040447     0.523962453038591
    C                0.309225135395216     1.890439765040447     0.772962453038591
    C                1.547225135395216     0.522439765040447    -0.743037546961409
    C                1.273225135395216     1.405439765040447    -1.783037546961409
    C                0.018225135395216     2.749439765040448    -0.284037546961409
    C                0.514225135395216     2.506439765040448    -1.554037546961409
    H                1.295225135395216     0.069439765040447     1.323962453038591
    H                2.149225135395216    -0.349560234959553    -0.934037546961409
    H               -0.198774864604784     3.258439765040448     2.332962453038591
    H                0.470225135395216     1.734439765040447     2.891962453038591
    H                1.659225135395216     1.212439765040447    -2.774037546961409
    H               -0.591774864604784     3.623439765040448    -0.118037546961409
    H                0.274225135395216     3.170439765040447    -2.367037546961409
    H               -1.220884864604784     1.790330765040447     2.346696453038591
    C               -0.958774864604784    -2.366560234959552     0.211962453038591
    C               -2.215774864604784    -2.912560234959552     0.902962453038591
    C                0.261225135395216    -3.088560234959552     0.769962453038591
    C               -1.088774864604784    -2.523560234959553    -1.320037546961409
    H               -0.862774864604784    -1.303560234959553     0.436962453038591
    H               -2.327774864604784    -3.959560234959552     0.621962453038591
    H                0.147225135395216    -4.167560234959553     0.652962453038591
    H                1.145225135395216    -2.769560234959553     0.217962453038591
    H                0.426225135395216    -2.842560234959553     1.818962453038591
    H               -1.982774864604784    -2.024560234959553    -1.690037546961409
    H               -0.219774864604784    -2.074560234959553    -1.803037546961409
    H               -1.121774864604784    -3.581560234959552    -1.573037546961409
    H               -3.118404864604784    -2.348601234959553     0.625113453038591
    H               -2.107404864604784    -2.842479234959553     1.995365453038591

}
e, wfn = energy('scf', return_wfn=True)
gdma(wfn)
dmavals = variable('DMA DISTRIBUTED MULTIPOLES')
charges = np.array(dmavals)
print(charges)
np.save('SSI-027PHE-057VAL-1-dimer.npy', np.array(charges))--------------------------------------------------------------------------

*** tstart() called on ds3
*** at Sun Apr 26 23:45:54 2020

   => Loading Basis Set <=

    Name: CC-PVDZ
    Role: ORBITAL
    Keyword: BASIS
    atoms 1-7, 16-19  entry C          line   138 file /theoryfs2/ds/metcalf/miniconda2/envs/tf2gpu/share/psi4/basis/cc-pvdz.gbs
    atoms 8-15, 20-29 entry H          line    22 file /theoryfs2/ds/metcalf/miniconda2/envs/tf2gpu/share/psi4/basis/cc-pvdz.gbs

         ---------------------------------------------------------
                                   SCF
               by Justin Turney, Rob Parrish, Andy Simmonett
                          and Daniel G. A. Smith
                              RHF Reference
                        1 Threads,    500 MiB Core
         ---------------------------------------------------------

  ==> Geometry <==

    Molecular point group: c1
    Full point group: C1

    Geometry (in Angstrom), charge = 0, multiplicity = 1:

       Center              X                  Y                   Z               Mass
    ------------   -----------------  -----------------  -----------------  -----------------
         C           -0.208774864605     2.181439765040     2.165962453039    12.000000000000
         C            1.068225135395     0.761439765040     0.523962453039    12.000000000000
         C            0.309225135395     1.890439765040     0.772962453039    12.000000000000
         C            1.547225135395     0.522439765040    -0.743037546961    12.000000000000
         C            1.273225135395     1.405439765040    -1.783037546961    12.000000000000
         C            0.018225135395     2.749439765040    -0.284037546961    12.000000000000
         C            0.514225135395     2.506439765040    -1.554037546961    12.000000000000
         H            1.295225135395     0.069439765040     1.323962453039     1.007825032230
         H            2.149225135395    -0.349560234960    -0.934037546961     1.007825032230
         H           -0.198774864605     3.258439765040     2.332962453039     1.007825032230
         H            0.470225135395     1.734439765040     2.891962453039     1.007825032230
         H            1.659225135395     1.212439765040    -2.774037546961     1.007825032230
         H           -0.591774864605     3.623439765040    -0.118037546961     1.007825032230
         H            0.274225135395     3.170439765040    -2.367037546961     1.007825032230
         H           -1.220884864605     1.790330765040     2.346696453039     1.007825032230
         C           -0.958774864605    -2.366560234960     0.211962453039    12.000000000000
         C           -2.215774864605    -2.912560234960     0.902962453039    12.000000000000
         C            0.261225135395    -3.088560234960     0.769962453039    12.000000000000
         C           -1.088774864605    -2.523560234960    -1.320037546961    12.000000000000
         H           -0.862774864605    -1.303560234960     0.436962453039     1.007825032230
         H           -2.327774864605    -3.959560234960     0.621962453039     1.007825032230
         H            0.147225135395    -4.167560234960     0.652962453039     1.007825032230
         H            1.145225135395    -2.769560234960     0.217962453039     1.007825032230
         H            0.426225135395    -2.842560234960     1.818962453039     1.007825032230
         H           -1.982774864605    -2.024560234960    -1.690037546961     1.007825032230
         H           -0.219774864605    -2.074560234960    -1.803037546961     1.007825032230
         H           -1.121774864605    -3.581560234960    -1.573037546961     1.007825032230
         H           -3.118404864605    -2.348601234960     0.625113453039     1.007825032230
         H           -2.107404864605    -2.842479234960     1.995365453039     1.007825032230

  Running in c1 symmetry.

  Rotational constants: A =      0.04806  B =      0.01747  C =      0.01523 [cm^-1]
  Rotational constants: A =   1440.80506  B =    523.88610  C =    456.73285 [MHz]
  Nuclear repulsion =  582.907684296666503

  Charge       = 0
  Multiplicity = 1
  Electrons    = 84
  Nalpha       = 42
  Nbeta        = 42

  ==> Algorithm <==

  SCF Algorithm Type is PK.
  DIIS enabled.
  MOM disabled.
  Fractional occupation disabled.
  Guess Type is SAD.
  Energy threshold   = 1.00e-06
  Density threshold  = 1.00e-10
  Integral threshold = 0.00e+00

  ==> Primary Basis <==

  Basis Set: CC-PVDZ
    Blend: CC-PVDZ
    Number of shells: 120
    Number of basis function: 244
    Number of Cartesian functions: 255
    Spherical Harmonics?: true
    Max angular momentum: 2

  ==> Pre-Iterations <==

   -------------------------------------------------------
    Irrep   Nso     Nmo     Nalpha   Nbeta   Ndocc  Nsocc
   -------------------------------------------------------
     A        244     244       0       0       0       0
   -------------------------------------------------------
    Total     244     244      42      42      42       0
   -------------------------------------------------------

  ==> Integral Setup <==

  Using integral reordering PK algorithm.
  Sizing the integral batches needed.
  Building batch lookup table.
   Calculation information:
      Number of atoms:                  29
      Number of AO shells:             120
      Number of primitives:            332
      Number of atomic orbitals:       255
      Number of basis functions:       244

      Integral cutoff                 1.00e-12
      Number of threads:                 1

	Batch   1 pq = [       0,    9405] index = [             0,44231715] size =     44231715
	Batch   2 pq = [    9405,   13301] index = [      44231715,88464951] size =     44233236
	Batch   3 pq = [   13301,   16290] index = [      88464951,132690195] size =     44225244
	Batch   4 pq = [   16290,   18810] index = [     132690195,176917455] size =     44227260
	Batch   5 pq = [   18810,   21030] index = [     176917455,221140965] size =     44223510
	Batch   6 pq = [   21030,   23037] index = [     221140965,265363203] size =     44222238
	Batch   7 pq = [   23037,   24883] index = [     265363203,309594286] size =     44231083
	Batch   8 pq = [   24883,   26601] index = [     309594286,353819901] size =     44225615
	Batch   9 pq = [   26601,   28214] index = [     353819901,398029005] size =     44209104
	Batch  10 pq = [   28214,   29740] index = [     398029005,442248670] size =     44219665
	Batch  11 pq = [   29740,   29890] index = [     442248670,446720995] size =      4472325
  Task number: 41
  Buffer size: 11059200
  Buffer per thread: 2
  We computed 26447214 shell quartets total.
  Whereas there are 26357430 unique shell quartets.
     0.34 percent of shell quartets recomputed by reordering.

  ==> DiskJK: Disk-Based J/K Matrices <==

    J tasked:                  Yes
    K tasked:                  Yes
    wK tasked:                  No
    Memory [MiB]:              375
    Schwarz Cutoff:          1E-12

    OpenMP threads:              1

  Minimum eigenvalue in the overlap matrix is 2.8592229435E-04.
  Using Symmetric Orthogonalization.

  SCF Guess: Superposition of Atomic Densities via on-the-fly atomic UHF.

  ==> Iterations <==

                        Total Energy        Delta E     RMS |[F,P]|

   @RHF iter SAD:  -426.03009050914204   -4.26030e+02   0.00000e+00
   @RHF iter   1:  -426.76953442960723   -7.39444e-01   2.67431e-03 DIIS
   @RHF iter   2:  -427.02145671991684   -2.51922e-01   1.14188e-03 DIIS
   @RHF iter   3:  -427.06325495800701   -4.17982e-02   2.45873e-04 DIIS
   @RHF iter   4:  -427.06656266085264   -3.30770e-03   5.58642e-05 DIIS
   @RHF iter   5:  -427.06668477828237   -1.22117e-04   1.28305e-05 DIIS
   @RHF iter   6:  -427.06669198389955   -7.20562e-06   3.61923e-06 DIIS
   @RHF iter   7:  -427.06669255108937   -5.67190e-07   1.26406e-06 DIIS
   @RHF iter   8:  -427.06669263014675   -7.90574e-08   3.08855e-07 DIIS
   @RHF iter   9:  -427.06669264260069   -1.24539e-08   1.39355e-07 DIIS
   @RHF iter  10:  -427.06669264563419   -3.03351e-09   6.20531e-08 DIIS
   @RHF iter  11:  -427.06669264642494   -7.90749e-10   2.39990e-08 DIIS
   @RHF iter  12:  -427.06669264653385   -1.08912e-10   7.81836e-09 DIIS
   @RHF iter  13:  -427.06669264654204   -8.18545e-12   2.79963e-09 DIIS
   @RHF iter  14:  -427.06669264654158    4.54747e-13   1.02310e-09 DIIS
   @RHF iter  15:  -427.06669264654164   -5.68434e-14   3.83980e-10 DIIS
   @RHF iter  16:  -427.06669264654397   -2.33058e-12   1.73055e-10 DIIS
   @RHF iter  17:  -427.06669264654261    1.36424e-12   7.99497e-11 DIIS
  Energy and wave function converged.

  ==> Post-Iterations <==

    Orbital Energies [Eh]
    ---------------------

    Doubly Occupied:

       1A    -11.240070     2A    -11.232776     3A    -11.230441
       4A    -11.230350     5A    -11.228739     6A    -11.228442
       7A    -11.227022     8A    -11.218870     9A    -11.212315
      10A    -11.211685    11A    -11.209766    12A     -1.160369
      13A     -1.075991    14A     -1.047462    15A     -1.016497
      16A     -0.933491    17A     -0.924543    18A     -0.919425
      19A     -0.827820    20A     -0.798276    21A     -0.759807
      22A     -0.695444    23A     -0.635722    24A     -0.630110
      25A     -0.627994    26A     -0.587111    27A     -0.583148
      28A     -0.580611    29A     -0.577187    30A     -0.562704
      31A     -0.536844    32A     -0.534226    33A     -0.530446
      34A     -0.504461    35A     -0.493277    36A     -0.485417
      37A     -0.481734    38A     -0.458055    39A     -0.453964
      40A     -0.448118    41A     -0.336211    42A     -0.324116

    Virtual:

      43A      0.134944    44A      0.142930    45A      0.165995
      46A      0.191736    47A      0.196493    48A      0.212173
      49A      0.223113    50A      0.233067    51A      0.240734
      52A      0.249018    53A      0.257079    54A      0.259780
      55A      0.271782    56A      0.275796    57A      0.289398
      58A      0.300908    59A      0.309755    60A      0.320141
      61A      0.323825    62A      0.338343    63A      0.367742
      64A      0.371386    65A      0.379081    66A      0.407470
      67A      0.411631    68A      0.455639    69A      0.471126
      70A      0.483204    71A      0.499644    72A      0.556232
      73A      0.567041    74A      0.580308    75A      0.596295
      76A      0.612341    77A      0.623075    78A      0.632626
      79A      0.647854    80A      0.690045    81A      0.692445
      82A      0.700254    83A      0.712686    84A      0.734210
      85A      0.743509    86A      0.750237    87A      0.758862
      88A      0.763592    89A      0.774850    90A      0.780135
      91A      0.783591    92A      0.802023    93A      0.811850
      94A      0.836981    95A      0.837933    96A      0.854472
      97A      0.860867    98A      0.866148    99A      0.875097
     100A      0.877508   101A      0.887042   102A      0.894023
     103A      0.896379   104A      0.902813   105A      0.908662
     106A      0.912719   107A      0.919718   108A      0.925600
     109A      0.929054   110A      0.940029   111A      0.949188
     112A      0.954149   113A      0.975726   114A      0.981910
     115A      0.998972   116A      1.001085   117A      1.007217
     118A      1.023816   119A      1.035991   120A      1.073776
     121A      1.129800   122A      1.133426   123A      1.139416
     124A      1.152168   125A      1.157103   126A      1.159335
     127A      1.181777   128A      1.206999   129A      1.243763
     130A      1.255810   131A      1.260086   132A      1.272384
     133A      1.302063   134A      1.313194   135A      1.329936
     136A      1.338068   137A      1.374517   138A      1.402233
     139A      1.413390   140A      1.430280   141A      1.505850
     142A      1.516348   143A      1.546021   144A      1.558761
     145A      1.570741   146A      1.602610   147A      1.663658
     148A      1.666722   149A      1.675811   150A      1.690175
     151A      1.692718   152A      1.702954   153A      1.705899
     154A      1.717847   155A      1.727549   156A      1.747339
     157A      1.760614   158A      1.772538   159A      1.796157
     160A      1.814637   161A      1.845418   162A      1.850834
     163A      1.860353   164A      1.870023   165A      1.891663
     166A      1.904155   167A      1.913085   168A      1.922225
     169A      1.928381   170A      1.937916   171A      1.944496
     172A      1.952675   173A      1.957428   174A      1.960302
     175A      1.964404   176A      1.969567   177A      1.973232
     178A      1.983953   179A      1.990725   180A      1.999645
     181A      2.008179   182A      2.030415   183A      2.046490
     184A      2.062512   185A      2.073958   186A      2.078301
     187A      2.089656   188A      2.117805   189A      2.125402
     190A      2.126584   191A      2.147731   192A      2.158372
     193A      2.168753   194A      2.181784   195A      2.187708
     196A      2.198392   197A      2.254832   198A      2.264406
     199A      2.266558   200A      2.290810   201A      2.297953
     202A      2.302011   203A      2.310154   204A      2.320104
     205A      2.324017   206A      2.333157   207A      2.345009
     208A      2.370047   209A      2.382396   210A      2.475372
     211A      2.480816   212A      2.482277   213A      2.503278
     214A      2.554642   215A      2.583444   216A      2.612206
     217A      2.625575   218A      2.631679   219A      2.716148
     220A      2.719548   221A      2.750782   222A      2.759415
     223A      2.768866   224A      2.770070   225A      2.792912
     226A      2.797199   227A      2.801737   228A      2.806198
     229A      2.827703   230A      2.841797   231A      2.846771
     232A      2.852768   233A      2.867056   234A      2.882527
     235A      3.007404   236A      3.013902   237A      3.023369
     238A      3.033632   239A      3.048675   240A      3.139359
     241A      3.172532   242A      3.224778   243A      3.328158
     244A      4.011651

    Final Occupation by Irrep:
              A
    DOCC [    42 ]

  @RHF Final Energy:  -427.06669264654261

   => Energetics <=

    Nuclear Repulsion Energy =            582.9076842966665026
    One-Electron Energy =               -1731.9466422516914008
    Two-Electron Energy =                 721.9722653084822923
    Total Energy =                       -427.0666926465426059

Computation Completed

Properties will be evaluated at   0.000000,   0.000000,   0.000000 [a0]

Properties computed using the SCF density matrix

  Nuclear Dipole Moment: [e a0]
     X:    -5.7985      Y:   -12.5669      Z:     3.7551

  Electronic Dipole Moment: [e a0]
     X:     5.7806      Y:    12.7188      Z:    -3.6655

  Dipole Moment: [e a0]
     X:    -0.0179      Y:     0.1519      Z:     0.0896     Total:     0.1773

  Dipole Moment: [D]
     X:    -0.0456      Y:     0.3861      Z:     0.2278     Total:     0.4506

*** tstop() called on ds3 at Sun Apr 26 23:56:46 2020
Module time:
	user time   =     179.03 seconds =       2.98 minutes
	system time =      76.47 seconds =       1.27 minutes
	total time  =        652 seconds =      10.87 minutes
Total time:
	user time   =     179.03 seconds =       2.98 minutes
	system time =      76.47 seconds =       1.27 minutes
	total time  =        652 seconds =      10.87 minutes
                                     G D M A

                                 by Anthony Stone

                           version 2.2.06, 22 June 2011

               Distributed Multipoles from Gaussian wavefunctions

Starting at 23:56:46 on 26 Apr 2020

Using SCF density matrix from file ./SSI/SSI-027PHE-057VAL-1-dimer.test.3789.fchk

                         Distributed Multipole Analysis

Standard DMA

Positions and radii in angstrom
Multipole moments in atomic units, ea_0^k for rank k

C          x = -0.208775  y =  2.181440  z =  2.165962 angstrom
           Maximum rank =  0   Radius =  0.650 angstrom
                   Q00  =  -0.201755

C          x =  1.068225  y =  0.761440  z =  0.523962 angstrom
           Maximum rank =  0   Radius =  0.650 angstrom
                   Q00  =  -0.084135

C          x =  0.309225  y =  1.890440  z =  0.772962 angstrom
           Maximum rank =  0   Radius =  0.650 angstrom
                   Q00  =  -0.110956

C          x =  1.547225  y =  0.522440  z = -0.743038 angstrom
           Maximum rank =  0   Radius =  0.650 angstrom
                   Q00  =  -0.027519

C          x =  1.273225  y =  1.405440  z = -1.783038 angstrom
           Maximum rank =  0   Radius =  0.650 angstrom
                   Q00  =  -0.074941

C          x =  0.018225  y =  2.749440  z = -0.284038 angstrom
           Maximum rank =  0   Radius =  0.650 angstrom
                   Q00  =  -0.025375

C          x =  0.514225  y =  2.506440  z = -1.554038 angstrom
           Maximum rank =  0   Radius =  0.650 angstrom
                   Q00  =  -0.068787

H          x =  1.295225  y =  0.069440  z =  1.323962 angstrom
           Maximum rank =  0   Radius =  0.325 angstrom
                   Q00  =   0.056705

H          x =  2.149225  y = -0.349560  z = -0.934038 angstrom
           Maximum rank =  0   Radius =  0.325 angstrom
                   Q00  =   0.062047

H          x = -0.198775  y =  3.258440  z =  2.332962 angstrom
           Maximum rank =  0   Radius =  0.325 angstrom
                   Q00  =   0.100532

H          x =  0.470225  y =  1.734440  z =  2.891962 angstrom
           Maximum rank =  0   Radius =  0.325 angstrom
                   Q00  =   0.097404

H          x =  1.659225  y =  1.212440  z = -2.774038 angstrom
           Maximum rank =  0   Radius =  0.325 angstrom
                   Q00  =   0.057581

H          x = -0.591775  y =  3.623440  z = -0.118038 angstrom
           Maximum rank =  0   Radius =  0.325 angstrom
                   Q00  =   0.053948

H          x =  0.274225  y =  3.170440  z = -2.367038 angstrom
           Maximum rank =  0   Radius =  0.325 angstrom
                   Q00  =   0.060400

H          x = -1.220885  y =  1.790331  z =  2.346696 angstrom
           Maximum rank =  0   Radius =  0.325 angstrom
                   Q00  =   0.105227

C          x = -0.958775  y = -2.366560  z =  0.211962 angstrom
           Maximum rank =  0   Radius =  0.650 angstrom
                   Q00  =   0.001064

C          x = -2.215775  y = -2.912560  z =  0.902962 angstrom
           Maximum rank =  0   Radius =  0.650 angstrom
                   Q00  =  -0.239555

C          x =  0.261225  y = -3.088560  z =  0.769962 angstrom
           Maximum rank =  0   Radius =  0.650 angstrom
                   Q00  =  -0.244435

C          x = -1.088775  y = -2.523560  z = -1.320038 angstrom
           Maximum rank =  0   Radius =  0.650 angstrom
                   Q00  =  -0.245793

H          x = -0.862775  y = -1.303560  z =  0.436962 angstrom
           Maximum rank =  0   Radius =  0.325 angstrom
                   Q00  =   0.027985

H          x = -2.327775  y = -3.959560  z =  0.621962 angstrom
           Maximum rank =  0   Radius =  0.325 angstrom
                   Q00  =   0.072744

H          x =  0.147225  y = -4.167560  z =  0.652962 angstrom
           Maximum rank =  0   Radius =  0.325 angstrom
                   Q00  =   0.075994

H          x =  1.145225  y = -2.769560  z =  0.217962 angstrom
           Maximum rank =  0   Radius =  0.325 angstrom
                   Q00  =   0.073834

H          x =  0.426225  y = -2.842560  z =  1.818962 angstrom
           Maximum rank =  0   Radius =  0.325 angstrom
                   Q00  =   0.080719

H          x = -1.982775  y = -2.024560  z = -1.690038 angstrom
           Maximum rank =  0   Radius =  0.325 angstrom
                   Q00  =   0.086691

H          x = -0.219775  y = -2.074560  z = -1.803038 angstrom
           Maximum rank =  0   Radius =  0.325 angstrom
                   Q00  =   0.083321

H          x = -1.121775  y = -3.581560  z = -1.573038 angstrom
           Maximum rank =  0   Radius =  0.325 angstrom
                   Q00  =   0.072067

H          x = -3.118405  y = -2.348601  z =  0.625113 angstrom
           Maximum rank =  0   Radius =  0.325 angstrom
                   Q00  =   0.080587

H          x = -2.107405  y = -2.842479  z =  1.995365 angstrom
           Maximum rank =  0   Radius =  0.325 angstrom
                   Q00  =   0.074401

Total multipoles referred to origin at
           x =   0.000000,  y =    0.000000,  z =    0.000000 angstrom
                   Q00  =  -0.000000

Finished at 23:56:46 on 26 Apr 2020

  DMA results are available in the Python driver through the
	  variable('DMA DISTRIBUTED MULTIPOLES')
  and
	  variable('DMA TOTAL MULTIPOLES')
  commands.

    Psi4 stopped on: Sunday, 26 April 2020 11:56PM
    Psi4 wall time for execution: 0:10:52.65

*** Psi4 exiting successfully. Buy a developer a beer!
