                               Psi4 1.3.2 release

  ==> Input File <==

--------------------------------------------------------------------------
import numpy as np
set {scf_type pk
basis cc-pvdz
d_convergence 10
gdma_switch   0
gdma_limit    0
gdma_origin   [ 0.0,  0.0,  0.0 ]
}
molecule test {
    units Angstrom
    0 1
    --
    0 1
    C               -2.467447122320030     0.937560122016164     4.477439363258799
    C               -0.250447122320030    -0.310439877983836     1.642439363258799
    C                0.725552877679970    -1.027439877983836     2.343439363258798
    C               -1.291447122320030     0.324560122016164     2.337439363258798
    C               -1.362447122320031     0.246560122016164     3.729439363258798
    C                0.654552877679970    -1.108439877983836     3.734439363258798
    C               -0.388447122320030    -0.473439877983836     4.422439363258798
    H               -0.204447122320030    -0.239439877983836     0.568439363258799
    H                1.536552877679970    -1.508439877983836     1.812439363258798
    H               -2.035447122320031     0.879560122016164     1.787439363258799
    H                1.413552877679970    -1.647439877983836     4.281439363258800
    H               -2.690447122320031     1.882560122016164     3.977439363258799
    H               -2.120447122320031     1.171560122016164     5.485439363258799
    H               -0.429447122320030    -0.537439877983836     5.500439363258799
    H               -3.388317122320031     0.342168122016164     4.564041863258799
    C               -1.341447122320030    -0.991439877983836    -4.060560636741202
    C                1.430552877679970     0.280560122016164    -1.780560636741201
    C                2.182552877679969     1.061560122016164    -2.661560636741202
    C                0.282552877679970    -0.377439877983836    -2.235560636741202
    C               -0.120447122320030    -0.261439877983836    -3.566560636741201
    C                1.782552877679970     1.182560122016164    -3.991560636741202
    C                0.634552877679970     0.523560122016164    -4.441560636741202
    H                1.738552877679970     0.188560122016164    -0.747560636741201
    H                3.068552877679970     1.574560122016164    -2.310560636741202
    H               -0.295447122320030    -0.985439877983836    -1.556560636741201
    H                2.364552877679969     1.782560122016164    -4.675560636741201
    H               -1.572447122320030    -1.820439877983836    -3.393560636741201
    H               -1.094447122320030    -1.425439877983836    -5.031560636741202
    H                0.336552877679969     0.618560122016164    -5.476560636741201
    H               -2.232447122320031    -0.357472877983836    -4.179743636741201

}
e, wfn = energy('scf', return_wfn=True)
gdma(wfn)
dmavals = variable('DMA DISTRIBUTED MULTIPOLES')
charges = np.array(dmavals)
print(charges)
np.save('SSI-149PHE-164PHE-1-dimer.npy', np.array(charges))--------------------------------------------------------------------------

*** tstart() called on ds3
*** at Mon Apr 27 21:36:06 2020

   => Loading Basis Set <=

    Name: CC-PVDZ
    Role: ORBITAL
    Keyword: BASIS
    atoms 1-7, 16-22  entry C          line   138 file /theoryfs2/ds/metcalf/miniconda2/envs/tf2gpu/share/psi4/basis/cc-pvdz.gbs
    atoms 8-15, 23-30 entry H          line    22 file /theoryfs2/ds/metcalf/miniconda2/envs/tf2gpu/share/psi4/basis/cc-pvdz.gbs

         ---------------------------------------------------------
                                   SCF
               by Justin Turney, Rob Parrish, Andy Simmonett
                          and Daniel G. A. Smith
                              RHF Reference
                        1 Threads,    500 MiB Core
         ---------------------------------------------------------

  ==> Geometry <==

    Molecular point group: c1
    Full point group: C1

    Geometry (in Angstrom), charge = 0, multiplicity = 1:

       Center              X                  Y                   Z               Mass
    ------------   -----------------  -----------------  -----------------  -----------------
         C           -2.467447122320     0.937560122016     4.477439363259    12.000000000000
         C           -0.250447122320    -0.310439877984     1.642439363259    12.000000000000
         C            0.725552877680    -1.027439877984     2.343439363259    12.000000000000
         C           -1.291447122320     0.324560122016     2.337439363259    12.000000000000
         C           -1.362447122320     0.246560122016     3.729439363259    12.000000000000
         C            0.654552877680    -1.108439877984     3.734439363259    12.000000000000
         C           -0.388447122320    -0.473439877984     4.422439363259    12.000000000000
         H           -0.204447122320    -0.239439877984     0.568439363259     1.007825032230
         H            1.536552877680    -1.508439877984     1.812439363259     1.007825032230
         H           -2.035447122320     0.879560122016     1.787439363259     1.007825032230
         H            1.413552877680    -1.647439877984     4.281439363259     1.007825032230
         H           -2.690447122320     1.882560122016     3.977439363259     1.007825032230
         H           -2.120447122320     1.171560122016     5.485439363259     1.007825032230
         H           -0.429447122320    -0.537439877984     5.500439363259     1.007825032230
         H           -3.388317122320     0.342168122016     4.564041863259     1.007825032230
         C           -1.341447122320    -0.991439877984    -4.060560636741    12.000000000000
         C            1.430552877680     0.280560122016    -1.780560636741    12.000000000000
         C            2.182552877680     1.061560122016    -2.661560636741    12.000000000000
         C            0.282552877680    -0.377439877984    -2.235560636741    12.000000000000
         C           -0.120447122320    -0.261439877984    -3.566560636741    12.000000000000
         C            1.782552877680     1.182560122016    -3.991560636741    12.000000000000
         C            0.634552877680     0.523560122016    -4.441560636741    12.000000000000
         H            1.738552877680     0.188560122016    -0.747560636741     1.007825032230
         H            3.068552877680     1.574560122016    -2.310560636741     1.007825032230
         H           -0.295447122320    -0.985439877984    -1.556560636741     1.007825032230
         H            2.364552877680     1.782560122016    -4.675560636741     1.007825032230
         H           -1.572447122320    -1.820439877984    -3.393560636741     1.007825032230
         H           -1.094447122320    -1.425439877984    -5.031560636741     1.007825032230
         H            0.336552877680     0.618560122016    -5.476560636741     1.007825032230
         H           -2.232447122320    -0.357472877984    -4.179743636741     1.007825032230

  Running in c1 symmetry.

  Rotational constants: A =      0.04606  B =      0.00711  C =      0.00671 [cm^-1]
  Rotational constants: A =   1380.73035  B =    213.06290  C =    201.05105 [MHz]
  Nuclear repulsion =  739.005886968579375

  Charge       = 0
  Multiplicity = 1
  Electrons    = 100
  Nalpha       = 50
  Nbeta        = 50

  ==> Algorithm <==

  SCF Algorithm Type is PK.
  DIIS enabled.
  MOM disabled.
  Fractional occupation disabled.
  Guess Type is SAD.
  Energy threshold   = 1.00e-06
  Density threshold  = 1.00e-10
  Integral threshold = 0.00e+00

  ==> Primary Basis <==

  Basis Set: CC-PVDZ
    Blend: CC-PVDZ
    Number of shells: 132
    Number of basis function: 276
    Number of Cartesian functions: 290
    Spherical Harmonics?: true
    Max angular momentum: 2

  ==> Pre-Iterations <==

   -------------------------------------------------------
    Irrep   Nso     Nmo     Nalpha   Nbeta   Ndocc  Nsocc
   -------------------------------------------------------
     A        276     276       0       0       0       0
   -------------------------------------------------------
    Total     276     276      50      50      50       0
   -------------------------------------------------------

  ==> Integral Setup <==

  Using integral reordering PK algorithm.
  Sizing the integral batches needed.
  Building batch lookup table.
   Calculation information:
      Number of atoms:                  30
      Number of AO shells:             132
      Number of primitives:            388
      Number of atomic orbitals:       290
      Number of basis functions:       276

      Integral cutoff                 1.00e-12
      Number of threads:                 1

	Batch   1 pq = [       0,    9405] index = [             0,44231715] size =     44231715
	Batch   2 pq = [    9405,   13301] index = [      44231715,88464951] size =     44233236
	Batch   3 pq = [   13301,   16290] index = [      88464951,132690195] size =     44225244
	Batch   4 pq = [   16290,   18810] index = [     132690195,176917455] size =     44227260
	Batch   5 pq = [   18810,   21030] index = [     176917455,221140965] size =     44223510
	Batch   6 pq = [   21030,   23037] index = [     221140965,265363203] size =     44222238
	Batch   7 pq = [   23037,   24883] index = [     265363203,309594286] size =     44231083
	Batch   8 pq = [   24883,   26601] index = [     309594286,353819901] size =     44225615
	Batch   9 pq = [   26601,   28214] index = [     353819901,398029005] size =     44209104
	Batch  10 pq = [   28214,   29740] index = [     398029005,442248670] size =     44219665
	Batch  11 pq = [   29740,   31191] index = [     442248670,486454836] size =     44206166
	Batch  12 pq = [   31191,   32578] index = [     486454836,530679331] size =     44224495
	Batch  13 pq = [   32578,   33908] index = [     530679331,574893186] size =     44213855
	Batch  14 pq = [   33908,   35188] index = [     574893186,619115266] size =     44222080
	Batch  15 pq = [   35188,   36423] index = [     619115266,663335676] size =     44220410
	Batch  16 pq = [   36423,   37617] index = [     663335676,707538153] size =     44202477
	Batch  17 pq = [   37617,   38226] index = [     707538153,730632651] size =     23094498
  Task number: 67
  Buffer size: 11059200
  Buffer per thread: 2
  We computed 29199947 shell quartets total.
  Whereas there are 38531031 unique shell quartets.

  ==> DiskJK: Disk-Based J/K Matrices <==

    J tasked:                  Yes
    K tasked:                  Yes
    wK tasked:                  No
    Memory [MiB]:              375
    Schwarz Cutoff:          1E-12

    OpenMP threads:              1

  Minimum eigenvalue in the overlap matrix is 3.0975898249E-04.
  Using Symmetric Orthogonalization.

  SCF Guess: Superposition of Atomic Densities via on-the-fly atomic UHF.

  ==> Iterations <==

                        Total Energy        Delta E     RMS |[F,P]|

   @RHF iter SAD:  -538.29488476769825   -5.38295e+02   0.00000e+00
   @RHF iter   1:  -539.23054671499744   -9.35662e-01   2.28442e-03 DIIS
   @RHF iter   2:  -539.47968974633727   -2.49143e-01   9.25971e-04 DIIS
   @RHF iter   3:  -539.51567761809281   -3.59879e-02   2.16654e-04 DIIS
   @RHF iter   4:  -539.51882328916247   -3.14567e-03   5.43067e-05 DIIS
   @RHF iter   5:  -539.51896401764964   -1.40728e-04   1.65700e-05 DIIS
   @RHF iter   6:  -539.51897693876890   -1.29211e-05   4.41365e-06 DIIS
   @RHF iter   7:  -539.51897803434645   -1.09558e-06   1.01830e-06 DIIS
   @RHF iter   8:  -539.51897810580499   -7.14585e-08   2.55938e-07 DIIS
   @RHF iter   9:  -539.51897811203980   -6.23481e-09   8.48996e-08 DIIS
   @RHF iter  10:  -539.51897811276501   -7.25208e-10   3.79145e-08 DIIS
   @RHF iter  11:  -539.51897811296351   -1.98497e-10   1.32590e-08 DIIS
   @RHF iter  12:  -539.51897811300103   -3.75167e-11   7.20468e-09 DIIS
   @RHF iter  13:  -539.51897811301308   -1.20508e-11   3.31839e-09 DIIS
   @RHF iter  14:  -539.51897811301831   -5.22959e-12   8.56882e-10 DIIS
   @RHF iter  15:  -539.51897811301421    4.09273e-12   2.95763e-10 DIIS
   @RHF iter  16:  -539.51897811301274    1.47793e-12   9.87063e-11 DIIS
  Energy and wave function converged.

  ==> Post-Iterations <==

    Orbital Energies [Eh]
    ---------------------

    Doubly Occupied:

       1A    -11.242470     2A    -11.241215     3A    -11.238011
       4A    -11.237553     5A    -11.237331     6A    -11.237135
       7A    -11.233522     8A    -11.233131     9A    -11.232697
      10A    -11.232438    11A    -11.231978    12A    -11.231841
      13A    -11.229924    14A    -11.229291    15A     -1.151126
      16A     -1.149454    17A     -1.044195    18A     -1.043848
      19A     -1.011290    20A     -1.008364    21A     -0.931313
      22A     -0.930405    23A     -0.825900    24A     -0.825531
      25A     -0.796264    26A     -0.793382    27A     -0.693204
      28A     -0.687999    29A     -0.633698    30A     -0.632523
      31A     -0.629568    32A     -0.629155    33A     -0.587306
      34A     -0.577383    35A     -0.576792    36A     -0.576049
      37A     -0.562872    38A     -0.562641    39A     -0.535430
      40A     -0.534248    41A     -0.487558    42A     -0.486432
      43A     -0.485011    44A     -0.483858    45A     -0.481995
      46A     -0.481011    47A     -0.332219    48A     -0.329761
      49A     -0.322485    50A     -0.322092

    Virtual:

      51A      0.130636    52A      0.134575    53A      0.138267
      54A      0.140433    55A      0.175958    56A      0.190749
      57A      0.198990    58A      0.207423    59A      0.216806
      60A      0.231432    61A      0.239080    62A      0.247501
      63A      0.254589    64A      0.260775    65A      0.269656
      66A      0.277487    67A      0.284078    68A      0.288665
      69A      0.308291    70A      0.345088    71A      0.361723
      72A      0.366469    73A      0.375359    74A      0.399482
      75A      0.446187    76A      0.448485    77A      0.458287
      78A      0.471249    79A      0.476482    80A      0.480017
      81A      0.485689    82A      0.520022    83A      0.565780
      84A      0.574174    85A      0.594777    86A      0.608980
      87A      0.637617    88A      0.639739    89A      0.667406
      90A      0.679020    91A      0.683787    92A      0.692757
      93A      0.700848    94A      0.707352    95A      0.713844
      96A      0.717183    97A      0.732658    98A      0.737143
      99A      0.739992   100A      0.741311   101A      0.743315
     102A      0.746544   103A      0.754189   104A      0.756022
     105A      0.761245   106A      0.769659   107A      0.775196
     108A      0.779654   109A      0.790036   110A      0.803619
     111A      0.824350   112A      0.836127   113A      0.847922
     114A      0.861993   115A      0.862800   116A      0.870877
     117A      0.874507   118A      0.876322   119A      0.881872
     120A      0.887629   121A      0.894480   122A      0.902347
     123A      0.913977   124A      0.921187   125A      0.922468
     126A      0.934571   127A      0.937341   128A      0.941483
     129A      0.947747   130A      0.962227   131A      0.984388
     132A      0.996154   133A      1.014662   134A      1.033605
     135A      1.051862   136A      1.099855   137A      1.121464
     138A      1.126622   139A      1.132605   140A      1.144852
     141A      1.151720   142A      1.158143   143A      1.162754
     144A      1.184240   145A      1.193229   146A      1.198257
     147A      1.229619   148A      1.237085   149A      1.242444
     150A      1.247772   151A      1.252549   152A      1.254917
     153A      1.267404   154A      1.294282   155A      1.299674
     156A      1.302697   157A      1.307455   158A      1.312124
     159A      1.318263   160A      1.322867   161A      1.335328
     162A      1.351386   163A      1.409786   164A      1.428372
     165A      1.502597   166A      1.514422   167A      1.523419
     168A      1.540583   169A      1.553625   170A      1.557430
     171A      1.598873   172A      1.619532   173A      1.680898
     174A      1.683149   175A      1.697638   176A      1.701527
     177A      1.726437   178A      1.736689   179A      1.745944
     180A      1.749056   181A      1.755288   182A      1.757045
     183A      1.787444   184A      1.787913   185A      1.806192
     186A      1.808415   187A      1.853078   188A      1.859049
     189A      1.872636   190A      1.883149   191A      1.890183
     192A      1.892111   193A      1.905978   194A      1.907273
     195A      1.911731   196A      1.913203   197A      1.919546
     198A      1.929601   199A      1.938141   200A      1.942451
     201A      1.949273   202A      1.956680   203A      1.969938
     204A      1.971279   205A      1.978157   206A      1.986885
     207A      1.998099   208A      2.006701   209A      2.036170
     210A      2.037597   211A      2.048536   212A      2.059091
     213A      2.065255   214A      2.069801   215A      2.105184
     216A      2.110211   217A      2.133300   218A      2.138897
     219A      2.144988   220A      2.151553   221A      2.158257
     222A      2.164455   223A      2.168204   224A      2.175599
     225A      2.190684   226A      2.217432   227A      2.240621
     228A      2.257207   229A      2.273179   230A      2.283035
     231A      2.291380   232A      2.293584   233A      2.295745
     234A      2.306493   235A      2.309675   236A      2.317258
     237A      2.327769   238A      2.369884   239A      2.458273
     240A      2.468948   241A      2.472707   242A      2.477970
     243A      2.490402   244A      2.507683   245A      2.537592
     246A      2.540791   247A      2.617972   248A      2.622472
     249A      2.733763   250A      2.740177   251A      2.747929
     252A      2.759923   253A      2.764923   254A      2.768598
     255A      2.777546   256A      2.784379   257A      2.815575
     258A      2.838745   259A      2.849283   260A      2.854672
     261A      2.866370   262A      2.873306   263A      2.968172
     264A      2.974371   265A      3.002659   266A      3.005707
     267A      3.019329   268A      3.023963   269A      3.147791
     270A      3.152900   271A      3.191030   272A      3.193194
     273A      3.290737   274A      3.296697   275A      3.950351
     276A      3.952992

    Final Occupation by Irrep:
              A
    DOCC [    50 ]

  @RHF Final Energy:  -539.51897811301274

   => Energetics <=

    Nuclear Repulsion Energy =            739.0058869685793752
    One-Electron Energy =               -2194.1879353151261967
    Two-Electron Energy =                 915.6630702335339720
    Total Energy =                       -539.5189781130127358

Computation Completed

Properties will be evaluated at   0.000000,   0.000000,   0.000000 [a0]

Properties computed using the SCF density matrix

  Nuclear Dipole Moment: [e a0]
     X:    -5.2545      Y:    -0.0764      Z:     0.5676

  Electronic Dipole Moment: [e a0]
     X:     5.0714      Y:     0.1046      Z:    -0.5784

  Dipole Moment: [e a0]
     X:    -0.1831      Y:     0.0282      Z:    -0.0108     Total:     0.1856

  Dipole Moment: [D]
     X:    -0.4655      Y:     0.0717      Z:    -0.0274     Total:     0.4718

*** tstop() called on ds3 at Mon Apr 27 21:41:49 2020
Module time:
	user time   =     246.29 seconds =       4.10 minutes
	system time =     109.06 seconds =       1.82 minutes
	total time  =        343 seconds =       5.72 minutes
Total time:
	user time   =     246.29 seconds =       4.10 minutes
	system time =     109.06 seconds =       1.82 minutes
	total time  =        343 seconds =       5.72 minutes
                                     G D M A

                                 by Anthony Stone

                           version 2.2.06, 22 June 2011

               Distributed Multipoles from Gaussian wavefunctions

Starting at 21:41:49 on 27 Apr 2020

Using SCF density matrix from file ./SSI/SSI-149PHE-164PHE-1-dimer.test.31101.fchk

                         Distributed Multipole Analysis

Standard DMA

Positions and radii in angstrom
Multipole moments in atomic units, ea_0^k for rank k

C          x = -2.467447  y =  0.937560  z =  4.477439 angstrom
           Maximum rank =  0   Radius =  0.650 angstrom
                   Q00  =  -0.198499

C          x = -0.250447  y = -0.310440  z =  1.642439 angstrom
           Maximum rank =  0   Radius =  0.650 angstrom
                   Q00  =  -0.071924

C          x =  0.725553  y = -1.027440  z =  2.343439 angstrom
           Maximum rank =  0   Radius =  0.650 angstrom
                   Q00  =  -0.084583

C          x = -1.291447  y =  0.324560  z =  2.337439 angstrom
           Maximum rank =  0   Radius =  0.650 angstrom
                   Q00  =  -0.058181

C          x = -1.362447  y =  0.246560  z =  3.729439 angstrom
           Maximum rank =  0   Radius =  0.650 angstrom
                   Q00  =  -0.099280

C          x =  0.654553  y = -1.108440  z =  3.734439 angstrom
           Maximum rank =  0   Radius =  0.650 angstrom
                   Q00  =  -0.078129

C          x = -0.388447  y = -0.473440  z =  4.422439 angstrom
           Maximum rank =  0   Radius =  0.650 angstrom
                   Q00  =  -0.014190

H          x = -0.204447  y = -0.239440  z =  0.568439 angstrom
           Maximum rank =  0   Radius =  0.325 angstrom
                   Q00  =   0.062016

H          x =  1.536553  y = -1.508440  z =  1.812439 angstrom
           Maximum rank =  0   Radius =  0.325 angstrom
                   Q00  =   0.059312

H          x = -2.035447  y =  0.879560  z =  1.787439 angstrom
           Maximum rank =  0   Radius =  0.325 angstrom
                   Q00  =   0.057084

H          x =  1.413553  y = -1.647440  z =  4.281439 angstrom
           Maximum rank =  0   Radius =  0.325 angstrom
                   Q00  =   0.066400

H          x = -2.690447  y =  1.882560  z =  3.977439 angstrom
           Maximum rank =  0   Radius =  0.325 angstrom
                   Q00  =   0.098536

H          x = -2.120447  y =  1.171560  z =  5.485439 angstrom
           Maximum rank =  0   Radius =  0.325 angstrom
                   Q00  =   0.096608

H          x = -0.429447  y = -0.537440  z =  5.500439 angstrom
           Maximum rank =  0   Radius =  0.325 angstrom
                   Q00  =   0.058729

H          x = -3.388317  y =  0.342168  z =  4.564042 angstrom
           Maximum rank =  0   Radius =  0.325 angstrom
                   Q00  =   0.105366

C          x = -1.341447  y = -0.991440  z = -4.060561 angstrom
           Maximum rank =  0   Radius =  0.650 angstrom
                   Q00  =  -0.199839

C          x =  1.430553  y =  0.280560  z = -1.780561 angstrom
           Maximum rank =  0   Radius =  0.650 angstrom
                   Q00  =  -0.081364

C          x =  2.182553  y =  1.061560  z = -2.661561 angstrom
           Maximum rank =  0   Radius =  0.650 angstrom
                   Q00  =  -0.075056

C          x =  0.282553  y = -0.377440  z = -2.235561 angstrom
           Maximum rank =  0   Radius =  0.650 angstrom
                   Q00  =  -0.066686

C          x = -0.120447  y = -0.261440  z = -3.566561 angstrom
           Maximum rank =  0   Radius =  0.650 angstrom
                   Q00  =  -0.093577

C          x =  1.782553  y =  1.182560  z = -3.991561 angstrom
           Maximum rank =  0   Radius =  0.650 angstrom
                   Q00  =  -0.075453

C          x =  0.634553  y =  0.523560  z = -4.441561 angstrom
           Maximum rank =  0   Radius =  0.650 angstrom
                   Q00  =  -0.019984

H          x =  1.738553  y =  0.188560  z = -0.747561 angstrom
           Maximum rank =  0   Radius =  0.325 angstrom
                   Q00  =   0.066599

H          x =  3.068553  y =  1.574560  z = -2.310561 angstrom
           Maximum rank =  0   Radius =  0.325 angstrom
                   Q00  =   0.063418

H          x = -0.295447  y = -0.985440  z = -1.556561 angstrom
           Maximum rank =  0   Radius =  0.325 angstrom
                   Q00  =   0.056347

H          x =  2.364553  y =  1.782560  z = -4.675561 angstrom
           Maximum rank =  0   Radius =  0.325 angstrom
                   Q00  =   0.066113

H          x = -1.572447  y = -1.820440  z = -3.393561 angstrom
           Maximum rank =  0   Radius =  0.325 angstrom
                   Q00  =   0.099548

H          x = -1.094447  y = -1.425440  z = -5.031561 angstrom
           Maximum rank =  0   Radius =  0.325 angstrom
                   Q00  =   0.097181

H          x =  0.336553  y =  0.618560  z = -5.476561 angstrom
           Maximum rank =  0   Radius =  0.325 angstrom
                   Q00  =   0.058148

H          x = -2.232447  y = -0.357473  z = -4.179744 angstrom
           Maximum rank =  0   Radius =  0.325 angstrom
                   Q00  =   0.105339

Total multipoles referred to origin at
           x =   0.000000,  y =    0.000000,  z =    0.000000 angstrom
                   Q00  =  -0.000000

Finished at 21:41:49 on 27 Apr 2020

  DMA results are available in the Python driver through the
	  variable('DMA DISTRIBUTED MULTIPOLES')
  and
	  variable('DMA TOTAL MULTIPOLES')
  commands.

    Psi4 stopped on: Monday, 27 April 2020 09:41PM
    Psi4 wall time for execution: 0:05:43.59

*** Psi4 exiting successfully. Buy a developer a beer!
