                               Psi4 1.3.2 release

  ==> Input File <==

--------------------------------------------------------------------------
import numpy as np
set {scf_type pk
basis cc-pvdz
d_convergence 10
gdma_switch   0
gdma_limit    0
gdma_origin   [ 0.0,  0.0,  0.0 ]
}
molecule test {
    units Angstrom
    0 1
    --
    0 1
    C                0.001093061844803     1.031236317401770    -1.456579395549350
    C                1.109093061844803     0.988236317401770    -2.512579395549350
    H                0.128093061844803     1.902236317401770    -0.812579395549350
    H               -0.970906938155197     1.090236317401770    -1.946579395549350
    H                0.018093061844803     0.126236317401770    -0.852579395549350
    H                1.001093061844803     0.065236317401770    -3.081579395549349
    H                2.101843061844803     0.998886317401770    -2.038979395549350
    H                0.986113061844803     1.828396317401770    -3.211879395549349
    C               -0.991906938155197    -1.305763682598230     1.436420604450650
    C               -0.111906938155197    -0.718763682598230     2.537420604450650
    H               -1.721906938155197    -1.999763682598230     1.852420604450650
    H               -1.533906938155197    -0.498763682598230     0.942420604450650
    H               -0.373906938155197    -1.823763682598230     0.701420604450650
    H               -0.748906938155197    -0.237763682598230     3.281420604450651
    H                0.496093061844803     0.059236317401770     2.076420604450650
    H                0.542333061844803    -1.450223682598230     3.034320604450650

}
e, wfn = energy('scf', return_wfn=True)
gdma(wfn)
dmavals = variable('DMA DISTRIBUTED MULTIPOLES')
charges = np.array(dmavals)
print(charges)
np.save('SSI-055VAL-059ILE-1-dimer.npy', np.array(charges))--------------------------------------------------------------------------

*** tstart() called on ds3
*** at Mon Apr 27 12:46:27 2020

   => Loading Basis Set <=

    Name: CC-PVDZ
    Role: ORBITAL
    Keyword: BASIS
    atoms 1-2, 9-10  entry C          line   138 file /theoryfs2/ds/metcalf/miniconda2/envs/tf2gpu/share/psi4/basis/cc-pvdz.gbs
    atoms 3-8, 11-16 entry H          line    22 file /theoryfs2/ds/metcalf/miniconda2/envs/tf2gpu/share/psi4/basis/cc-pvdz.gbs

         ---------------------------------------------------------
                                   SCF
               by Justin Turney, Rob Parrish, Andy Simmonett
                          and Daniel G. A. Smith
                              RHF Reference
                        1 Threads,    500 MiB Core
         ---------------------------------------------------------

  ==> Geometry <==

    Molecular point group: c1
    Full point group: C1

    Geometry (in Angstrom), charge = 0, multiplicity = 1:

       Center              X                  Y                   Z               Mass
    ------------   -----------------  -----------------  -----------------  -----------------
         C            0.001093061845     1.031236317402    -1.456579395549    12.000000000000
         C            1.109093061845     0.988236317402    -2.512579395549    12.000000000000
         H            0.128093061845     1.902236317402    -0.812579395549     1.007825032230
         H           -0.970906938155     1.090236317402    -1.946579395549     1.007825032230
         H            0.018093061845     0.126236317402    -0.852579395549     1.007825032230
         H            1.001093061845     0.065236317402    -3.081579395549     1.007825032230
         H            2.101843061845     0.998886317402    -2.038979395549     1.007825032230
         H            0.986113061845     1.828396317402    -3.211879395549     1.007825032230
         C           -0.991906938155    -1.305763682598     1.436420604451    12.000000000000
         C           -0.111906938155    -0.718763682598     2.537420604451    12.000000000000
         H           -1.721906938155    -1.999763682598     1.852420604451     1.007825032230
         H           -1.533906938155    -0.498763682598     0.942420604451     1.007825032230
         H           -0.373906938155    -1.823763682598     0.701420604451     1.007825032230
         H           -0.748906938155    -0.237763682598     3.281420604451     1.007825032230
         H            0.496093061845     0.059236317402     2.076420604451     1.007825032230
         H            0.542333061845    -1.450223682598     3.034320604451     1.007825032230

  Running in c1 symmetry.

  Rotational constants: A =      0.45339  B =      0.04831  C =      0.04688 [cm^-1]
  Rotational constants: A =  13592.32205  B =   1448.38223  C =   1405.27841 [MHz]
  Nuclear repulsion =  121.941803024107188

  Charge       = 0
  Multiplicity = 1
  Electrons    = 36
  Nalpha       = 18
  Nbeta        = 18

  ==> Algorithm <==

  SCF Algorithm Type is PK.
  DIIS enabled.
  MOM disabled.
  Fractional occupation disabled.
  Guess Type is SAD.
  Energy threshold   = 1.00e-06
  Density threshold  = 1.00e-10
  Integral threshold = 0.00e+00

  ==> Primary Basis <==

  Basis Set: CC-PVDZ
    Blend: CC-PVDZ
    Number of shells: 60
    Number of basis function: 116
    Number of Cartesian functions: 120
    Spherical Harmonics?: true
    Max angular momentum: 2

  ==> Pre-Iterations <==

   -------------------------------------------------------
    Irrep   Nso     Nmo     Nalpha   Nbeta   Ndocc  Nsocc
   -------------------------------------------------------
     A        116     116       0       0       0       0
   -------------------------------------------------------
    Total     116     116      18      18      18       0
   -------------------------------------------------------

  ==> Integral Setup <==

  Using integral reordering PK algorithm.
  Sizing the integral batches needed.
  Building batch lookup table.
   Calculation information:
      Number of atoms:                  16
      Number of AO shells:              60
      Number of primitives:            148
      Number of atomic orbitals:       120
      Number of basis functions:       116

      Integral cutoff                 1.00e-12
      Number of threads:                 1

	Batch   1 pq = [       0,    6786] index = [             0,23028291] size =     23028291
  Task number: 3
  Buffer size: 11059200
  Buffer per thread: 2
  We computed 1429482 shell quartets total.
  Whereas there are 1675365 unique shell quartets.

  ==> DiskJK: Disk-Based J/K Matrices <==

    J tasked:                  Yes
    K tasked:                  Yes
    wK tasked:                  No
    Memory [MiB]:              375
    Schwarz Cutoff:          1E-12

    OpenMP threads:              1

  Minimum eigenvalue in the overlap matrix is 7.1318427971E-03.
  Using Symmetric Orthogonalization.

  SCF Guess: Superposition of Atomic Densities via on-the-fly atomic UHF.

  ==> Iterations <==

                        Total Energy        Delta E     RMS |[F,P]|

   @RHF iter SAD:  -157.35249158768039   -1.57352e+02   0.00000e+00
   @RHF iter   1:  -158.30759148444383   -9.55100e-01   4.21000e-03 DIIS
   @RHF iter   2:  -158.44081221609042   -1.33221e-01   1.79279e-03 DIIS
   @RHF iter   3:  -158.46414425115441   -2.33320e-02   3.49646e-04 DIIS
   @RHF iter   4:  -158.46598063717695   -1.83639e-03   3.89395e-05 DIIS
   @RHF iter   5:  -158.46600462195977   -2.39848e-05   6.41921e-06 DIIS
   @RHF iter   6:  -158.46600524387279   -6.21913e-07   9.77207e-07 DIIS
   @RHF iter   7:  -158.46600525373867   -9.86589e-09   3.03348e-07 DIIS
   @RHF iter   8:  -158.46600525452007   -7.81398e-10   3.97024e-08 DIIS
   @RHF iter   9:  -158.46600525454511   -2.50395e-11   7.61247e-09 DIIS
   @RHF iter  10:  -158.46600525454588   -7.67386e-13   2.03344e-09 DIIS
   @RHF iter  11:  -158.46600525454610   -2.27374e-13   5.58615e-10 DIIS
   @RHF iter  12:  -158.46600525454605    5.68434e-14   1.51689e-10 DIIS
   @RHF iter  13:  -158.46600525454650   -4.54747e-13   2.37965e-11 DIIS
  Energy and wave function converged.

  ==> Post-Iterations <==

    Orbital Energies [Eh]
    ---------------------

    Doubly Occupied:

       1A    -11.219500     2A    -11.218153     3A    -11.217123
       4A    -11.216284     5A     -1.019920     6A     -1.017032
       7A     -0.839030     8A     -0.835240     9A     -0.604097
      10A     -0.598415    11A     -0.597838    12A     -0.592850
      13A     -0.505020    14A     -0.497503    15A     -0.488459
      16A     -0.486488    17A     -0.485842    18A     -0.479978

    Virtual:

      19A      0.171285    20A      0.198597    21A      0.226858
      22A      0.230911    23A      0.245688    24A      0.256644
      25A      0.266070    26A      0.277749    27A      0.281718
      28A      0.284540    29A      0.298062    30A      0.340771
      31A      0.392658    32A      0.410727    33A      0.584831
      34A      0.591985    35A      0.599050    36A      0.603584
      37A      0.609759    38A      0.631841    39A      0.669219
      40A      0.688407    41A      0.705038    42A      0.784884
      43A      0.842037    44A      0.851836    45A      0.878839
      46A      0.889278    47A      0.890473    48A      0.894815
      49A      0.899278    50A      0.904021    51A      0.914729
      52A      0.925532    53A      0.943377    54A      0.955894
      55A      0.978116    56A      1.019779    57A      1.123448
      58A      1.128292    59A      1.130299    60A      1.150384
      61A      1.235789    62A      1.270545    63A      1.456953
      64A      1.471689    65A      1.478017    66A      1.490154
      67A      1.564307    68A      1.613491    69A      1.679702
      70A      1.684016    71A      1.694771    72A      1.695466
      73A      1.856090    74A      1.859258    75A      1.864355
      76A      1.880047    77A      1.887430    78A      1.907605
      79A      1.925369    80A      1.942663    81A      1.948100
      82A      1.949887    83A      1.951446    84A      1.958078
      85A      1.964501    86A      1.971819    87A      1.982746
      88A      2.018311    89A      2.084191    90A      2.112879
      91A      2.120484    92A      2.142204    93A      2.295979
      94A      2.302825    95A      2.314143    96A      2.319201
      97A      2.443429    98A      2.450670    99A      2.465771
     100A      2.477737   101A      2.555352   102A      2.566945
     103A      2.575467   104A      2.585633   105A      2.758976
     106A      2.767110   107A      2.791895   108A      2.793401
     109A      2.845481   110A      2.849323   111A      2.860204
     112A      2.869339   113A      2.946855   114A      2.949710
     115A      2.964068   116A      2.987445

    Final Occupation by Irrep:
              A
    DOCC [    18 ]

  @RHF Final Energy:  -158.46600525454650

   => Energetics <=

    Nuclear Repulsion Energy =            121.9418030241071875
    One-Electron Energy =                -452.9780706873093550
    Two-Electron Energy =                 172.5702624086556796
    Total Energy =                       -158.4660052545465021

Computation Completed

Properties will be evaluated at   0.000000,   0.000000,   0.000000 [a0]

Properties computed using the SCF density matrix

  Nuclear Dipole Moment: [e a0]
     X:    -0.0711      Y:     0.0564      Z:    -0.0523

  Electronic Dipole Moment: [e a0]
     X:     0.0486      Y:    -0.0614      Z:     0.0531

  Dipole Moment: [e a0]
     X:    -0.0225      Y:    -0.0050      Z:     0.0008     Total:     0.0231

  Dipole Moment: [D]
     X:    -0.0572      Y:    -0.0128      Z:     0.0020     Total:     0.0587

*** tstop() called on ds3 at Mon Apr 27 12:46:44 2020
Module time:
	user time   =      13.16 seconds =       0.22 minutes
	system time =       4.27 seconds =       0.07 minutes
	total time  =         17 seconds =       0.28 minutes
Total time:
	user time   =      13.16 seconds =       0.22 minutes
	system time =       4.27 seconds =       0.07 minutes
	total time  =         17 seconds =       0.28 minutes
                                     G D M A

                                 by Anthony Stone

                           version 2.2.06, 22 June 2011

               Distributed Multipoles from Gaussian wavefunctions

Starting at 12:46:44 on 27 Apr 2020

Using SCF density matrix from file ./SSI/SSI-055VAL-059ILE-1-dimer.test.4016.fchk

                         Distributed Multipole Analysis

Standard DMA

Positions and radii in angstrom
Multipole moments in atomic units, ea_0^k for rank k

C          x =  0.001093  y =  1.031236  z = -1.456579 angstrom
           Maximum rank =  0   Radius =  0.650 angstrom
                   Q00  =  -0.247874

C          x =  1.109093  y =  0.988236  z = -2.512579 angstrom
           Maximum rank =  0   Radius =  0.650 angstrom
                   Q00  =  -0.230308

H          x =  0.128093  y =  1.902236  z = -0.812579 angstrom
           Maximum rank =  0   Radius =  0.325 angstrom
                   Q00  =   0.078088

H          x = -0.970907  y =  1.090236  z = -1.946579 angstrom
           Maximum rank =  0   Radius =  0.325 angstrom
                   Q00  =   0.078493

H          x =  0.018093  y =  0.126236  z = -0.852579 angstrom
           Maximum rank =  0   Radius =  0.325 angstrom
                   Q00  =   0.084308

H          x =  1.001093  y =  0.065236  z = -3.081579 angstrom
           Maximum rank =  0   Radius =  0.325 angstrom
                   Q00  =   0.077461

H          x =  2.101843  y =  0.998886  z = -2.038979 angstrom
           Maximum rank =  0   Radius =  0.325 angstrom
                   Q00  =   0.080630

H          x =  0.986113  y =  1.828396  z = -3.211879 angstrom
           Maximum rank =  0   Radius =  0.325 angstrom
                   Q00  =   0.079056

C          x = -0.991907  y = -1.305764  z =  1.436421 angstrom
           Maximum rank =  0   Radius =  0.650 angstrom
                   Q00  =  -0.235428

C          x = -0.111907  y = -0.718764  z =  2.537421 angstrom
           Maximum rank =  0   Radius =  0.650 angstrom
                   Q00  =  -0.237885

H          x = -1.721907  y = -1.999764  z =  1.852421 angstrom
           Maximum rank =  0   Radius =  0.325 angstrom
                   Q00  =   0.078475

H          x = -1.533907  y = -0.498764  z =  0.942421 angstrom
           Maximum rank =  0   Radius =  0.325 angstrom
                   Q00  =   0.081488

H          x = -0.373907  y = -1.823764  z =  0.701421 angstrom
           Maximum rank =  0   Radius =  0.325 angstrom
                   Q00  =   0.077694

H          x = -0.748907  y = -0.237764  z =  3.281421 angstrom
           Maximum rank =  0   Radius =  0.325 angstrom
                   Q00  =   0.077845

H          x =  0.496093  y =  0.059236  z =  2.076421 angstrom
           Maximum rank =  0   Radius =  0.325 angstrom
                   Q00  =   0.075917

H          x =  0.542333  y = -1.450224  z =  3.034321 angstrom
           Maximum rank =  0   Radius =  0.325 angstrom
                   Q00  =   0.082042

Total multipoles referred to origin at
           x =   0.000000,  y =    0.000000,  z =    0.000000 angstrom
                   Q00  =  -0.000000

Finished at 12:46:44 on 27 Apr 2020

  DMA results are available in the Python driver through the
	  variable('DMA DISTRIBUTED MULTIPOLES')
  and
	  variable('DMA TOTAL MULTIPOLES')
  commands.

    Psi4 stopped on: Monday, 27 April 2020 12:46PM
    Psi4 wall time for execution: 0:00:17.21

*** Psi4 exiting successfully. Buy a developer a beer!
