                               Psi4 1.3.2 release

  ==> Input File <==

--------------------------------------------------------------------------
import numpy as np
set {scf_type pk
basis cc-pvdz
d_convergence 10
gdma_switch   0
gdma_limit    0
gdma_origin   [ 0.0,  0.0,  0.0 ]
}
molecule test {
    units Angstrom
    1 1
    --
    1 1
    C                1.643670028968862     1.074199213286659    -1.865340630332006
    C                0.878670028968862     2.050199213286659    -2.744340630332006
    H                2.587670028968862     1.509199213286660    -1.539340630332006
    H                1.057670028968862     0.857199213286659    -0.974340630332006
    H                1.833670028968862     0.146199213286659    -2.406340630332006
    H                0.738670028968862     2.978199213286659    -2.189340630332006
    H                1.437450028968862     2.252999213286659    -3.669887630332006
    H               -0.115669971031138     1.645685213286660    -2.984453630332006
    C               -2.103329971031138     0.531199213286659     1.041659369667994
    C               -0.116329971031138    -0.916800786713341     0.915659369667994
    N               -0.749329971031138     0.130199213286659     1.418659369667994
    N                1.104670028968862    -1.197800786713340     1.321659369667994
    N               -0.700329971031138    -1.671800786713341     0.003659369667994
    H               -0.256329971031138     0.672199213286659     2.114659369667994
    H                1.622670028968862    -0.510800786713341     1.870659369667994
    H                1.533670028968862    -2.062800786713340     1.048659369667994
    H               -1.647329971031138    -1.477800786713340    -0.271340630332006
    H               -0.221329971031138    -2.464800786713341    -0.392340630332006
    H               -2.824329971031138    -0.052800786713341     1.619659369667994
    H               -2.290329971031138     0.360199213286659    -0.020340630332006
    H               -2.266699971031138     1.598955213286659     1.249521369667994

}
e, wfn = energy('scf', return_wfn=True)
gdma(wfn)
dmavals = variable('DMA DISTRIBUTED MULTIPOLES')
charges = np.array(dmavals)
print(charges)
np.save('SSI-051LEU-080ARG-1-dimer.npy', np.array(charges))--------------------------------------------------------------------------

*** tstart() called on ds3
*** at Tue Apr 28 10:43:20 2020

   => Loading Basis Set <=

    Name: CC-PVDZ
    Role: ORBITAL
    Keyword: BASIS
    atoms 1-2, 9-10  entry C          line   138 file /theoryfs2/ds/metcalf/miniconda2/envs/tf2gpu/share/psi4/basis/cc-pvdz.gbs
    atoms 3-8, 14-21 entry H          line    22 file /theoryfs2/ds/metcalf/miniconda2/envs/tf2gpu/share/psi4/basis/cc-pvdz.gbs
    atoms 11-13      entry N          line   168 file /theoryfs2/ds/metcalf/miniconda2/envs/tf2gpu/share/psi4/basis/cc-pvdz.gbs

         ---------------------------------------------------------
                                   SCF
               by Justin Turney, Rob Parrish, Andy Simmonett
                          and Daniel G. A. Smith
                              RHF Reference
                        1 Threads,    500 MiB Core
         ---------------------------------------------------------

  ==> Geometry <==

    Molecular point group: c1
    Full point group: C1

    Geometry (in Angstrom), charge = 1, multiplicity = 1:

       Center              X                  Y                   Z               Mass
    ------------   -----------------  -----------------  -----------------  -----------------
         C            1.643670028969     1.074199213287    -1.865340630332    12.000000000000
         C            0.878670028969     2.050199213287    -2.744340630332    12.000000000000
         H            2.587670028969     1.509199213287    -1.539340630332     1.007825032230
         H            1.057670028969     0.857199213287    -0.974340630332     1.007825032230
         H            1.833670028969     0.146199213287    -2.406340630332     1.007825032230
         H            0.738670028969     2.978199213287    -2.189340630332     1.007825032230
         H            1.437450028969     2.252999213287    -3.669887630332     1.007825032230
         H           -0.115669971031     1.645685213287    -2.984453630332     1.007825032230
         C           -2.103329971031     0.531199213287     1.041659369668    12.000000000000
         C           -0.116329971031    -0.916800786713     0.915659369668    12.000000000000
         N           -0.749329971031     0.130199213287     1.418659369668    14.003074004430
         N            1.104670028969    -1.197800786713     1.321659369668    14.003074004430
         N           -0.700329971031    -1.671800786713     0.003659369668    14.003074004430
         H           -0.256329971031     0.672199213287     2.114659369668     1.007825032230
         H            1.622670028969    -0.510800786713     1.870659369668     1.007825032230
         H            1.533670028969    -2.062800786713     1.048659369668     1.007825032230
         H           -1.647329971031    -1.477800786713    -0.271340630332     1.007825032230
         H           -0.221329971031    -2.464800786713    -0.392340630332     1.007825032230
         H           -2.824329971031    -0.052800786713     1.619659369668     1.007825032230
         H           -2.290329971031     0.360199213287    -0.020340630332     1.007825032230
         H           -2.266699971031     1.598955213287     1.249521369668     1.007825032230

  Running in c1 symmetry.

  Rotational constants: A =      0.08747  B =      0.03666  C =      0.03100 [cm^-1]
  Rotational constants: A =   2622.30194  B =   1099.13516  C =    929.36253 [MHz]
  Nuclear repulsion =  322.538087653668640

  Charge       = 1
  Multiplicity = 1
  Electrons    = 58
  Nalpha       = 29
  Nbeta        = 29

  ==> Algorithm <==

  SCF Algorithm Type is PK.
  DIIS enabled.
  MOM disabled.
  Fractional occupation disabled.
  Guess Type is SAD.
  Energy threshold   = 1.00e-06
  Density threshold  = 1.00e-10
  Integral threshold = 0.00e+00

  ==> Primary Basis <==

  Basis Set: CC-PVDZ
    Blend: CC-PVDZ
    Number of shells: 84
    Number of basis function: 168
    Number of Cartesian functions: 175
    Spherical Harmonics?: true
    Max angular momentum: 2

  ==> Pre-Iterations <==

   -------------------------------------------------------
    Irrep   Nso     Nmo     Nalpha   Nbeta   Ndocc  Nsocc
   -------------------------------------------------------
     A        168     168       0       0       0       0
   -------------------------------------------------------
    Total     168     168      29      29      29       0
   -------------------------------------------------------

  ==> Integral Setup <==

  Using integral reordering PK algorithm.
  Sizing the integral batches needed.
  Building batch lookup table.
   Calculation information:
      Number of atoms:                  21
      Number of AO shells:              84
      Number of primitives:            224
      Number of atomic orbitals:       175
      Number of basis functions:       168

      Integral cutoff                 1.00e-12
      Number of threads:                 1

	Batch   1 pq = [       0,    9405] index = [             0,44231715] size =     44231715
	Batch   2 pq = [    9405,   13301] index = [      44231715,88464951] size =     44233236
	Batch   3 pq = [   13301,   14196] index = [      88464951,100770306] size =     12305355
  Task number: 10
  Buffer size: 11059200
  Buffer per thread: 2
  We computed 5847497 shell quartets total.
  Whereas there are 6374235 unique shell quartets.

  ==> DiskJK: Disk-Based J/K Matrices <==

    J tasked:                  Yes
    K tasked:                  Yes
    wK tasked:                  No
    Memory [MiB]:              375
    Schwarz Cutoff:          1E-12

    OpenMP threads:              1

  Minimum eigenvalue in the overlap matrix is 3.2559732623E-03.
  Using Symmetric Orthogonalization.

  SCF Guess: Superposition of Atomic Densities via on-the-fly atomic UHF.

  ==> Iterations <==

                        Total Energy        Delta E     RMS |[F,P]|

   @RHF iter SAD:  -322.14771742184325   -3.22148e+02   0.00000e+00
   @RHF iter   1:  -322.61481080026419   -4.67093e-01   3.43232e-03 DIIS
   @RHF iter   2:  -322.78747150988778   -1.72661e-01   1.36032e-03 DIIS
   @RHF iter   3:  -322.81329196496841   -2.58205e-02   3.20199e-04 DIIS
   @RHF iter   4:  -322.81572186116682   -2.42990e-03   5.06267e-05 DIIS
   @RHF iter   5:  -322.81578518414801   -6.33230e-05   2.07103e-05 DIIS
   @RHF iter   6:  -322.81579395838293   -8.77423e-06   4.19925e-06 DIIS
   @RHF iter   7:  -322.81579457898772   -6.20605e-07   1.37808e-06 DIIS
   @RHF iter   8:  -322.81579462296349   -4.39758e-08   4.12078e-07 DIIS
   @RHF iter   9:  -322.81579462704315   -4.07965e-09   9.47265e-08 DIIS
   @RHF iter  10:  -322.81579462728064   -2.37492e-10   2.75539e-08 DIIS
   @RHF iter  11:  -322.81579462730099   -2.03499e-11   7.27522e-09 DIIS
   @RHF iter  12:  -322.81579462730224   -1.25056e-12   2.37302e-09 DIIS
   @RHF iter  13:  -322.81579462730230   -5.68434e-14   9.87601e-10 DIIS
   @RHF iter  14:  -322.81579462730258   -2.84217e-13   2.85170e-10 DIIS
   @RHF iter  15:  -322.81579462730275   -1.70530e-13   6.21040e-11 DIIS
  Energy and wave function converged.

  ==> Post-Iterations <==

    Orbital Energies [Eh]
    ---------------------

    Doubly Occupied:

       1A    -15.789725     2A    -15.787820     3A    -15.787771
       4A    -11.589620     5A    -11.443602     6A    -11.327435
       7A    -11.318100     8A     -1.548172     9A     -1.404238
      10A     -1.393439    11A     -1.143579    12A     -1.126217
      13A     -1.039579    14A     -0.979437    15A     -0.943130
      16A     -0.941219    17A     -0.863427    18A     -0.859680
      19A     -0.825253    20A     -0.798080    21A     -0.743062
      22A     -0.725451    23A     -0.706164    24A     -0.703033
      25A     -0.619417    26A     -0.606930    27A     -0.591683
      28A     -0.588327    29A     -0.585894

    Virtual:

      30A     -0.014234    31A      0.020624    32A      0.024155
      33A      0.032220    34A      0.059331    35A      0.078859
      36A      0.088232    37A      0.115977    38A      0.117658
      39A      0.131051    40A      0.142574    41A      0.152797
      42A      0.160931    43A      0.186023    44A      0.186588
      45A      0.204070    46A      0.287964    47A      0.297812
      48A      0.326892    49A      0.336689    50A      0.451926
      51A      0.457294    52A      0.474365    53A      0.489517
      54A      0.494259    55A      0.521222    56A      0.527351
      57A      0.534888    58A      0.551388    59A      0.554658
      60A      0.561461    61A      0.587417    62A      0.678084
      63A      0.682444    64A      0.695548    65A      0.703562
      66A      0.715492    67A      0.736605    68A      0.740508
      69A      0.751681    70A      0.781062    71A      0.785216
      72A      0.795025    73A      0.797473    74A      0.802916
      75A      0.817774    76A      0.831665    77A      0.848021
      78A      0.856345    79A      0.876618    80A      0.909198
      81A      0.925392    82A      0.961445    83A      1.009043
      84A      1.018383    85A      1.025679    86A      1.037937
      87A      1.103778    88A      1.128206    89A      1.147302
      90A      1.171937    91A      1.202217    92A      1.212384
      93A      1.232529    94A      1.288885    95A      1.365517
      96A      1.374334    97A      1.387886    98A      1.459331
      99A      1.472983   100A      1.487631   101A      1.529359
     102A      1.552919   103A      1.579640   104A      1.586392
     105A      1.600571   106A      1.622346   107A      1.653749
     108A      1.683288   109A      1.713233   110A      1.719450
     111A      1.742274   112A      1.752865   113A      1.763068
     114A      1.769958   115A      1.778907   116A      1.793900
     117A      1.808486   118A      1.827242   119A      1.845215
     120A      1.846477   121A      1.851829   122A      1.854811
     123A      1.870172   124A      1.883216   125A      1.893007
     126A      1.989414   127A      2.003911   128A      2.011214
     129A      2.032517   130A      2.038665   131A      2.128635
     132A      2.143747   133A      2.158457   134A      2.198113
     135A      2.206433   136A      2.226217   137A      2.271630
     138A      2.280210   139A      2.326459   140A      2.335084
     141A      2.359714   142A      2.369588   143A      2.374664
     144A      2.430540   145A      2.460427   146A      2.468580
     147A      2.478174   148A      2.531288   149A      2.575580
     150A      2.605192   151A      2.622537   152A      2.662694
     153A      2.691126   154A      2.719297   155A      2.744365
     156A      2.750830   157A      2.760394   158A      2.787343
     159A      2.805536   160A      2.841346   161A      2.860915
     162A      2.870057   163A      2.888258   164A      3.071024
     165A      3.112513   166A      3.130693   167A      3.563426
     168A      3.640116

    Final Occupation by Irrep:
              A
    DOCC [    29 ]

  @RHF Final Energy:  -322.81579462730275

   => Energetics <=

    Nuclear Repulsion Energy =            322.5380876536686401
    One-Electron Energy =               -1065.1487992272557221
    Two-Electron Energy =                 419.7949169462843315
    Total Energy =                       -322.8157946273027505

Computation Completed

Properties will be evaluated at   0.000000,   0.000000,   0.000000 [a0]

Properties computed using the SCF density matrix

  Nuclear Dipole Moment: [e a0]
     X:     1.1161      Y:     5.1189      Z:    -6.1433

  Electronic Dipole Moment: [e a0]
     X:    -1.5401      Y:    -6.5054      Z:     7.7100

  Dipole Moment: [e a0]
     X:    -0.4241      Y:    -1.3865      Z:     1.5667     Total:     2.1347

  Dipole Moment: [D]
     X:    -1.0779      Y:    -3.5241      Z:     3.9822     Total:     5.4258

*** tstop() called on ds3 at Tue Apr 28 10:44:35 2020
Module time:
	user time   =      34.40 seconds =       0.57 minutes
	system time =      11.83 seconds =       0.20 minutes
	total time  =         75 seconds =       1.25 minutes
Total time:
	user time   =      34.40 seconds =       0.57 minutes
	system time =      11.83 seconds =       0.20 minutes
	total time  =         75 seconds =       1.25 minutes
                                     G D M A

                                 by Anthony Stone

                           version 2.2.06, 22 June 2011

               Distributed Multipoles from Gaussian wavefunctions

Starting at 10:44:35 on 28 Apr 2020

Using SCF density matrix from file ./SSI/SSI-051LEU-080ARG-1-dimer.test.13179.fchk

                         Distributed Multipole Analysis

Standard DMA

Positions and radii in angstrom
Multipole moments in atomic units, ea_0^k for rank k

C          x =  1.643670  y =  1.074199  z = -1.865341 angstrom
           Maximum rank =  0   Radius =  0.650 angstrom
                   Q00  =  -0.245927

C          x =  0.878670  y =  2.050199  z = -2.744341 angstrom
           Maximum rank =  0   Radius =  0.650 angstrom
                   Q00  =  -0.218210

H          x =  2.587670  y =  1.509199  z = -1.539341 angstrom
           Maximum rank =  0   Radius =  0.325 angstrom
                   Q00  =   0.096654

H          x =  1.057670  y =  0.857199  z = -0.974341 angstrom
           Maximum rank =  0   Radius =  0.325 angstrom
                   Q00  =   0.024775

H          x =  1.833670  y =  0.146199  z = -2.406341 angstrom
           Maximum rank =  0   Radius =  0.325 angstrom
                   Q00  =   0.082599

H          x =  0.738670  y =  2.978199  z = -2.189341 angstrom
           Maximum rank =  0   Radius =  0.325 angstrom
                   Q00  =   0.082834

H          x =  1.437450  y =  2.252999  z = -3.669888 angstrom
           Maximum rank =  0   Radius =  0.325 angstrom
                   Q00  =   0.104945

H          x = -0.115670  y =  1.645685  z = -2.984454 angstrom
           Maximum rank =  0   Radius =  0.325 angstrom
                   Q00  =   0.069827

C          x = -2.103330  y =  0.531199  z =  1.041659 angstrom
           Maximum rank =  0   Radius =  0.650 angstrom
                   Q00  =  -0.128252

C          x = -0.116330  y = -0.916801  z =  0.915659 angstrom
           Maximum rank =  0   Radius =  0.650 angstrom
                   Q00  =   1.078783

N          x = -0.749330  y =  0.130199  z =  1.418659 angstrom
           Maximum rank =  0   Radius =  0.650 angstrom
                   Q00  =  -0.484752

N          x =  1.104670  y = -1.197801  z =  1.321659 angstrom
           Maximum rank =  0   Radius =  0.650 angstrom
                   Q00  =  -0.595485

N          x = -0.700330  y = -1.671801  z =  0.003659 angstrom
           Maximum rank =  0   Radius =  0.650 angstrom
                   Q00  =  -0.583245

H          x = -0.256330  y =  0.672199  z =  2.114659 angstrom
           Maximum rank =  0   Radius =  0.325 angstrom
                   Q00  =   0.236725

H          x =  1.622670  y = -0.510801  z =  1.870659 angstrom
           Maximum rank =  0   Radius =  0.325 angstrom
                   Q00  =   0.273090

H          x =  1.533670  y = -2.062801  z =  1.048659 angstrom
           Maximum rank =  0   Radius =  0.325 angstrom
                   Q00  =   0.267224

H          x = -1.647330  y = -1.477801  z = -0.271341 angstrom
           Maximum rank =  0   Radius =  0.325 angstrom
                   Q00  =   0.269459

H          x = -0.221330  y = -2.464801  z = -0.392341 angstrom
           Maximum rank =  0   Radius =  0.325 angstrom
                   Q00  =   0.269515

H          x = -2.824330  y = -0.052801  z =  1.619659 angstrom
           Maximum rank =  0   Radius =  0.325 angstrom
                   Q00  =   0.124116

H          x = -2.290330  y =  0.360199  z = -0.020341 angstrom
           Maximum rank =  0   Radius =  0.325 angstrom
                   Q00  =   0.111526

H          x = -2.266700  y =  1.598955  z =  1.249521 angstrom
           Maximum rank =  0   Radius =  0.325 angstrom
                   Q00  =   0.163799

Total multipoles referred to origin at
           x =   0.000000,  y =    0.000000,  z =    0.000000 angstrom
                   Q00  =   1.000000

Finished at 10:44:36 on 28 Apr 2020

  DMA results are available in the Python driver through the
	  variable('DMA DISTRIBUTED MULTIPOLES')
  and
	  variable('DMA TOTAL MULTIPOLES')
  commands.

    Psi4 stopped on: Tuesday, 28 April 2020 10:44AM
    Psi4 wall time for execution: 0:01:15.40

*** Psi4 exiting successfully. Buy a developer a beer!
