                               Psi4 1.3.2 release

  ==> Input File <==

--------------------------------------------------------------------------
import numpy as np
set {scf_type pk
basis cc-pvdz
d_convergence 10
gdma_switch   0
gdma_limit    0
gdma_origin   [ 0.0,  0.0,  0.0 ]
}
molecule test {
    units Angstrom
    0 1
    --
    0 1
    C                1.295404749615522    -1.846108208721375     0.513253981209483
    C                1.508404749615522    -1.597108208721375     2.067253981209483
    H                2.062404749615522    -2.516108208721374     0.127253981209483
    H                0.315404749615522    -2.293108208721375     0.357253981209483
    H                1.355404749615522    -0.915108208721375    -0.041746018790517
    H                0.568404749615522    -1.240108208721375     2.488253981209483
    H                2.252144749615522    -0.793438208721375     2.171954981209483
    H                1.777704749615522    -2.552728208721375     2.540822981209483
    C               -0.438595250384478     0.953891791278625    -0.694746018790517
    C               -0.693595250384478     2.458891791278625    -0.843746018790517
    C               -1.687595250384478     0.093891791278625    -1.085746018790517
    H                0.403404749615522     0.669891791278625    -1.327746018790517
    H               -0.198595250384478     0.714891791278625     0.340253981209483
    H               -1.682595250384478     2.657891791278626    -0.427746018790517
    H               -1.940595250384478     0.251891791278625    -2.130746018790517
    H               -1.457595250384478    -0.961108208721375    -0.935746018790517
    H               -2.535595250384478     0.360891791278625    -0.454746018790517
    H                0.025564749615522     3.082211791278625    -0.292129018790517
    H               -0.755235250384478     2.778441791278625    -1.894502018790517

}
e, wfn = energy('scf', return_wfn=True)
gdma(wfn)
dmavals = variable('DMA DISTRIBUTED MULTIPOLES')
charges = np.array(dmavals)
print(charges)
np.save('SSI-237ILE-267ILE-1-dimer.npy', np.array(charges))--------------------------------------------------------------------------

*** tstart() called on ds3
*** at Sun Apr 26 21:37:57 2020

   => Loading Basis Set <=

    Name: CC-PVDZ
    Role: ORBITAL
    Keyword: BASIS
    atoms 1-2, 9-11  entry C          line   138 file /theoryfs2/ds/metcalf/miniconda2/envs/tf2gpu/share/psi4/basis/cc-pvdz.gbs
    atoms 3-8, 12-19 entry H          line    22 file /theoryfs2/ds/metcalf/miniconda2/envs/tf2gpu/share/psi4/basis/cc-pvdz.gbs

         ---------------------------------------------------------
                                   SCF
               by Justin Turney, Rob Parrish, Andy Simmonett
                          and Daniel G. A. Smith
                              RHF Reference
                        1 Threads,    500 MiB Core
         ---------------------------------------------------------

  ==> Geometry <==

    Molecular point group: c1
    Full point group: C1

    Geometry (in Angstrom), charge = 0, multiplicity = 1:

       Center              X                  Y                   Z               Mass
    ------------   -----------------  -----------------  -----------------  -----------------
         C            1.295404749616    -1.846108208721     0.513253981209    12.000000000000
         C            1.508404749616    -1.597108208721     2.067253981209    12.000000000000
         H            2.062404749616    -2.516108208721     0.127253981209     1.007825032230
         H            0.315404749616    -2.293108208721     0.357253981209     1.007825032230
         H            1.355404749616    -0.915108208721    -0.041746018791     1.007825032230
         H            0.568404749616    -1.240108208721     2.488253981209     1.007825032230
         H            2.252144749616    -0.793438208721     2.171954981209     1.007825032230
         H            1.777704749616    -2.552728208721     2.540822981209     1.007825032230
         C           -0.438595250384     0.953891791279    -0.694746018791    12.000000000000
         C           -0.693595250384     2.458891791279    -0.843746018791    12.000000000000
         C           -1.687595250384     0.093891791279    -1.085746018791    12.000000000000
         H            0.403404749616     0.669891791279    -1.327746018791     1.007825032230
         H           -0.198595250384     0.714891791279     0.340253981209     1.007825032230
         H           -1.682595250384     2.657891791279    -0.427746018791     1.007825032230
         H           -1.940595250384     0.251891791279    -2.130746018791     1.007825032230
         H           -1.457595250384    -0.961108208721    -0.935746018791     1.007825032230
         H           -2.535595250384     0.360891791279    -0.454746018791     1.007825032230
         H            0.025564749616     3.082211791279    -0.292129018791     1.007825032230
         H           -0.755235250384     2.778441791279    -1.894502018791     1.007825032230

  Running in c1 symmetry.

  Rotational constants: A =      0.21673  B =      0.04480  C =      0.04042 [cm^-1]
  Rotational constants: A =   6497.52809  B =   1342.97487  C =   1211.89410 [MHz]
  Nuclear repulsion =  179.976914005007217

  Charge       = 0
  Multiplicity = 1
  Electrons    = 44
  Nalpha       = 22
  Nbeta        = 22

  ==> Algorithm <==

  SCF Algorithm Type is PK.
  DIIS enabled.
  MOM disabled.
  Fractional occupation disabled.
  Guess Type is SAD.
  Energy threshold   = 1.00e-06
  Density threshold  = 1.00e-10
  Integral threshold = 0.00e+00

  ==> Primary Basis <==

  Basis Set: CC-PVDZ
    Blend: CC-PVDZ
    Number of shells: 72
    Number of basis function: 140
    Number of Cartesian functions: 145
    Spherical Harmonics?: true
    Max angular momentum: 2

  ==> Pre-Iterations <==

   -------------------------------------------------------
    Irrep   Nso     Nmo     Nalpha   Nbeta   Ndocc  Nsocc
   -------------------------------------------------------
     A        140     140       0       0       0       0
   -------------------------------------------------------
    Total     140     140      22      22      22       0
   -------------------------------------------------------

  ==> Integral Setup <==

  Using integral reordering PK algorithm.
  Sizing the integral batches needed.
  Building batch lookup table.
   Calculation information:
      Number of atoms:                  19
      Number of AO shells:              72
      Number of primitives:            180
      Number of atomic orbitals:       145
      Number of basis functions:       140

      Integral cutoff                 1.00e-12
      Number of threads:                 1

	Batch   1 pq = [       0,    9405] index = [             0,44231715] size =     44231715
	Batch   2 pq = [    9405,    9870] index = [      44231715,48713385] size =      4481670
  Task number: 5
  Buffer size: 11059200
  Buffer per thread: 2
  We computed 3000681 shell quartets total.
  Whereas there are 3454506 unique shell quartets.

  ==> DiskJK: Disk-Based J/K Matrices <==

    J tasked:                  Yes
    K tasked:                  Yes
    wK tasked:                  No
    Memory [MiB]:              375
    Schwarz Cutoff:          1E-12

    OpenMP threads:              1

  Minimum eigenvalue in the overlap matrix is 5.4992590626E-03.
  Using Symmetric Orthogonalization.

  SCF Guess: Superposition of Atomic Densities via on-the-fly atomic UHF.

  ==> Iterations <==

                        Total Energy        Delta E     RMS |[F,P]|

   @RHF iter SAD:  -196.24098599219425   -1.96241e+02   0.00000e+00
   @RHF iter   1:  -197.31375825733386   -1.07277e+00   3.69059e-03 DIIS
   @RHF iter   2:  -197.46765042411911   -1.53892e-01   1.55045e-03 DIIS
   @RHF iter   3:  -197.49336546096390   -2.57150e-02   3.20253e-04 DIIS
   @RHF iter   4:  -197.49551767718276   -2.15222e-03   4.87154e-05 DIIS
   @RHF iter   5:  -197.49555697679114   -3.92996e-05   1.51972e-05 DIIS
   @RHF iter   6:  -197.49556054055151   -3.56376e-06   2.48585e-06 DIIS
   @RHF iter   7:  -197.49556065929860   -1.18747e-07   4.68367e-07 DIIS
   @RHF iter   8:  -197.49556066437768   -5.07907e-09   1.16323e-07 DIIS
   @RHF iter   9:  -197.49556066467676   -2.99082e-10   3.75307e-08 DIIS
   @RHF iter  10:  -197.49556066470882   -3.20597e-11   9.02777e-09 DIIS
   @RHF iter  11:  -197.49556066471072   -1.90425e-12   1.81465e-09 DIIS
   @RHF iter  12:  -197.49556066471129   -5.68434e-13   4.00481e-10 DIIS
   @RHF iter  13:  -197.49556066471038    9.09495e-13   9.76897e-11 DIIS
  Energy and wave function converged.

  ==> Post-Iterations <==

    Orbital Energies [Eh]
    ---------------------

    Doubly Occupied:

       1A    -11.223816     2A    -11.223603     3A    -11.217804
       4A    -11.217732     5A    -11.216982     6A     -1.047140
       7A     -1.004768     8A     -0.922744     9A     -0.840220
      10A     -0.800667    11A     -0.623176    12A     -0.601066
      13A     -0.594765    14A     -0.585464    15A     -0.547027
      16A     -0.529931    17A     -0.499072    18A     -0.489092
      19A     -0.479781    20A     -0.474225    21A     -0.469523
      22A     -0.461581

    Virtual:

      23A      0.170703    24A      0.195901    25A      0.216679
      26A      0.221751    27A      0.244633    28A      0.245352
      29A      0.253596    30A      0.264021    31A      0.272887
      32A      0.286159    33A      0.302254    34A      0.316319
      35A      0.335021    36A      0.357320    37A      0.369713
      38A      0.384786    39A      0.420856    40A      0.571982
      41A      0.589225    42A      0.597293    43A      0.602332
      44A      0.611264    45A      0.629599    46A      0.635384
      47A      0.675710    48A      0.710406    49A      0.778639
      50A      0.791448    51A      0.812808    52A      0.817976
      53A      0.852672    54A      0.873942    55A      0.887848
      56A      0.892523    57A      0.894143    58A      0.898434
      59A      0.902906    60A      0.908786    61A      0.909766
      62A      0.929742    63A      0.940093    64A      0.952680
      65A      0.962192    66A      0.981509    67A      1.000958
      68A      1.024208    69A      1.106992    70A      1.119945
      71A      1.136224    72A      1.167422    73A      1.205911
      74A      1.257564    75A      1.376503    76A      1.456604
      77A      1.468436    78A      1.475803    79A      1.484857
      80A      1.533664    81A      1.584100    82A      1.603632
      83A      1.670067    84A      1.677449    85A      1.690609
      86A      1.715909    87A      1.746028    88A      1.837279
      89A      1.849911    90A      1.861406    91A      1.877558
      92A      1.891072    93A      1.906954    94A      1.912552
      95A      1.917342    96A      1.923859    97A      1.930818
      98A      1.934114    99A      1.941259   100A      1.948336
     101A      1.959177   102A      1.974445   103A      1.985536
     104A      1.993190   105A      2.015530   106A      2.042383
     107A      2.053812   108A      2.113768   109A      2.145631
     110A      2.159590   111A      2.198438   112A      2.257975
     113A      2.282466   114A      2.299226   115A      2.313676
     116A      2.320579   117A      2.355965   118A      2.432901
     119A      2.436519   120A      2.482454   121A      2.534457
     122A      2.569956   123A      2.588750   124A      2.600003
     125A      2.613202   126A      2.638813   127A      2.747457
     128A      2.768853   129A      2.775003   130A      2.788011
     131A      2.804178   132A      2.811211   133A      2.829966
     134A      2.833750   135A      2.897109   136A      2.930561
     137A      2.960919   138A      2.973279   139A      2.990104
     140A      3.061383

    Final Occupation by Irrep:
              A
    DOCC [    22 ]

  @RHF Final Energy:  -197.49556066471038

   => Energetics <=

    Nuclear Repulsion Energy =            179.9769140050072167
    One-Electron Energy =                -620.8045942978837957
    Two-Electron Energy =                 243.3321196281662253
    Total Energy =                       -197.4955606647103821

Computation Completed

Properties will be evaluated at   0.000000,   0.000000,   0.000000 [a0]

Properties computed using the SCF density matrix

  Nuclear Dipole Moment: [e a0]
     X:     0.1783      Y:    -0.7083      Z:     0.4881

  Electronic Dipole Moment: [e a0]
     X:    -0.1807      Y:     0.7084      Z:    -0.4928

  Dipole Moment: [e a0]
     X:    -0.0023      Y:     0.0000      Z:    -0.0046     Total:     0.0052

  Dipole Moment: [D]
     X:    -0.0059      Y:     0.0000      Z:    -0.0118     Total:     0.0132

*** tstop() called on ds3 at Sun Apr 26 21:38:21 2020
Module time:
	user time   =      15.92 seconds =       0.27 minutes
	system time =       5.95 seconds =       0.10 minutes
	total time  =         24 seconds =       0.40 minutes
Total time:
	user time   =      15.92 seconds =       0.27 minutes
	system time =       5.95 seconds =       0.10 minutes
	total time  =         24 seconds =       0.40 minutes
                                     G D M A

                                 by Anthony Stone

                           version 2.2.06, 22 June 2011

               Distributed Multipoles from Gaussian wavefunctions

Starting at 21:38:21 on 26 Apr 2020

Using SCF density matrix from file ./SSI/SSI-237ILE-267ILE-1-dimer.test.4107.fchk

                         Distributed Multipole Analysis

Standard DMA

Positions and radii in angstrom
Multipole moments in atomic units, ea_0^k for rank k

C          x =  1.295405  y = -1.846108  z =  0.513254 angstrom
           Maximum rank =  0   Radius =  0.650 angstrom
                   Q00  =  -0.261140

C          x =  1.508405  y = -1.597108  z =  2.067254 angstrom
           Maximum rank =  0   Radius =  0.650 angstrom
                   Q00  =  -0.220795

H          x =  2.062405  y = -2.516108  z =  0.127254 angstrom
           Maximum rank =  0   Radius =  0.325 angstrom
                   Q00  =   0.081994

H          x =  0.315405  y = -2.293108  z =  0.357254 angstrom
           Maximum rank =  0   Radius =  0.325 angstrom
                   Q00  =   0.079796

H          x =  1.355405  y = -0.915108  z = -0.041746 angstrom
           Maximum rank =  0   Radius =  0.325 angstrom
                   Q00  =   0.091172

H          x =  0.568405  y = -1.240108  z =  2.488254 angstrom
           Maximum rank =  0   Radius =  0.325 angstrom
                   Q00  =   0.080949

H          x =  2.252145  y = -0.793438  z =  2.171955 angstrom
           Maximum rank =  0   Radius =  0.325 angstrom
                   Q00  =   0.070868

H          x =  1.777705  y = -2.552728  z =  2.540823 angstrom
           Maximum rank =  0   Radius =  0.325 angstrom
                   Q00  =   0.074899

C          x = -0.438595  y =  0.953892  z = -0.694746 angstrom
           Maximum rank =  0   Radius =  0.650 angstrom
                   Q00  =  -0.089459

C          x = -0.693595  y =  2.458892  z = -0.843746 angstrom
           Maximum rank =  0   Radius =  0.650 angstrom
                   Q00  =  -0.239752

C          x = -1.687595  y =  0.093892  z = -1.085746 angstrom
           Maximum rank =  0   Radius =  0.650 angstrom
                   Q00  =  -0.255878

H          x =  0.403405  y =  0.669892  z = -1.327746 angstrom
           Maximum rank =  0   Radius =  0.325 angstrom
                   Q00  =   0.048366

H          x = -0.198595  y =  0.714892  z =  0.340254 angstrom
           Maximum rank =  0   Radius =  0.325 angstrom
                   Q00  =   0.050916

H          x = -1.682595  y =  2.657892  z = -0.427746 angstrom
           Maximum rank =  0   Radius =  0.325 angstrom
                   Q00  =   0.070585

H          x = -1.940595  y =  0.251892  z = -2.130746 angstrom
           Maximum rank =  0   Radius =  0.325 angstrom
                   Q00  =   0.080587

H          x = -1.457595  y = -0.961108  z = -0.935746 angstrom
           Maximum rank =  0   Radius =  0.325 angstrom
                   Q00  =   0.089298

H          x = -2.535595  y =  0.360892  z = -0.454746 angstrom
           Maximum rank =  0   Radius =  0.325 angstrom
                   Q00  =   0.080371

H          x =  0.025565  y =  3.082212  z = -0.292129 angstrom
           Maximum rank =  0   Radius =  0.325 angstrom
                   Q00  =   0.086314

H          x = -0.755235  y =  2.778442  z = -1.894502 angstrom
           Maximum rank =  0   Radius =  0.325 angstrom
                   Q00  =   0.080909

Total multipoles referred to origin at
           x =   0.000000,  y =    0.000000,  z =    0.000000 angstrom
                   Q00  =  -0.000000

Finished at 21:38:21 on 26 Apr 2020

  DMA results are available in the Python driver through the
	  variable('DMA DISTRIBUTED MULTIPOLES')
  and
	  variable('DMA TOTAL MULTIPOLES')
  commands.

    Psi4 stopped on: Sunday, 26 April 2020 09:38PM
    Psi4 wall time for execution: 0:00:23.49

*** Psi4 exiting successfully. Buy a developer a beer!
