                               Psi4 1.3.2 release

  ==> Input File <==

--------------------------------------------------------------------------
import numpy as np
set {scf_type pk
basis cc-pvdz
d_convergence 10
gdma_switch   0
gdma_limit    0
gdma_origin   [ 0.0,  0.0,  0.0 ]
}
molecule test {
    units Angstrom
    -1 1
    --
    -1 1
    C               -1.456343793961653     4.029744566512873    -0.948699195453786
    C               -1.157343793961654     3.566744566512873     0.472300804546214
    O               -1.108343793961653     2.350744566512873     0.723300804546214
    O               -0.892343793961654     4.401744566512872     1.374300804546214
    H               -0.559343793961653     4.487744566512872    -1.375699195453786
    H               -2.240343793961653     4.780744566512872    -0.928699195453786
    H               -1.776603793961653     3.209394566512873    -1.607839195453787
    C               -0.839343793961653    -4.150255433487127     0.446300804546214
    C               -1.503343793961654    -1.681255433487127     0.566300804546214
    C                0.345656206038347    -0.673255433487127    -0.192699195453786
    C               -0.616343793961654    -2.685255433487127     0.319300804546214
    C                0.576656206038347    -2.063255433487127    -0.174699195453786
    C                1.316656206038346     0.227744566512873    -0.598699195453786
    C                2.536656206038346    -0.279255433487127    -1.009699195453786
    C                1.830656206038346    -2.544255433487127    -0.577699195453786
    C                2.785656206038347    -1.652255433487127    -1.005699195453786
    N               -0.929343793961653    -0.476255433487127     0.264300804546214
    H               -1.353343793961654     0.440744566512873     0.427300804546214
    H               -2.513343793961653    -1.820255433487127     0.934300804546214
    H                1.121656206038346     1.288744566512873    -0.587699195453786
    H               -1.436343793961653    -4.345255433487128     1.338300804546213
    H                0.128656206038347    -4.624255433487128     0.608300804546214
    H                3.318656206038347     0.394744566512873    -1.330699195453786
    H                2.044656206038346    -3.599255433487127    -0.521699195453786
    H                3.759656206038347    -2.018255433487127    -1.294699195453787
    H               -1.303743793961653    -4.623267433487126    -0.431529195453786

}
e, wfn = energy('scf', return_wfn=True)
gdma(wfn)
dmavals = variable('DMA DISTRIBUTED MULTIPOLES')
charges = np.array(dmavals)
print(charges)
np.save('SSI-103GLU-108TRP-1-dimer.npy', np.array(charges))--------------------------------------------------------------------------

*** tstart() called on ds3
*** at Tue Apr 28 14:14:42 2020

   => Loading Basis Set <=

    Name: CC-PVDZ
    Role: ORBITAL
    Keyword: BASIS
    atoms 1-2, 8-16  entry C          line   138 file /theoryfs2/ds/metcalf/miniconda2/envs/tf2gpu/share/psi4/basis/cc-pvdz.gbs
    atoms 3-4        entry O          line   198 file /theoryfs2/ds/metcalf/miniconda2/envs/tf2gpu/share/psi4/basis/cc-pvdz.gbs
    atoms 5-7, 18-26 entry H          line    22 file /theoryfs2/ds/metcalf/miniconda2/envs/tf2gpu/share/psi4/basis/cc-pvdz.gbs
    atoms 17         entry N          line   168 file /theoryfs2/ds/metcalf/miniconda2/envs/tf2gpu/share/psi4/basis/cc-pvdz.gbs

         ---------------------------------------------------------
                                   SCF
               by Justin Turney, Rob Parrish, Andy Simmonett
                          and Daniel G. A. Smith
                              RHF Reference
                        1 Threads,    500 MiB Core
         ---------------------------------------------------------

  ==> Geometry <==

    Molecular point group: c1
    Full point group: C1

    Geometry (in Angstrom), charge = -1, multiplicity = 1:

       Center              X                  Y                   Z               Mass
    ------------   -----------------  -----------------  -----------------  -----------------
         C           -1.456343793962     4.029744566513    -0.948699195454    12.000000000000
         C           -1.157343793962     3.566744566513     0.472300804546    12.000000000000
         O           -1.108343793962     2.350744566513     0.723300804546    15.994914619570
         O           -0.892343793962     4.401744566513     1.374300804546    15.994914619570
         H           -0.559343793962     4.487744566513    -1.375699195454     1.007825032230
         H           -2.240343793962     4.780744566513    -0.928699195454     1.007825032230
         H           -1.776603793962     3.209394566513    -1.607839195454     1.007825032230
         C           -0.839343793962    -4.150255433487     0.446300804546    12.000000000000
         C           -1.503343793962    -1.681255433487     0.566300804546    12.000000000000
         C            0.345656206038    -0.673255433487    -0.192699195454    12.000000000000
         C           -0.616343793962    -2.685255433487     0.319300804546    12.000000000000
         C            0.576656206038    -2.063255433487    -0.174699195454    12.000000000000
         C            1.316656206038     0.227744566513    -0.598699195454    12.000000000000
         C            2.536656206038    -0.279255433487    -1.009699195454    12.000000000000
         C            1.830656206038    -2.544255433487    -0.577699195454    12.000000000000
         C            2.785656206038    -1.652255433487    -1.005699195454    12.000000000000
         N           -0.929343793962    -0.476255433487     0.264300804546    14.003074004430
         H           -1.353343793962     0.440744566513     0.427300804546     1.007825032230
         H           -2.513343793962    -1.820255433487     0.934300804546     1.007825032230
         H            1.121656206038     1.288744566513    -0.587699195454     1.007825032230
         H           -1.436343793962    -4.345255433487     1.338300804546     1.007825032230
         H            0.128656206038    -4.624255433487     0.608300804546     1.007825032230
         H            3.318656206038     0.394744566513    -1.330699195454     1.007825032230
         H            2.044656206038    -3.599255433487    -0.521699195454     1.007825032230
         H            3.759656206038    -2.018255433487    -1.294699195454     1.007825032230
         H           -1.303743793962    -4.623267433487    -0.431529195454     1.007825032230

  Running in c1 symmetry.

  Rotational constants: A =      0.03835  B =      0.01112  C =      0.00910 [cm^-1]
  Rotational constants: A =   1149.74773  B =    333.36782  C =    272.74718 [MHz]
  Nuclear repulsion =  808.709258161543971

  Charge       = -1
  Multiplicity = 1
  Electrons    = 102
  Nalpha       = 51
  Nbeta        = 51

  ==> Algorithm <==

  SCF Algorithm Type is PK.
  DIIS enabled.
  MOM disabled.
  Fractional occupation disabled.
  Guess Type is SAD.
  Energy threshold   = 1.00e-06
  Density threshold  = 1.00e-10
  Integral threshold = 0.00e+00

  ==> Primary Basis <==

  Basis Set: CC-PVDZ
    Blend: CC-PVDZ
    Number of shells: 120
    Number of basis function: 256
    Number of Cartesian functions: 270
    Spherical Harmonics?: true
    Max angular momentum: 2

  ==> Pre-Iterations <==

   -------------------------------------------------------
    Irrep   Nso     Nmo     Nalpha   Nbeta   Ndocc  Nsocc
   -------------------------------------------------------
     A        256     256       0       0       0       0
   -------------------------------------------------------
    Total     256     256      51      51      51       0
   -------------------------------------------------------

  ==> Integral Setup <==

  Using integral reordering PK algorithm.
  Sizing the integral batches needed.
  Building batch lookup table.
   Calculation information:
      Number of atoms:                  26
      Number of AO shells:             120
      Number of primitives:            368
      Number of atomic orbitals:       270
      Number of basis functions:       256

      Integral cutoff                 1.00e-12
      Number of threads:                 1

	Batch   1 pq = [       0,    9405] index = [             0,44231715] size =     44231715
	Batch   2 pq = [    9405,   13301] index = [      44231715,88464951] size =     44233236
	Batch   3 pq = [   13301,   16290] index = [      88464951,132690195] size =     44225244
	Batch   4 pq = [   16290,   18810] index = [     132690195,176917455] size =     44227260
	Batch   5 pq = [   18810,   21030] index = [     176917455,221140965] size =     44223510
	Batch   6 pq = [   21030,   23037] index = [     221140965,265363203] size =     44222238
	Batch   7 pq = [   23037,   24883] index = [     265363203,309594286] size =     44231083
	Batch   8 pq = [   24883,   26601] index = [     309594286,353819901] size =     44225615
	Batch   9 pq = [   26601,   28214] index = [     353819901,398029005] size =     44209104
	Batch  10 pq = [   28214,   29740] index = [     398029005,442248670] size =     44219665
	Batch  11 pq = [   29740,   31191] index = [     442248670,486454836] size =     44206166
	Batch  12 pq = [   31191,   32578] index = [     486454836,530679331] size =     44224495
	Batch  13 pq = [   32578,   32896] index = [     530679331,541089856] size =     10410525
  Task number: 49
  Buffer size: 11059200
  Buffer per thread: 2
  We computed 22738433 shell quartets total.
  Whereas there are 26357430 unique shell quartets.

  ==> DiskJK: Disk-Based J/K Matrices <==

    J tasked:                  Yes
    K tasked:                  Yes
    wK tasked:                  No
    Memory [MiB]:              375
    Schwarz Cutoff:          1E-12

    OpenMP threads:              1

  Minimum eigenvalue in the overlap matrix is 2.3254106182E-04.
  Using Symmetric Orthogonalization.

  SCF Guess: Superposition of Atomic Densities via on-the-fly atomic UHF.

  ==> Iterations <==

                        Total Energy        Delta E     RMS |[F,P]|

   @RHF iter SAD:  -626.67574733426295   -6.26676e+02   0.00000e+00
   @RHF iter   1:  -627.42946665653938   -7.53719e-01   3.20640e-03 DIIS
   @RHF iter   2:  -627.72156516306723   -2.92099e-01   1.72451e-03 DIIS
   @RHF iter   3:  -627.79790869187889   -7.63435e-02   3.18715e-04 DIIS
   @RHF iter   4:  -627.80219153698022   -4.28285e-03   1.18650e-04 DIIS
   @RHF iter   5:  -627.80277332272510   -5.81786e-04   2.22276e-05 DIIS
   @RHF iter   6:  -627.80279881608499   -2.54934e-05   1.11829e-05 DIIS
   @RHF iter   7:  -627.80280479814041   -5.98206e-06   2.70086e-06 DIIS
   @RHF iter   8:  -627.80280564870236   -8.50562e-07   1.04931e-06 DIIS
   @RHF iter   9:  -627.80280577881933   -1.30117e-07   4.23802e-07 DIIS
   @RHF iter  10:  -627.80280579609746   -1.72781e-08   1.23774e-07 DIIS
   @RHF iter  11:  -627.80280579799262   -1.89516e-09   5.45041e-08 DIIS
   @RHF iter  12:  -627.80280579831037   -3.17755e-10   2.94625e-08 DIIS
   @RHF iter  13:  -627.80280579845066   -1.40290e-10   1.33065e-08 DIIS
   @RHF iter  14:  -627.80280579849489   -4.42242e-11   4.47675e-09 DIIS
   @RHF iter  15:  -627.80280579848852    6.36646e-12   1.42469e-09 DIIS
   @RHF iter  16:  -627.80280579849227   -3.75167e-12   5.92312e-10 DIIS
   @RHF iter  17:  -627.80280579849000    2.27374e-12   2.93290e-10 DIIS
   @RHF iter  18:  -627.80280579849386   -3.86535e-12   9.26914e-11 DIIS
  Energy and wave function converged.

  ==> Post-Iterations <==

    Orbital Energies [Eh]
    ---------------------

    Doubly Occupied:

       1A    -20.292858     2A    -20.275709     3A    -15.468298
       4A    -11.154153     5A    -11.143913     6A    -11.142190
       7A    -11.136726     8A    -11.124960     9A    -11.119506
      10A    -11.117612    11A    -11.113981    12A    -11.109909
      13A    -11.106504    14A    -11.072821    15A     -1.179662
      16A     -1.173546    17A     -1.056567    18A     -1.023140
      19A     -0.965866    20A     -0.892094    21A     -0.881561
      22A     -0.827715    23A     -0.819309    24A     -0.730165
      25A     -0.693000    26A     -0.644114    27A     -0.603491
      28A     -0.552094    29A     -0.539316    30A     -0.528093
      31A     -0.494940    32A     -0.489842    33A     -0.479343
      34A     -0.465841    35A     -0.450672    36A     -0.440865
      37A     -0.432559    38A     -0.428214    39A     -0.427561
      40A     -0.420437    41A     -0.391010    42A     -0.367034
      43A     -0.359593    44A     -0.354770    45A     -0.330245
      46A     -0.263178    47A     -0.214810    48A     -0.192071
      49A     -0.186837    50A     -0.184817    51A     -0.164883

    Virtual:

      52A      0.233980    53A      0.274235    54A      0.279624
      55A      0.297251    56A      0.310792    57A      0.320448
      58A      0.325957    59A      0.337429    60A      0.347908
      61A      0.375271    62A      0.383649    63A      0.394786
      64A      0.396449    65A      0.410336    66A      0.435351
      67A      0.461819    68A      0.476104    69A      0.494793
      70A      0.526579    71A      0.541474    72A      0.551699
      73A      0.554748    74A      0.579582    75A      0.594640
      76A      0.612414    77A      0.627327    78A      0.671701
      79A      0.702906    80A      0.715376    81A      0.731201
      82A      0.743320    83A      0.755831    84A      0.771790
      85A      0.791490    86A      0.801167    87A      0.809797
      88A      0.820239    89A      0.829994    90A      0.839574
      91A      0.841734    92A      0.854747    93A      0.856442
      94A      0.862108    95A      0.868094    96A      0.877546
      97A      0.887121    98A      0.901822    99A      0.904419
     100A      0.931047   101A      0.946613   102A      0.948123
     103A      0.953688   104A      0.966023   105A      0.972037
     106A      0.992896   107A      0.996309   108A      1.003704
     109A      1.010181   110A      1.016414   111A      1.024979
     112A      1.034922   113A      1.042338   114A      1.054907
     115A      1.071352   116A      1.075358   117A      1.083700
     118A      1.101018   119A      1.137007   120A      1.158346
     121A      1.163722   122A      1.196343   123A      1.201985
     124A      1.228249   125A      1.242265   126A      1.251408
     127A      1.254260   128A      1.278048   129A      1.284413
     130A      1.316241   131A      1.324826   132A      1.331419
     133A      1.336721   134A      1.340100   135A      1.348991
     136A      1.355693   137A      1.387028   138A      1.393780
     139A      1.419035   140A      1.440784   141A      1.441619
     142A      1.454407   143A      1.482208   144A      1.506214
     145A      1.519918   146A      1.536931   147A      1.547573
     148A      1.554709   149A      1.592465   150A      1.600196
     151A      1.642790   152A      1.652755   153A      1.663239
     154A      1.677561   155A      1.698288   156A      1.725848
     157A      1.729730   158A      1.748186   159A      1.750040
     160A      1.762179   161A      1.789599   162A      1.810907
     163A      1.824640   164A      1.833340   165A      1.862700
     166A      1.874613   167A      1.894683   168A      1.897023
     169A      1.931004   170A      1.934698   171A      1.953529
     172A      1.990964   173A      2.002539   174A      2.005570
     175A      2.010399   176A      2.017062   177A      2.025524
     178A      2.035773   179A      2.052687   180A      2.057890
     181A      2.064222   182A      2.075412   183A      2.083336
     184A      2.107451   185A      2.125515   186A      2.131351
     187A      2.143066   188A      2.160275   189A      2.182620
     190A      2.196215   191A      2.202238   192A      2.214000
     193A      2.218049   194A      2.226520   195A      2.238604
     196A      2.250227   197A      2.262161   198A      2.280343
     199A      2.284795   200A      2.294159   201A      2.304014
     202A      2.353558   203A      2.383935   204A      2.392378
     205A      2.404630   206A      2.410116   207A      2.426089
     208A      2.432692   209A      2.445563   210A      2.488457
     211A      2.501804   212A      2.521985   213A      2.543186
     214A      2.562381   215A      2.575773   216A      2.628271
     217A      2.688515   218A      2.706293   219A      2.711713
     220A      2.743730   221A      2.751890   222A      2.787362
     223A      2.798979   224A      2.819824   225A      2.839965
     226A      2.858545   227A      2.873926   228A      2.897064
     229A      2.911625   230A      2.927253   231A      2.942385
     232A      2.952502   233A      2.967124   234A      2.971964
     235A      2.991198   236A      3.038263   237A      3.098304
     238A      3.138449   239A      3.173251   240A      3.200140
     241A      3.217919   242A      3.248086   243A      3.259968
     244A      3.267805   245A      3.329163   246A      3.339692
     247A      3.426542   248A      3.528877   249A      3.629449
     250A      3.727717   251A      3.790991   252A      3.873867
     253A      4.040513   254A      4.084469   255A      4.102920
     256A      4.178725

    Final Occupation by Irrep:
              A
    DOCC [    51 ]

  @RHF Final Energy:  -627.80280579849386

   => Energetics <=

    Nuclear Repulsion Energy =            808.7092581615439713
    One-Electron Energy =               -2474.9673393751718322
    Two-Electron Energy =                1038.4552754151341105
    Total Energy =                       -627.8028057984938641

Computation Completed

Properties will be evaluated at   0.000000,   0.000000,   0.000000 [a0]

Properties computed using the SCF density matrix

  Nuclear Dipole Moment: [e a0]
     X:    -0.7661      Y:    -5.9926      Z:    -4.4628

  Electronic Dipole Moment: [e a0]
     X:     1.3763      Y:     1.5823      Z:     2.7301

  Dipole Moment: [e a0]
     X:     0.6102      Y:    -4.4103      Z:    -1.7327     Total:     4.7776

  Dipole Moment: [D]
     X:     1.5510      Y:   -11.2100      Z:    -4.4040     Total:    12.1435

*** tstop() called on ds3 at Tue Apr 28 14:21:49 2020
Module time:
	user time   =     209.25 seconds =       3.49 minutes
	system time =      82.17 seconds =       1.37 minutes
	total time  =        427 seconds =       7.12 minutes
Total time:
	user time   =     209.25 seconds =       3.49 minutes
	system time =      82.17 seconds =       1.37 minutes
	total time  =        427 seconds =       7.12 minutes
                                     G D M A

                                 by Anthony Stone

                           version 2.2.06, 22 June 2011

               Distributed Multipoles from Gaussian wavefunctions

Starting at 14:21:49 on 28 Apr 2020

Using SCF density matrix from file ./SSI/SSI-103GLU-108TRP-1-dimer.test.10227.fchk

                         Distributed Multipole Analysis

Standard DMA

Positions and radii in angstrom
Multipole moments in atomic units, ea_0^k for rank k

C          x = -1.456344  y =  4.029745  z = -0.948699 angstrom
           Maximum rank =  0   Radius =  0.650 angstrom
                   Q00  =  -0.287013

C          x = -1.157344  y =  3.566745  z =  0.472301 angstrom
           Maximum rank =  0   Radius =  0.650 angstrom
                   Q00  =   0.952729

O          x = -1.108344  y =  2.350745  z =  0.723301 angstrom
           Maximum rank =  0   Radius =  0.650 angstrom
                   Q00  =  -0.926659

O          x = -0.892344  y =  4.401745  z =  1.374301 angstrom
           Maximum rank =  0   Radius =  0.650 angstrom
                   Q00  =  -0.915585

H          x = -0.559344  y =  4.487745  z = -1.375699 angstrom
           Maximum rank =  0   Radius =  0.325 angstrom
                   Q00  =   0.084344

H          x = -2.240344  y =  4.780745  z = -0.928699 angstrom
           Maximum rank =  0   Radius =  0.325 angstrom
                   Q00  =   0.074758

H          x = -1.776604  y =  3.209395  z = -1.607839 angstrom
           Maximum rank =  0   Radius =  0.325 angstrom
                   Q00  =   0.058429

C          x = -0.839344  y = -4.150255  z =  0.446301 angstrom
           Maximum rank =  0   Radius =  0.650 angstrom
                   Q00  =  -0.211100

C          x = -1.503344  y = -1.681255  z =  0.566301 angstrom
           Maximum rank =  0   Radius =  0.650 angstrom
                   Q00  =   0.143946

C          x =  0.345656  y = -0.673255  z = -0.192699 angstrom
           Maximum rank =  0   Radius =  0.650 angstrom
                   Q00  =   0.266226

C          x = -0.616344  y = -2.685255  z =  0.319301 angstrom
           Maximum rank =  0   Radius =  0.650 angstrom
                   Q00  =  -0.170117

C          x =  0.576656  y = -2.063255  z = -0.174699 angstrom
           Maximum rank =  0   Radius =  0.650 angstrom
                   Q00  =  -0.078041

C          x =  1.316656  y =  0.227745  z = -0.598699 angstrom
           Maximum rank =  0   Radius =  0.650 angstrom
                   Q00  =  -0.072046

C          x =  2.536656  y = -0.279255  z = -1.009699 angstrom
           Maximum rank =  0   Radius =  0.650 angstrom
                   Q00  =  -0.020458

C          x =  1.830656  y = -2.544255  z = -0.577699 angstrom
           Maximum rank =  0   Radius =  0.650 angstrom
                   Q00  =  -0.112925

C          x =  2.785656  y = -1.652255  z = -1.005699 angstrom
           Maximum rank =  0   Radius =  0.650 angstrom
                   Q00  =  -0.087375

N          x = -0.929344  y = -0.476255  z =  0.264301 angstrom
           Maximum rank =  0   Radius =  0.650 angstrom
                   Q00  =  -0.512951

H          x = -1.353344  y =  0.440745  z =  0.427301 angstrom
           Maximum rank =  0   Radius =  0.325 angstrom
                   Q00  =   0.279398

H          x = -2.513344  y = -1.820255  z =  0.934301 angstrom
           Maximum rank =  0   Radius =  0.325 angstrom
                   Q00  =   0.079444

H          x =  1.121656  y =  1.288745  z = -0.587699 angstrom
           Maximum rank =  0   Radius =  0.325 angstrom
                   Q00  =   0.086731

H          x = -1.436344  y = -4.345255  z =  1.338301 angstrom
           Maximum rank =  0   Radius =  0.325 angstrom
                   Q00  =   0.088829

H          x =  0.128656  y = -4.624255  z =  0.608301 angstrom
           Maximum rank =  0   Radius =  0.325 angstrom
                   Q00  =   0.088606

H          x =  3.318656  y =  0.394745  z = -1.330699 angstrom
           Maximum rank =  0   Radius =  0.325 angstrom
                   Q00  =   0.040787

H          x =  2.044656  y = -3.599255  z = -0.521699 angstrom
           Maximum rank =  0   Radius =  0.325 angstrom
                   Q00  =   0.040778

H          x =  3.759656  y = -2.018255  z = -1.294699 angstrom
           Maximum rank =  0   Radius =  0.325 angstrom
                   Q00  =   0.029384

H          x = -1.303744  y = -4.623267  z = -0.431529 angstrom
           Maximum rank =  0   Radius =  0.325 angstrom
                   Q00  =   0.079883

Total multipoles referred to origin at
           x =   0.000000,  y =    0.000000,  z =    0.000000 angstrom
                   Q00  =  -1.000000

Finished at 14:21:49 on 28 Apr 2020

  DMA results are available in the Python driver through the
	  variable('DMA DISTRIBUTED MULTIPOLES')
  and
	  variable('DMA TOTAL MULTIPOLES')
  commands.

    Psi4 stopped on: Tuesday, 28 April 2020 02:21PM
    Psi4 wall time for execution: 0:07:07.06

*** Psi4 exiting successfully. Buy a developer a beer!
