                               Psi4 1.3.2 release

  ==> Input File <==

--------------------------------------------------------------------------
import numpy as np
set {scf_type pk
basis cc-pvdz
d_convergence 10
gdma_switch   0
gdma_limit    0
gdma_origin   [ 0.0,  0.0,  0.0 ]
}
molecule test {
    units Angstrom
    0 1
    --
    0 1
    C                3.975757824745409     1.116462043701983    -0.418069142543835
    C                1.681757824745409     0.178462043701983    -0.623069142543835
    N                0.861757824745410    -0.636537956298017    -1.257069142543835
    N                2.948757824745409     0.267462043701983    -1.025069142543835
    N                1.212757824745410     0.876462043701983     0.398930857456165
    H                1.170757824745410    -1.216537956298017    -2.020069142543835
    H               -0.094242175254590    -0.684537956298017    -0.903069142543835
    H                3.235757824745410    -0.331537956298017    -1.786069142543835
    H                1.813757824745410     1.454462043701984     0.983930857456165
    H                0.233757824745410     0.729462043701983     0.632930857456165
    H                4.966757824745410     0.712462043701983    -0.634069142543835
    H                3.854757824745409     1.152462043701983     0.665930857456165
    H                3.893447824745409     2.131162043701984    -0.834730142543835
    C               -3.368242175254591     0.323462043701983     1.720930857456165
    C               -2.631242175254591    -0.491537956298017     0.672930857456165
    O               -1.502242175254590    -0.115537956298017     0.304930857456165
    O               -3.166242175254590    -1.519537956298017     0.198930857456165
    H               -3.679242175254590    -0.332537956298017     2.538930857456165
    H               -4.273242175254591     0.736462043701983     1.274930857456165
    H               -2.753392175254590     1.131532043701984     2.143998857456165

}
e, wfn = energy('scf', return_wfn=True)
gdma(wfn)
dmavals = variable('DMA DISTRIBUTED MULTIPOLES')
charges = np.array(dmavals)
print(charges)
np.save('SSI-022ARG-072GLU-1-dimer.npy', np.array(charges))--------------------------------------------------------------------------

*** tstart() called on ds3
*** at Tue Apr 28 15:57:58 2020

   => Loading Basis Set <=

    Name: CC-PVDZ
    Role: ORBITAL
    Keyword: BASIS
    atoms 1-2, 14-15  entry C          line   138 file /theoryfs2/ds/metcalf/miniconda2/envs/tf2gpu/share/psi4/basis/cc-pvdz.gbs
    atoms 3-5         entry N          line   168 file /theoryfs2/ds/metcalf/miniconda2/envs/tf2gpu/share/psi4/basis/cc-pvdz.gbs
    atoms 6-13, 18-20 entry H          line    22 file /theoryfs2/ds/metcalf/miniconda2/envs/tf2gpu/share/psi4/basis/cc-pvdz.gbs
    atoms 16-17       entry O          line   198 file /theoryfs2/ds/metcalf/miniconda2/envs/tf2gpu/share/psi4/basis/cc-pvdz.gbs

         ---------------------------------------------------------
                                   SCF
               by Justin Turney, Rob Parrish, Andy Simmonett
                          and Daniel G. A. Smith
                              RHF Reference
                        1 Threads,    500 MiB Core
         ---------------------------------------------------------

  ==> Geometry <==

    Molecular point group: c1
    Full point group: C1

    Geometry (in Angstrom), charge = 0, multiplicity = 1:

       Center              X                  Y                   Z               Mass
    ------------   -----------------  -----------------  -----------------  -----------------
         C            3.975757824745     1.116462043702    -0.418069142544    12.000000000000
         C            1.681757824745     0.178462043702    -0.623069142544    12.000000000000
         N            0.861757824745    -0.636537956298    -1.257069142544    14.003074004430
         N            2.948757824745     0.267462043702    -1.025069142544    14.003074004430
         N            1.212757824745     0.876462043702     0.398930857456    14.003074004430
         H            1.170757824745    -1.216537956298    -2.020069142544     1.007825032230
         H           -0.094242175255    -0.684537956298    -0.903069142544     1.007825032230
         H            3.235757824745    -0.331537956298    -1.786069142544     1.007825032230
         H            1.813757824745     1.454462043702     0.983930857456     1.007825032230
         H            0.233757824745     0.729462043702     0.632930857456     1.007825032230
         H            4.966757824745     0.712462043702    -0.634069142544     1.007825032230
         H            3.854757824745     1.152462043702     0.665930857456     1.007825032230
         H            3.893447824745     2.131162043702    -0.834730142544     1.007825032230
         C           -3.368242175255     0.323462043702     1.720930857456    12.000000000000
         C           -2.631242175255    -0.491537956298     0.672930857456    12.000000000000
         O           -1.502242175255    -0.115537956298     0.304930857456    15.994914619570
         O           -3.166242175255    -1.519537956298     0.198930857456    15.994914619570
         H           -3.679242175255    -0.332537956298     2.538930857456     1.007825032230
         H           -4.273242175255     0.736462043702     1.274930857456     1.007825032230
         H           -2.753392175255     1.131532043702     2.143998857456     1.007825032230

  Running in c1 symmetry.

  Rotational constants: A =      0.14947  B =      0.01695  C =      0.01537 [cm^-1]
  Rotational constants: A =   4480.98906  B =    508.11348  C =    460.76070 [MHz]
  Nuclear repulsion =  446.433488605526975

  Charge       = 0
  Multiplicity = 1
  Electrons    = 72
  Nalpha       = 36
  Nbeta        = 36

  ==> Algorithm <==

  SCF Algorithm Type is PK.
  DIIS enabled.
  MOM disabled.
  Fractional occupation disabled.
  Guess Type is SAD.
  Energy threshold   = 1.00e-06
  Density threshold  = 1.00e-10
  Integral threshold = 0.00e+00

  ==> Primary Basis <==

  Basis Set: CC-PVDZ
    Blend: CC-PVDZ
    Number of shells: 87
    Number of basis function: 181
    Number of Cartesian functions: 190
    Spherical Harmonics?: true
    Max angular momentum: 2

  ==> Pre-Iterations <==

   -------------------------------------------------------
    Irrep   Nso     Nmo     Nalpha   Nbeta   Ndocc  Nsocc
   -------------------------------------------------------
     A        181     181       0       0       0       0
   -------------------------------------------------------
    Total     181     181      36      36      36       0
   -------------------------------------------------------

  ==> Integral Setup <==

  Using integral reordering PK algorithm.
  Sizing the integral batches needed.
  Building batch lookup table.
   Calculation information:
      Number of atoms:                  20
      Number of AO shells:              87
      Number of primitives:            253
      Number of atomic orbitals:       190
      Number of basis functions:       181

      Integral cutoff                 1.00e-12
      Number of threads:                 1

	Batch   1 pq = [       0,    9405] index = [             0,44231715] size =     44231715
	Batch   2 pq = [    9405,   13301] index = [      44231715,88464951] size =     44233236
	Batch   3 pq = [   13301,   16471] index = [      88464951,135655156] size =     47190205
  Task number: 13
  Buffer size: 11059200
  Buffer per thread: 2
  We computed 5366691 shell quartets total.
  Whereas there are 7328706 unique shell quartets.

  ==> DiskJK: Disk-Based J/K Matrices <==

    J tasked:                  Yes
    K tasked:                  Yes
    wK tasked:                  No
    Memory [MiB]:              375
    Schwarz Cutoff:          1E-12

    OpenMP threads:              1

  Minimum eigenvalue in the overlap matrix is 3.9329999369E-03.
  Using Symmetric Orthogonalization.

  SCF Guess: Superposition of Atomic Densities via on-the-fly atomic UHF.

  ==> Iterations <==

                        Total Energy        Delta E     RMS |[F,P]|

   @RHF iter SAD:  -469.67689857867782   -4.69677e+02   0.00000e+00
   @RHF iter   1:  -470.70245330097458   -1.02555e+00   4.23275e-03 DIIS
   @RHF iter   2:  -470.92690235954808   -2.24449e-01   2.23682e-03 DIIS
   @RHF iter   3:  -470.98626155939547   -5.93592e-02   3.99729e-04 DIIS
   @RHF iter   4:  -470.98957670059451   -3.31514e-03   1.49644e-04 DIIS
   @RHF iter   5:  -470.99001169089888   -4.34990e-04   3.07650e-05 DIIS
   @RHF iter   6:  -470.99003683701551   -2.51461e-05   1.60347e-05 DIIS
   @RHF iter   7:  -470.99004216835590   -5.33134e-06   3.98443e-06 DIIS
   @RHF iter   8:  -470.99004294281940   -7.74464e-07   1.82246e-06 DIIS
   @RHF iter   9:  -470.99004307041361   -1.27594e-07   6.52461e-07 DIIS
   @RHF iter  10:  -470.99004309304109   -2.26275e-08   2.04402e-07 DIIS
   @RHF iter  11:  -470.99004309500617   -1.96508e-09   5.00707e-08 DIIS
   @RHF iter  12:  -470.99004309510019   -9.40190e-11   1.77731e-08 DIIS
   @RHF iter  13:  -470.99004309510860   -8.41283e-12   4.90881e-09 DIIS
   @RHF iter  14:  -470.99004309511105   -2.44427e-12   1.37200e-09 DIIS
   @RHF iter  15:  -470.99004309510866    2.38742e-12   4.81757e-10 DIIS
   @RHF iter  16:  -470.99004309510849    1.70530e-13   1.51739e-10 DIIS
   @RHF iter  17:  -470.99004309510804    4.54747e-13   5.83818e-11 DIIS
  Energy and wave function converged.

  ==> Post-Iterations <==

    Orbital Energies [Eh]
    ---------------------

    Doubly Occupied:

       1A    -20.425644     2A    -20.390758     3A    -15.658585
       4A    -15.631003     5A    -15.621791     6A    -11.442975
       7A    -11.338019     8A    -11.257300     9A    -11.167300
      10A     -1.397545    11A     -1.302116    12A     -1.265261
      13A     -1.230308    14A     -1.179847    15A     -1.022560
      16A     -0.917410    17A     -0.893803    18A     -0.833040
      19A     -0.782345    20A     -0.716595    21A     -0.703868
      22A     -0.694848    23A     -0.669098    24A     -0.632290
      25A     -0.618433    26A     -0.617090    27A     -0.549662
      28A     -0.535985    29A     -0.532005    30A     -0.473445
      31A     -0.462324    32A     -0.450752    33A     -0.444428
      34A     -0.338499    35A     -0.308640    36A     -0.308316

    Virtual:

      37A      0.116008    38A      0.138198    39A      0.165107
      40A      0.172218    41A      0.208675    42A      0.220933
      43A      0.235479    44A      0.248858    45A      0.278896
      46A      0.284445    47A      0.296159    48A      0.332139
      49A      0.351828    50A      0.362474    51A      0.420134
      52A      0.454004    53A      0.468113    54A      0.486327
      55A      0.551500    56A      0.572769    57A      0.582579
      58A      0.619665    59A      0.635804    60A      0.652020
      61A      0.666103    62A      0.688109    63A      0.696548
      64A      0.704212    65A      0.709578    66A      0.771727
      67A      0.782480    68A      0.800359    69A      0.808616
      70A      0.814986    71A      0.824967    72A      0.857109
      73A      0.866164    74A      0.890196    75A      0.897450
      76A      0.914656    77A      0.924566    78A      0.948243
      79A      0.952399    80A      0.962881    81A      0.973932
      82A      0.999301    83A      1.030568    84A      1.043117
      85A      1.076857    86A      1.098367    87A      1.113364
      88A      1.145523    89A      1.181844    90A      1.226156
      91A      1.228363    92A      1.249741    93A      1.276099
      94A      1.281068    95A      1.319495    96A      1.326243
      97A      1.348515    98A      1.404960    99A      1.427847
     100A      1.442729   101A      1.474698   102A      1.483211
     103A      1.511151   104A      1.512232   105A      1.534836
     106A      1.580868   107A      1.595308   108A      1.604203
     109A      1.637223   110A      1.644919   111A      1.664697
     112A      1.707484   113A      1.728099   114A      1.736041
     115A      1.752322   116A      1.829454   117A      1.841458
     118A      1.859676   119A      1.875385   120A      1.879631
     121A      1.893165   122A      1.909058   123A      1.926381
     124A      1.958038   125A      1.966374   126A      1.980780
     127A      1.986401   128A      2.008561   129A      2.024603
     130A      2.072063   131A      2.094618   132A      2.122645
     133A      2.140541   134A      2.157360   135A      2.189506
     136A      2.192299   137A      2.242503   138A      2.259305
     139A      2.269837   140A      2.298372   141A      2.314932
     142A      2.360595   143A      2.423057   144A      2.434460
     145A      2.456803   146A      2.480538   147A      2.500777
     148A      2.526942   149A      2.578526   150A      2.589612
     151A      2.609384   152A      2.618989   153A      2.677292
     154A      2.692123   155A      2.695550   156A      2.705878
     157A      2.765264   158A      2.805667   159A      2.830200
     160A      2.847985   161A      2.868576   162A      2.895972
     163A      2.929293   164A      2.961000   165A      2.999068
     166A      3.023063   167A      3.090359   168A      3.127895
     169A      3.149210   170A      3.194658   171A      3.219386
     172A      3.279407   173A      3.305945   174A      3.495729
     175A      3.639176   176A      3.675065   177A      3.700448
     178A      3.814120   179A      3.938942   180A      3.977800
     181A      4.076240

    Final Occupation by Irrep:
              A
    DOCC [    36 ]

  @RHF Final Energy:  -470.99004309510804

   => Energetics <=

    Nuclear Repulsion Energy =            446.4334886055269749
    One-Electron Energy =               -1529.2192808322488418
    Two-Electron Energy =                 611.7957491316138885
    Total Energy =                       -470.9900430951080352

Computation Completed

Properties will be evaluated at   0.000000,   0.000000,   0.000000 [a0]

Properties computed using the SCF density matrix

  Nuclear Dipole Moment: [e a0]
     X:     7.8085      Y:     5.1307      Z:     1.9416

  Electronic Dipole Moment: [e a0]
     X:    -1.7101      Y:    -3.3914      Z:    -2.8540

  Dipole Moment: [e a0]
     X:     6.0984      Y:     1.7393      Z:    -0.9125     Total:     6.4069

  Dipole Moment: [D]
     X:    15.5007      Y:     4.4209      Z:    -2.3192     Total:    16.2848

*** tstop() called on ds3 at Tue Apr 28 16:00:16 2020
Module time:
	user time   =      41.51 seconds =       0.69 minutes
	system time =      19.12 seconds =       0.32 minutes
	total time  =        138 seconds =       2.30 minutes
Total time:
	user time   =      41.51 seconds =       0.69 minutes
	system time =      19.12 seconds =       0.32 minutes
	total time  =        138 seconds =       2.30 minutes
                                     G D M A

                                 by Anthony Stone

                           version 2.2.06, 22 June 2011

               Distributed Multipoles from Gaussian wavefunctions

Starting at 16:0:16 on 28 Apr 2020

Using SCF density matrix from file ./SSI/SSI-022ARG-072GLU-1-dimer.test.25937.fchk

                         Distributed Multipole Analysis

Standard DMA

Positions and radii in angstrom
Multipole moments in atomic units, ea_0^k for rank k

C          x =  3.975758  y =  1.116462  z = -0.418069 angstrom
           Maximum rank =  0   Radius =  0.650 angstrom
                   Q00  =  -0.107475

C          x =  1.681758  y =  0.178462  z = -0.623069 angstrom
           Maximum rank =  0   Radius =  0.650 angstrom
                   Q00  =   1.070309

N          x =  0.861758  y = -0.636538  z = -1.257069 angstrom
           Maximum rank =  0   Radius =  0.650 angstrom
                   Q00  =  -0.566131

N          x =  2.948758  y =  0.267462  z = -1.025069 angstrom
           Maximum rank =  0   Radius =  0.650 angstrom
                   Q00  =  -0.509646

N          x =  1.212758  y =  0.876462  z =  0.398931 angstrom
           Maximum rank =  0   Radius =  0.650 angstrom
                   Q00  =  -0.588034

H          x =  1.170758  y = -1.216538  z = -2.020069 angstrom
           Maximum rank =  0   Radius =  0.325 angstrom
                   Q00  =   0.235328

H          x = -0.094242  y = -0.684538  z = -0.903069 angstrom
           Maximum rank =  0   Radius =  0.325 angstrom
                   Q00  =   0.297124

H          x =  3.235758  y = -0.331538  z = -1.786069 angstrom
           Maximum rank =  0   Radius =  0.325 angstrom
                   Q00  =   0.210936

H          x =  1.813758  y =  1.454462  z =  0.983931 angstrom
           Maximum rank =  0   Radius =  0.325 angstrom
                   Q00  =   0.242777

H          x =  0.233758  y =  0.729462  z =  0.632931 angstrom
           Maximum rank =  0   Radius =  0.325 angstrom
                   Q00  =   0.294167

H          x =  4.966758  y =  0.712462  z = -0.634069 angstrom
           Maximum rank =  0   Radius =  0.325 angstrom
                   Q00  =   0.136743

H          x =  3.854758  y =  1.152462  z =  0.665931 angstrom
           Maximum rank =  0   Radius =  0.325 angstrom
                   Q00  =   0.104203

H          x =  3.893448  y =  2.131162  z = -0.834730 angstrom
           Maximum rank =  0   Radius =  0.325 angstrom
                   Q00  =   0.109111

C          x = -3.368242  y =  0.323462  z =  1.720931 angstrom
           Maximum rank =  0   Radius =  0.650 angstrom
                   Q00  =  -0.278054

C          x = -2.631242  y = -0.491538  z =  0.672931 angstrom
           Maximum rank =  0   Radius =  0.650 angstrom
                   Q00  =   0.911113

O          x = -1.502242  y = -0.115538  z =  0.304931 angstrom
           Maximum rank =  0   Radius =  0.650 angstrom
                   Q00  =  -0.947501

O          x = -3.166242  y = -1.519538  z =  0.198931 angstrom
           Maximum rank =  0   Radius =  0.650 angstrom
                   Q00  =  -0.874786

H          x = -3.679242  y = -0.332538  z =  2.538931 angstrom
           Maximum rank =  0   Radius =  0.325 angstrom
                   Q00  =   0.096875

H          x = -4.273242  y =  0.736462  z =  1.274931 angstrom
           Maximum rank =  0   Radius =  0.325 angstrom
                   Q00  =   0.105125

H          x = -2.753392  y =  1.131532  z =  2.143999 angstrom
           Maximum rank =  0   Radius =  0.325 angstrom
                   Q00  =   0.057816

Total multipoles referred to origin at
           x =   0.000000,  y =    0.000000,  z =    0.000000 angstrom
                   Q00  =  -0.000000

Finished at 16:0:16 on 28 Apr 2020

  DMA results are available in the Python driver through the
	  variable('DMA DISTRIBUTED MULTIPOLES')
  and
	  variable('DMA TOTAL MULTIPOLES')
  commands.

    Psi4 stopped on: Tuesday, 28 April 2020 04:00PM
    Psi4 wall time for execution: 0:02:18.60

*** Psi4 exiting successfully. Buy a developer a beer!
