                               Psi4 1.3.2 release

  ==> Input File <==

--------------------------------------------------------------------------
import numpy as np
set {scf_type pk
basis cc-pvdz
d_convergence 10
gdma_switch   0
gdma_limit    0
gdma_origin   [ 0.0,  0.0,  0.0 ]
}
molecule test {
    units Angstrom
    0 1
    --
    0 1
    C                1.217254401902466     0.924152834968075     3.132462092653489
    C               -0.495745598097534    -1.286847165031925    -0.154537907346511
    C               -1.312745598097534    -0.781847165031925     0.840462092653489
    C                0.875254401902466    -1.081847165031925    -0.090537907346511
    C               -0.757745598097534    -0.056847165031925     1.895462092653489
    C                1.433254401902466    -0.363847165031925     0.972462092653489
    C                0.620254401902466     0.149152834968075     1.977462092653488
    H               -0.923745598097534    -1.845847165031925    -0.976537907346511
    H               -2.375745598097534    -0.956847165031925     0.797462092653489
    H                1.514254401902466    -1.478847165031925    -0.867537907346511
    H               -1.409745598097534     0.348152834968075     2.650462092653489
    H                2.503254401902466    -0.217847165031925     1.011462092653489
    H                0.566254401902466     1.775152834968075     3.338462092653489
    H                2.171254401902465     1.335152834968075     2.840462092653489
    H                1.342424401902466     0.345963834968075     4.059842092653489
    C               -0.668745598097534     0.321152834968075    -3.551537907346511
    C               -0.828745598097534     1.721152834968075    -4.160537907346511
    H               -1.148745598097534    -0.428847165031925    -4.178537907346511
    H                0.392254401902466     0.079152834968075    -3.477537907346512
    H               -1.103745598097534     0.297152834968075    -2.552537907346512
    H               -0.471745598097534     1.714152834968075    -5.191537907346511
    H               -0.170745598097534     2.371152834968075    -3.586537907346511
    H               -1.865285598097534     2.087244834968074    -4.121057907346511

}
e, wfn = energy('scf', return_wfn=True)
gdma(wfn)
dmavals = variable('DMA DISTRIBUTED MULTIPOLES')
charges = np.array(dmavals)
print(charges)
np.save('SSI-016PHE-132ILE-1-dimer.npy', np.array(charges))--------------------------------------------------------------------------

*** tstart() called on ds3
*** at Tue Apr 28 08:19:05 2020

   => Loading Basis Set <=

    Name: CC-PVDZ
    Role: ORBITAL
    Keyword: BASIS
    atoms 1-7, 16-17  entry C          line   138 file /theoryfs2/ds/metcalf/miniconda2/envs/tf2gpu/share/psi4/basis/cc-pvdz.gbs
    atoms 8-15, 18-23 entry H          line    22 file /theoryfs2/ds/metcalf/miniconda2/envs/tf2gpu/share/psi4/basis/cc-pvdz.gbs

         ---------------------------------------------------------
                                   SCF
               by Justin Turney, Rob Parrish, Andy Simmonett
                          and Daniel G. A. Smith
                              RHF Reference
                        1 Threads,    500 MiB Core
         ---------------------------------------------------------

  ==> Geometry <==

    Molecular point group: c1
    Full point group: C1

    Geometry (in Angstrom), charge = 0, multiplicity = 1:

       Center              X                  Y                   Z               Mass
    ------------   -----------------  -----------------  -----------------  -----------------
         C            1.217254401902     0.924152834968     3.132462092653    12.000000000000
         C           -0.495745598098    -1.286847165032    -0.154537907347    12.000000000000
         C           -1.312745598098    -0.781847165032     0.840462092653    12.000000000000
         C            0.875254401902    -1.081847165032    -0.090537907347    12.000000000000
         C           -0.757745598098    -0.056847165032     1.895462092653    12.000000000000
         C            1.433254401902    -0.363847165032     0.972462092653    12.000000000000
         C            0.620254401902     0.149152834968     1.977462092653    12.000000000000
         H           -0.923745598098    -1.845847165032    -0.976537907347     1.007825032230
         H           -2.375745598098    -0.956847165032     0.797462092653     1.007825032230
         H            1.514254401902    -1.478847165032    -0.867537907347     1.007825032230
         H           -1.409745598098     0.348152834968     2.650462092653     1.007825032230
         H            2.503254401902    -0.217847165032     1.011462092653     1.007825032230
         H            0.566254401902     1.775152834968     3.338462092653     1.007825032230
         H            2.171254401902     1.335152834968     2.840462092653     1.007825032230
         H            1.342424401902     0.345963834968     4.059842092653     1.007825032230
         C           -0.668745598098     0.321152834968    -3.551537907347    12.000000000000
         C           -0.828745598098     1.721152834968    -4.160537907347    12.000000000000
         H           -1.148745598098    -0.428847165032    -4.178537907347     1.007825032230
         H            0.392254401902     0.079152834968    -3.477537907347     1.007825032230
         H           -1.103745598098     0.297152834968    -2.552537907347     1.007825032230
         H           -0.471745598098     1.714152834968    -5.191537907347     1.007825032230
         H           -0.170745598098     2.371152834968    -3.586537907347     1.007825032230
         H           -1.865285598098     2.087244834968    -4.121057907347     1.007825032230

  Running in c1 symmetry.

  Rotational constants: A =      0.08289  B =      0.01972  C =      0.01898 [cm^-1]
  Rotational constants: A =   2484.93031  B =    591.08249  C =    568.94279 [MHz]
  Nuclear repulsion =  399.872241823397360

  Charge       = 0
  Multiplicity = 1
  Electrons    = 68
  Nalpha       = 34
  Nbeta        = 34

  ==> Algorithm <==

  SCF Algorithm Type is PK.
  DIIS enabled.
  MOM disabled.
  Fractional occupation disabled.
  Guess Type is SAD.
  Energy threshold   = 1.00e-06
  Density threshold  = 1.00e-10
  Integral threshold = 0.00e+00

  ==> Primary Basis <==

  Basis Set: CC-PVDZ
    Blend: CC-PVDZ
    Number of shells: 96
    Number of basis function: 196
    Number of Cartesian functions: 205
    Spherical Harmonics?: true
    Max angular momentum: 2

  ==> Pre-Iterations <==

   -------------------------------------------------------
    Irrep   Nso     Nmo     Nalpha   Nbeta   Ndocc  Nsocc
   -------------------------------------------------------
     A        196     196       0       0       0       0
   -------------------------------------------------------
    Total     196     196      34      34      34       0
   -------------------------------------------------------

  ==> Integral Setup <==

  Using integral reordering PK algorithm.
  Sizing the integral batches needed.
  Building batch lookup table.
   Calculation information:
      Number of atoms:                  23
      Number of AO shells:              96
      Number of primitives:            268
      Number of atomic orbitals:       205
      Number of basis functions:       196

      Integral cutoff                 1.00e-12
      Number of threads:                 1

	Batch   1 pq = [       0,    9405] index = [             0,44231715] size =     44231715
	Batch   2 pq = [    9405,   13301] index = [      44231715,88464951] size =     44233236
	Batch   3 pq = [   13301,   16290] index = [      88464951,132690195] size =     44225244
	Batch   4 pq = [   16290,   18810] index = [     132690195,176917455] size =     44227260
	Batch   5 pq = [   18810,   19306] index = [     176917455,186370471] size =      9453016
  Task number: 17
  Buffer size: 11059200
  Buffer per thread: 2
  We computed 8685855 shell quartets total.
  Whereas there are 10841496 unique shell quartets.

  ==> DiskJK: Disk-Based J/K Matrices <==

    J tasked:                  Yes
    K tasked:                  Yes
    wK tasked:                  No
    Memory [MiB]:              375
    Schwarz Cutoff:          1E-12

    OpenMP threads:              1

  Minimum eigenvalue in the overlap matrix is 3.0894128281E-04.
  Using Symmetric Orthogonalization.

  SCF Guess: Superposition of Atomic Densities via on-the-fly atomic UHF.

  ==> Iterations <==

                        Total Energy        Delta E     RMS |[F,P]|

   @RHF iter SAD:  -347.85439585192034   -3.47854e+02   0.00000e+00
   @RHF iter   1:  -348.76802506825510   -9.13629e-01   2.89247e-03 DIIS
   @RHF iter   2:  -348.95998514765085   -1.91960e-01   1.19883e-03 DIIS
   @RHF iter   3:  -348.99002428123055   -3.00391e-02   2.57462e-04 DIIS
   @RHF iter   4:  -348.99248151383404   -2.45723e-03   5.10618e-05 DIIS
   @RHF iter   5:  -348.99255148739047   -6.99736e-05   1.72636e-05 DIIS
   @RHF iter   6:  -348.99255877045647   -7.28307e-06   4.70449e-06 DIIS
   @RHF iter   7:  -348.99255940054826   -6.30092e-07   1.30168e-06 DIIS
   @RHF iter   8:  -348.99255945725611   -5.67078e-08   3.38452e-07 DIIS
   @RHF iter   9:  -348.99255946559470   -8.33859e-09   1.59078e-07 DIIS
   @RHF iter  10:  -348.99255946767545   -2.08075e-09   7.47921e-08 DIIS
   @RHF iter  11:  -348.99255946840924   -7.33792e-10   2.59352e-08 DIIS
   @RHF iter  12:  -348.99255946848081   -7.15659e-11   9.46236e-09 DIIS
   @RHF iter  13:  -348.99255946848655   -5.74119e-12   3.60996e-09 DIIS
   @RHF iter  14:  -348.99255946848979   -3.24007e-12   8.36491e-10 DIIS
   @RHF iter  15:  -348.99255946848723    2.55795e-12   4.01646e-10 DIIS
   @RHF iter  16:  -348.99255946848820   -9.66338e-13   1.80166e-10 DIIS
   @RHF iter  17:  -348.99255946848928   -1.08002e-12   6.81863e-11 DIIS
  Energy and wave function converged.

  ==> Post-Iterations <==

    Orbital Energies [Eh]
    ---------------------

    Doubly Occupied:

       1A    -11.241220     2A    -11.234976     3A    -11.234333
       4A    -11.231030     5A    -11.230487     6A    -11.229577
       7A    -11.228954     8A    -11.214858     9A    -11.212011
      10A     -1.152621    11A     -1.044556    12A     -1.013199
      13A     -1.010095    14A     -0.932494    15A     -0.833282
      16A     -0.825764    17A     -0.795084    18A     -0.691544
      19A     -0.631634    20A     -0.629445    21A     -0.594685
      22A     -0.593606    23A     -0.581262    24A     -0.576300
      25A     -0.563012    26A     -0.535663    27A     -0.496293
      28A     -0.488779    29A     -0.485096    30A     -0.483783
      31A     -0.480084    32A     -0.478124    33A     -0.331020
      34A     -0.323213

    Virtual:

      35A      0.134148    36A      0.142198    37A      0.177912
      38A      0.192421    39A      0.203544    40A      0.213902
      41A      0.234659    42A      0.242552    43A      0.255251
      44A      0.263546    45A      0.269531    46A      0.277768
      47A      0.280731    48A      0.288087    49A      0.299485
      50A      0.313734    51A      0.367270    52A      0.375337
      53A      0.399707    54A      0.455112    55A      0.464654
      56A      0.478172    57A      0.492481    58A      0.559455
      59A      0.588311    60A      0.599483    61A      0.603618
      62A      0.623726    63A      0.634843    64A      0.653952
      65A      0.680000    66A      0.687752    67A      0.699306
      68A      0.709033    69A      0.729670    70A      0.739970
      71A      0.740941    72A      0.748064    73A      0.757142
      74A      0.761531    75A      0.779149    76A      0.819631
      77A      0.832118    78A      0.850247    79A      0.863907
      80A      0.867503    81A      0.874922    82A      0.890697
      83A      0.893997    84A      0.898327    85A      0.899598
      86A      0.903325    87A      0.911768    88A      0.919721
      89A      0.925828    90A      0.944040    91A      0.944520
      92A      0.960931    93A      0.986540    94A      1.002508
      95A      1.015712    96A      1.056100    97A      1.119363
      98A      1.129813    99A      1.132383   100A      1.143931
     101A      1.148233   102A      1.157390   103A      1.189464
     104A      1.232742   105A      1.241828   106A      1.246609
     107A      1.253899   108A      1.261990   109A      1.295688
     110A      1.307047   111A      1.322732   112A      1.326233
     113A      1.414778   114A      1.476038   115A      1.482560
     116A      1.506369   117A      1.522370   118A      1.550457
     119A      1.585802   120A      1.602340   121A      1.676948
     122A      1.684040   123A      1.697395   124A      1.701962
     125A      1.732051   126A      1.750548   127A      1.767100
     128A      1.788206   129A      1.809482   130A      1.855176
     131A      1.864736   132A      1.873284   133A      1.879329
     134A      1.893201   135A      1.904100   136A      1.910681
     137A      1.918171   138A      1.919301   139A      1.943395
     140A      1.945497   141A      1.950793   142A      1.958933
     143A      1.964353   144A      1.973521   145A      1.976421
     146A      1.984034   147A      1.995826   148A      2.000114
     149A      2.039673   150A      2.056432   151A      2.074201
     152A      2.100480   153A      2.108653   154A      2.141324
     155A      2.144635   156A      2.157347   157A      2.167382
     158A      2.179771   159A      2.184030   160A      2.249321
     161A      2.276975   162A      2.292038   163A      2.298474
     164A      2.305295   165A      2.318033   166A      2.322482
     167A      2.335518   168A      2.452356   169A      2.467736
     170A      2.472265   171A      2.472921   172A      2.503289
     173A      2.537195   174A      2.565966   175A      2.589622
     176A      2.621576   177A      2.737769   178A      2.754135
     179A      2.774226   180A      2.776870   181A      2.784323
     182A      2.801008   183A      2.814216   184A      2.845123
     185A      2.853036   186A      2.863976   187A      2.879137
     188A      2.949835   189A      2.963239   190A      2.989948
     191A      3.016016   192A      3.028927   193A      3.158938
     194A      3.201050   195A      3.299960   196A      3.969110

    Final Occupation by Irrep:
              A
    DOCC [    34 ]

  @RHF Final Energy:  -348.99255946848928

   => Energetics <=

    Nuclear Repulsion Energy =            399.8722418233973599
    One-Electron Energy =               -1262.4734363106913406
    Two-Electron Energy =                 513.6086350188046481
    Total Energy =                       -348.9925594684892758

Computation Completed

Properties will be evaluated at   0.000000,   0.000000,   0.000000 [a0]

Properties computed using the SCF density matrix

  Nuclear Dipole Moment: [e a0]
     X:    -0.9185      Y:     5.0858      Z:    -9.6125

  Electronic Dipole Moment: [e a0]
     X:     0.9792      Y:    -5.0321      Z:     9.7572

  Dipole Moment: [e a0]
     X:     0.0607      Y:     0.0537      Z:     0.1446     Total:     0.1658

  Dipole Moment: [D]
     X:     0.1542      Y:     0.1366      Z:     0.3677     Total:     0.4214

*** tstop() called on ds3 at Tue Apr 28 08:20:27 2020
Module time:
	user time   =      57.48 seconds =       0.96 minutes
	system time =      25.93 seconds =       0.43 minutes
	total time  =         82 seconds =       1.37 minutes
Total time:
	user time   =      57.48 seconds =       0.96 minutes
	system time =      25.93 seconds =       0.43 minutes
	total time  =         82 seconds =       1.37 minutes
                                     G D M A

                                 by Anthony Stone

                           version 2.2.06, 22 June 2011

               Distributed Multipoles from Gaussian wavefunctions

Starting at 8:20:27 on 28 Apr 2020

Using SCF density matrix from file ./SSI/SSI-016PHE-132ILE-1-dimer.test.13342.fchk

                         Distributed Multipole Analysis

Standard DMA

Positions and radii in angstrom
Multipole moments in atomic units, ea_0^k for rank k

C          x =  1.217254  y =  0.924153  z =  3.132462 angstrom
           Maximum rank =  0   Radius =  0.650 angstrom
                   Q00  =  -0.207989

C          x = -0.495746  y = -1.286847  z = -0.154538 angstrom
           Maximum rank =  0   Radius =  0.650 angstrom
                   Q00  =  -0.078970

C          x = -1.312746  y = -0.781847  z =  0.840462 angstrom
           Maximum rank =  0   Radius =  0.650 angstrom
                   Q00  =  -0.077340

C          x =  0.875254  y = -1.081847  z = -0.090538 angstrom
           Maximum rank =  0   Radius =  0.650 angstrom
                   Q00  =  -0.063123

C          x = -0.757746  y = -0.056847  z =  1.895462 angstrom
           Maximum rank =  0   Radius =  0.650 angstrom
                   Q00  =   0.006104

C          x =  1.433254  y = -0.363847  z =  0.972462 angstrom
           Maximum rank =  0   Radius =  0.650 angstrom
                   Q00  =  -0.086447

C          x =  0.620254  y =  0.149153  z =  1.977462 angstrom
           Maximum rank =  0   Radius =  0.650 angstrom
                   Q00  =  -0.103046

H          x = -0.923746  y = -1.845847  z = -0.976538 angstrom
           Maximum rank =  0   Radius =  0.325 angstrom
                   Q00  =   0.062824

H          x = -2.375746  y = -0.956847  z =  0.797462 angstrom
           Maximum rank =  0   Radius =  0.325 angstrom
                   Q00  =   0.064064

H          x =  1.514254  y = -1.478847  z = -0.867538 angstrom
           Maximum rank =  0   Radius =  0.325 angstrom
                   Q00  =   0.065103

H          x = -1.409746  y =  0.348153  z =  2.650462 angstrom
           Maximum rank =  0   Radius =  0.325 angstrom
                   Q00  =   0.055597

H          x =  2.503254  y = -0.217847  z =  1.011462 angstrom
           Maximum rank =  0   Radius =  0.325 angstrom
                   Q00  =   0.058206

H          x =  0.566254  y =  1.775153  z =  3.338462 angstrom
           Maximum rank =  0   Radius =  0.325 angstrom
                   Q00  =   0.097329

H          x =  2.171254  y =  1.335153  z =  2.840462 angstrom
           Maximum rank =  0   Radius =  0.325 angstrom
                   Q00  =   0.100752

H          x =  1.342424  y =  0.345964  z =  4.059842 angstrom
           Maximum rank =  0   Radius =  0.325 angstrom
                   Q00  =   0.106016

C          x = -0.668746  y =  0.321153  z = -3.551538 angstrom
           Maximum rank =  0   Radius =  0.650 angstrom
                   Q00  =  -0.242719

C          x = -0.828746  y =  1.721153  z = -4.160538 angstrom
           Maximum rank =  0   Radius =  0.650 angstrom
                   Q00  =  -0.231743

H          x = -1.148746  y = -0.428847  z = -4.178538 angstrom
           Maximum rank =  0   Radius =  0.325 angstrom
                   Q00  =   0.073004

H          x =  0.392254  y =  0.079153  z = -3.477538 angstrom
           Maximum rank =  0   Radius =  0.325 angstrom
                   Q00  =   0.077184

H          x = -1.103746  y =  0.297153  z = -2.552538 angstrom
           Maximum rank =  0   Radius =  0.325 angstrom
                   Q00  =   0.089378

H          x = -0.471746  y =  1.714153  z = -5.191538 angstrom
           Maximum rank =  0   Radius =  0.325 angstrom
                   Q00  =   0.076648

H          x = -0.170746  y =  2.371153  z = -3.586538 angstrom
           Maximum rank =  0   Radius =  0.325 angstrom
                   Q00  =   0.077485

H          x = -1.865286  y =  2.087245  z = -4.121058 angstrom
           Maximum rank =  0   Radius =  0.325 angstrom
                   Q00  =   0.081682

Total multipoles referred to origin at
           x =   0.000000,  y =    0.000000,  z =    0.000000 angstrom
                   Q00  =  -0.000000

Finished at 8:20:27 on 28 Apr 2020

  DMA results are available in the Python driver through the
	  variable('DMA DISTRIBUTED MULTIPOLES')
  and
	  variable('DMA TOTAL MULTIPOLES')
  commands.

    Psi4 stopped on: Tuesday, 28 April 2020 08:20AM
    Psi4 wall time for execution: 0:01:21.79

*** Psi4 exiting successfully. Buy a developer a beer!
