                               Psi4 1.3.2 release

  ==> Input File <==

--------------------------------------------------------------------------
import numpy as np
set {scf_type pk
basis cc-pvdz
d_convergence 10
gdma_switch   0
gdma_limit    0
gdma_origin   [ 0.0,  0.0,  0.0 ]
}
molecule test {
    units Angstrom
    0 1
    --
    0 1
    C               -0.190980324934578     1.847773471020974     0.296335531270749
    C               -0.157980324934578     2.902773471020974    -0.804664468729250
    H               -0.582980324934578     2.239773471020973     1.233335531270749
    H               -0.845980324934578     1.043773471020974    -0.030664468729251
    H                0.811019675065422     1.455773471020974     0.479335531270749
    H               -1.174980324934578     3.066773471020974    -1.159664468729251
    H                0.241499675065422     3.844463471020974    -0.400154468729251
    H                0.456389675065422     2.557463471020974    -1.649244468729250
    C                0.048019675065422    -1.821226528979026    -0.252664468729251
    C                0.302019675065422    -2.926226528979027     0.761335531270749
    H               -0.605980324934578    -1.075226528979026     0.189335531270749
    H                0.993019675065422    -1.358226528979026    -0.540664468729250
    H               -0.417980324934578    -2.224226528979027    -1.151664468729251
    H                0.777019675065422    -3.768226528979026     0.259335531270749
    H               -0.643750324934578    -3.253663528979026     1.217745531270749
    H                0.979859675065422    -2.565289528979027     1.548895531270750

}
e, wfn = energy('scf', return_wfn=True)
gdma(wfn)
dmavals = variable('DMA DISTRIBUTED MULTIPOLES')
charges = np.array(dmavals)
print(charges)
np.save('SSI-029VAL-087LEU-1-dimer.npy', np.array(charges))--------------------------------------------------------------------------

*** tstart() called on ds3
*** at Tue Apr 28 11:33:42 2020

   => Loading Basis Set <=

    Name: CC-PVDZ
    Role: ORBITAL
    Keyword: BASIS
    atoms 1-2, 9-10  entry C          line   138 file /theoryfs2/ds/metcalf/miniconda2/envs/tf2gpu/share/psi4/basis/cc-pvdz.gbs
    atoms 3-8, 11-16 entry H          line    22 file /theoryfs2/ds/metcalf/miniconda2/envs/tf2gpu/share/psi4/basis/cc-pvdz.gbs

         ---------------------------------------------------------
                                   SCF
               by Justin Turney, Rob Parrish, Andy Simmonett
                          and Daniel G. A. Smith
                              RHF Reference
                        1 Threads,    500 MiB Core
         ---------------------------------------------------------

  ==> Geometry <==

    Molecular point group: c1
    Full point group: C1

    Geometry (in Angstrom), charge = 0, multiplicity = 1:

       Center              X                  Y                   Z               Mass
    ------------   -----------------  -----------------  -----------------  -----------------
         C           -0.190980324935     1.847773471021     0.296335531271    12.000000000000
         C           -0.157980324935     2.902773471021    -0.804664468729    12.000000000000
         H           -0.582980324935     2.239773471021     1.233335531271     1.007825032230
         H           -0.845980324935     1.043773471021    -0.030664468729     1.007825032230
         H            0.811019675065     1.455773471021     0.479335531271     1.007825032230
         H           -1.174980324935     3.066773471021    -1.159664468729     1.007825032230
         H            0.241499675065     3.844463471021    -0.400154468729     1.007825032230
         H            0.456389675065     2.557463471021    -1.649244468729     1.007825032230
         C            0.048019675065    -1.821226528979    -0.252664468729    12.000000000000
         C            0.302019675065    -2.926226528979     0.761335531271    12.000000000000
         H           -0.605980324935    -1.075226528979     0.189335531271     1.007825032230
         H            0.993019675065    -1.358226528979    -0.540664468729     1.007825032230
         H           -0.417980324935    -2.224226528979    -1.151664468729     1.007825032230
         H            0.777019675065    -3.768226528979     0.259335531271     1.007825032230
         H           -0.643750324935    -3.253663528979     1.217745531271     1.007825032230
         H            0.979859675065    -2.565289528979     1.548895531271     1.007825032230

  Running in c1 symmetry.

  Rotational constants: A =      0.64069  B =      0.04425  C =      0.04281 [cm^-1]
  Rotational constants: A =  19207.34617  B =   1326.72454  C =   1283.35456 [MHz]
  Nuclear repulsion =  121.284672287228958

  Charge       = 0
  Multiplicity = 1
  Electrons    = 36
  Nalpha       = 18
  Nbeta        = 18

  ==> Algorithm <==

  SCF Algorithm Type is PK.
  DIIS enabled.
  MOM disabled.
  Fractional occupation disabled.
  Guess Type is SAD.
  Energy threshold   = 1.00e-06
  Density threshold  = 1.00e-10
  Integral threshold = 0.00e+00

  ==> Primary Basis <==

  Basis Set: CC-PVDZ
    Blend: CC-PVDZ
    Number of shells: 60
    Number of basis function: 116
    Number of Cartesian functions: 120
    Spherical Harmonics?: true
    Max angular momentum: 2

  ==> Pre-Iterations <==

   -------------------------------------------------------
    Irrep   Nso     Nmo     Nalpha   Nbeta   Ndocc  Nsocc
   -------------------------------------------------------
     A        116     116       0       0       0       0
   -------------------------------------------------------
    Total     116     116      18      18      18       0
   -------------------------------------------------------

  ==> Integral Setup <==

  Using integral reordering PK algorithm.
  Sizing the integral batches needed.
  Building batch lookup table.
   Calculation information:
      Number of atoms:                  16
      Number of AO shells:              60
      Number of primitives:            148
      Number of atomic orbitals:       120
      Number of basis functions:       116

      Integral cutoff                 1.00e-12
      Number of threads:                 1

	Batch   1 pq = [       0,    6786] index = [             0,23028291] size =     23028291
  Task number: 3
  Buffer size: 11059200
  Buffer per thread: 2
  We computed 1404858 shell quartets total.
  Whereas there are 1675365 unique shell quartets.

  ==> DiskJK: Disk-Based J/K Matrices <==

    J tasked:                  Yes
    K tasked:                  Yes
    wK tasked:                  No
    Memory [MiB]:              375
    Schwarz Cutoff:          1E-12

    OpenMP threads:              1

  Minimum eigenvalue in the overlap matrix is 6.8089197135E-03.
  Using Symmetric Orthogonalization.

  SCF Guess: Superposition of Atomic Densities via on-the-fly atomic UHF.

  ==> Iterations <==

                        Total Energy        Delta E     RMS |[F,P]|

   @RHF iter SAD:  -157.37688971085643   -1.57377e+02   0.00000e+00
   @RHF iter   1:  -158.30417727662245   -9.27288e-01   4.23354e-03 DIIS
   @RHF iter   2:  -158.43855656368069   -1.34379e-01   1.80397e-03 DIIS
   @RHF iter   3:  -158.46215668044863   -2.36001e-02   3.50296e-04 DIIS
   @RHF iter   4:  -158.46399210973786   -1.83543e-03   3.87312e-05 DIIS
   @RHF iter   5:  -158.46401585226317   -2.37425e-05   6.45566e-06 DIIS
   @RHF iter   6:  -158.46401648134756   -6.29084e-07   1.01957e-06 DIIS
   @RHF iter   7:  -158.46401649210605   -1.07585e-08   3.05147e-07 DIIS
   @RHF iter   8:  -158.46401649291863   -8.12577e-10   4.10014e-08 DIIS
   @RHF iter   9:  -158.46401649294282   -2.41869e-11   8.12148e-09 DIIS
   @RHF iter  10:  -158.46401649294424   -1.42109e-12   1.89209e-09 DIIS
   @RHF iter  11:  -158.46401649294481   -5.68434e-13   4.39206e-10 DIIS
   @RHF iter  12:  -158.46401649294430    5.11591e-13   1.46195e-10 DIIS
   @RHF iter  13:  -158.46401649294413    1.70530e-13   2.35511e-11 DIIS
  Energy and wave function converged.

  ==> Post-Iterations <==

    Orbital Energies [Eh]
    ---------------------

    Doubly Occupied:

       1A    -11.218472     2A    -11.217689     3A    -11.214782
       4A    -11.214373     5A     -1.020390     6A     -1.017818
       7A     -0.838782     8A     -0.832476     9A     -0.604970
      10A     -0.598622    11A     -0.596862    12A     -0.593862
      13A     -0.504280    14A     -0.500193    15A     -0.492069
      16A     -0.485761    17A     -0.481721    18A     -0.473201

    Virtual:

      19A      0.175853    20A      0.194730    21A      0.229121
      22A      0.234504    23A      0.241786    24A      0.250731
      25A      0.267086    26A      0.282420    27A      0.289500
      28A      0.292401    29A      0.296870    30A      0.346173
      31A      0.399883    32A      0.406990    33A      0.570362
      34A      0.597659    35A      0.603616    36A      0.605353
      37A      0.615172    38A      0.626609    39A      0.663398
      40A      0.683006    41A      0.691337    42A      0.802760
      43A      0.857646    44A      0.859460    45A      0.884743
      46A      0.889893    47A      0.890837    48A      0.892275
      49A      0.904765    50A      0.906399    51A      0.911448
      52A      0.917972    53A      0.931434    54A      0.956198
      55A      0.981408    56A      0.992265    57A      1.115342
      58A      1.121536    59A      1.123401    60A      1.154324
      61A      1.226886    62A      1.242138    63A      1.477399
      64A      1.481538    65A      1.486548    66A      1.495696
      67A      1.574731    68A      1.591426    69A      1.680178
      70A      1.683488    71A      1.689816    72A      1.705595
      73A      1.852608    74A      1.858753    75A      1.863303
      76A      1.881129    77A      1.905334    78A      1.917366
      79A      1.929188    80A      1.937587    81A      1.942192
      82A      1.945911    83A      1.946640    84A      1.950520
      85A      1.952131    86A      1.972657    87A      1.975202
      88A      2.022922    89A      2.110262    90A      2.119656
      91A      2.139662    92A      2.153842    93A      2.296469
      94A      2.303792    95A      2.311424    96A      2.316505
      97A      2.435415    98A      2.447692    99A      2.452247
     100A      2.468085   101A      2.568239   102A      2.573217
     103A      2.585225   104A      2.599924   105A      2.762698
     106A      2.763759   107A      2.784335   108A      2.790047
     109A      2.842320   110A      2.846067   111A      2.850288
     112A      2.862119   113A      2.943908   114A      2.956392
     115A      2.961638   116A      2.973816

    Final Occupation by Irrep:
              A
    DOCC [    18 ]

  @RHF Final Energy:  -158.46401649294413

   => Energetics <=

    Nuclear Repulsion Energy =            121.2846722872289575
    One-Electron Energy =                -451.6847341106235945
    Two-Electron Energy =                 171.9360453304505256
    Total Energy =                       -158.4640164929441255

Computation Completed

Properties will be evaluated at   0.000000,   0.000000,   0.000000 [a0]

Properties computed using the SCF density matrix

  Nuclear Dipole Moment: [e a0]
     X:    -0.0120      Y:    -0.0345      Z:    -0.0038

  Electronic Dipole Moment: [e a0]
     X:     0.0003      Y:     0.0344      Z:     0.0005

  Dipole Moment: [e a0]
     X:    -0.0118      Y:    -0.0001      Z:    -0.0033     Total:     0.0122

  Dipole Moment: [D]
     X:    -0.0300      Y:    -0.0002      Z:    -0.0084     Total:     0.0311

*** tstop() called on ds3 at Tue Apr 28 11:33:52 2020
Module time:
	user time   =       8.00 seconds =       0.13 minutes
	system time =       3.13 seconds =       0.05 minutes
	total time  =         10 seconds =       0.17 minutes
Total time:
	user time   =       8.00 seconds =       0.13 minutes
	system time =       3.13 seconds =       0.05 minutes
	total time  =         10 seconds =       0.17 minutes
                                     G D M A

                                 by Anthony Stone

                           version 2.2.06, 22 June 2011

               Distributed Multipoles from Gaussian wavefunctions

Starting at 11:33:53 on 28 Apr 2020

Using SCF density matrix from file ./SSI/SSI-029VAL-087LEU-1-dimer.test.26878.fchk

                         Distributed Multipole Analysis

Standard DMA

Positions and radii in angstrom
Multipole moments in atomic units, ea_0^k for rank k

C          x = -0.190980  y =  1.847773  z =  0.296336 angstrom
           Maximum rank =  0   Radius =  0.650 angstrom
                   Q00  =  -0.243809

C          x = -0.157980  y =  2.902773  z = -0.804664 angstrom
           Maximum rank =  0   Radius =  0.650 angstrom
                   Q00  =  -0.223442

H          x = -0.582980  y =  2.239773  z =  1.233336 angstrom
           Maximum rank =  0   Radius =  0.325 angstrom
                   Q00  =   0.079375

H          x = -0.845980  y =  1.043773  z = -0.030664 angstrom
           Maximum rank =  0   Radius =  0.325 angstrom
                   Q00  =   0.077105

H          x =  0.811020  y =  1.455773  z =  0.479336 angstrom
           Maximum rank =  0   Radius =  0.325 angstrom
                   Q00  =   0.077835

H          x = -1.174980  y =  3.066773  z = -1.159664 angstrom
           Maximum rank =  0   Radius =  0.325 angstrom
                   Q00  =   0.077169

H          x =  0.241500  y =  3.844463  z = -0.400154 angstrom
           Maximum rank =  0   Radius =  0.325 angstrom
                   Q00  =   0.076770

H          x =  0.456390  y =  2.557463  z = -1.649244 angstrom
           Maximum rank =  0   Radius =  0.325 angstrom
                   Q00  =   0.079791

C          x =  0.048020  y = -1.821227  z = -0.252664 angstrom
           Maximum rank =  0   Radius =  0.650 angstrom
                   Q00  =  -0.240980

C          x =  0.302020  y = -2.926227  z =  0.761336 angstrom
           Maximum rank =  0   Radius =  0.650 angstrom
                   Q00  =  -0.226159

H          x = -0.605980  y = -1.075227  z =  0.189336 angstrom
           Maximum rank =  0   Radius =  0.325 angstrom
                   Q00  =   0.080468

H          x =  0.993020  y = -1.358227  z = -0.540664 angstrom
           Maximum rank =  0   Radius =  0.325 angstrom
                   Q00  =   0.077224

H          x = -0.417980  y = -2.224227  z = -1.151664 angstrom
           Maximum rank =  0   Radius =  0.325 angstrom
                   Q00  =   0.076954

H          x =  0.777020  y = -3.768227  z =  0.259336 angstrom
           Maximum rank =  0   Radius =  0.325 angstrom
                   Q00  =   0.077141

H          x = -0.643750  y = -3.253664  z =  1.217746 angstrom
           Maximum rank =  0   Radius =  0.325 angstrom
                   Q00  =   0.077630

H          x =  0.979860  y = -2.565290  z =  1.548896 angstrom
           Maximum rank =  0   Radius =  0.325 angstrom
                   Q00  =   0.076927

Total multipoles referred to origin at
           x =   0.000000,  y =    0.000000,  z =    0.000000 angstrom
                   Q00  =  -0.000000

Finished at 11:33:53 on 28 Apr 2020

  DMA results are available in the Python driver through the
	  variable('DMA DISTRIBUTED MULTIPOLES')
  and
	  variable('DMA TOTAL MULTIPOLES')
  commands.

    Psi4 stopped on: Tuesday, 28 April 2020 11:33AM
    Psi4 wall time for execution: 0:00:10.96

*** Psi4 exiting successfully. Buy a developer a beer!
