                               Psi4 1.3.2 release

  ==> Input File <==

--------------------------------------------------------------------------
import numpy as np
set {scf_type pk
basis cc-pvdz
d_convergence 10
gdma_switch   0
gdma_limit    0
gdma_origin   [ 0.0,  0.0,  0.0 ]
}
molecule test {
    units Angstrom
    0 1
    --
    0 1
    C               -2.286284406457881    -0.942037203017372    -0.748528983882838
    C               -1.582284406457881    -1.942037203017372    -1.649528983882838
    O               -2.081284406457881    -3.041037203017372    -1.882528983882838
    N               -0.418284406457881    -1.572037203017372    -2.167528983882839
    H                0.071715593542119    -2.232037203017372    -2.756528983882839
    H               -0.028284406457881    -0.674037203017372    -1.941528983882838
    H               -3.315284406457881    -0.864037203017372    -1.075528983882839
    H               -1.796284406457881     0.032962796982628    -0.765528983882838
    H               -2.380724406457881    -1.316157203017372     0.281575016117162
    C                0.006715593542119     3.712962796982628     1.675471016117162
    C                1.260715593542119    -0.244037203017372     0.525471016117162
    C                1.361715593542119     0.807962796982628    -0.384528983882838
    C                0.745715593542119    -0.020037203017372     1.803471016117162
    C                0.943715593542119     2.089962796982628    -0.010528983882838
    C                0.332715593542119     1.266962796982628     2.168471016117162
    C                0.429715593542119     2.326962796982628     1.265471016117162
    O                1.674715593542119    -1.493037203017372     0.165471016117162
    H                2.078715593542119    -1.522037203017372    -0.708528983882838
    H                1.795715593542119     0.644962796982628    -1.362528983882838
    H                0.672715593542119    -0.839037203017372     2.505471016117161
    H                1.019715593542119     2.909962796982628    -0.715528983882838
    H               -0.064284406457881     1.435962796982628     3.160471016117161
    H                0.681715593542119     4.439962796982629     1.223471016117162
    H                0.128715593542119     3.774962796982628     2.753471016117162
    H               -1.036134406457881     3.987549796982628     1.458540016117162

}
e, wfn = energy('scf', return_wfn=True)
gdma(wfn)
dmavals = variable('DMA DISTRIBUTED MULTIPOLES')
charges = np.array(dmavals)
print(charges)
np.save('SSI-062GLN-173TYR-2-dimer.npy', np.array(charges))--------------------------------------------------------------------------

*** tstart() called on ds3
*** at Mon Apr 27 21:27:37 2020

   => Loading Basis Set <=

    Name: CC-PVDZ
    Role: ORBITAL
    Keyword: BASIS
    atoms 1-2, 10-16 entry C          line   138 file /theoryfs2/ds/metcalf/miniconda2/envs/tf2gpu/share/psi4/basis/cc-pvdz.gbs
    atoms 3, 17      entry O          line   198 file /theoryfs2/ds/metcalf/miniconda2/envs/tf2gpu/share/psi4/basis/cc-pvdz.gbs
    atoms 4          entry N          line   168 file /theoryfs2/ds/metcalf/miniconda2/envs/tf2gpu/share/psi4/basis/cc-pvdz.gbs
    atoms 5-9, 18-25 entry H          line    22 file /theoryfs2/ds/metcalf/miniconda2/envs/tf2gpu/share/psi4/basis/cc-pvdz.gbs

         ---------------------------------------------------------
                                   SCF
               by Justin Turney, Rob Parrish, Andy Simmonett
                          and Daniel G. A. Smith
                              RHF Reference
                        1 Threads,    500 MiB Core
         ---------------------------------------------------------

  ==> Geometry <==

    Molecular point group: c1
    Full point group: C1

    Geometry (in Angstrom), charge = 0, multiplicity = 1:

       Center              X                  Y                   Z               Mass
    ------------   -----------------  -----------------  -----------------  -----------------
         C           -2.286284406458    -0.942037203017    -0.748528983883    12.000000000000
         C           -1.582284406458    -1.942037203017    -1.649528983883    12.000000000000
         O           -2.081284406458    -3.041037203017    -1.882528983883    15.994914619570
         N           -0.418284406458    -1.572037203017    -2.167528983883    14.003074004430
         H            0.071715593542    -2.232037203017    -2.756528983883     1.007825032230
         H           -0.028284406458    -0.674037203017    -1.941528983883     1.007825032230
         H           -3.315284406458    -0.864037203017    -1.075528983883     1.007825032230
         H           -1.796284406458     0.032962796983    -0.765528983883     1.007825032230
         H           -2.380724406458    -1.316157203017     0.281575016117     1.007825032230
         C            0.006715593542     3.712962796983     1.675471016117    12.000000000000
         C            1.260715593542    -0.244037203017     0.525471016117    12.000000000000
         C            1.361715593542     0.807962796983    -0.384528983883    12.000000000000
         C            0.745715593542    -0.020037203017     1.803471016117    12.000000000000
         C            0.943715593542     2.089962796983    -0.010528983883    12.000000000000
         C            0.332715593542     1.266962796983     2.168471016117    12.000000000000
         C            0.429715593542     2.326962796983     1.265471016117    12.000000000000
         O            1.674715593542    -1.493037203017     0.165471016117    15.994914619570
         H            2.078715593542    -1.522037203017    -0.708528983883     1.007825032230
         H            1.795715593542     0.644962796983    -1.362528983883     1.007825032230
         H            0.672715593542    -0.839037203017     2.505471016117     1.007825032230
         H            1.019715593542     2.909962796983    -0.715528983883     1.007825032230
         H           -0.064284406458     1.435962796983     3.160471016117     1.007825032230
         H            0.681715593542     4.439962796983     1.223471016117     1.007825032230
         H            0.128715593542     3.774962796983     2.753471016117     1.007825032230
         H           -1.036134406458     3.987549796983     1.458540016117     1.007825032230

  Running in c1 symmetry.

  Rotational constants: A =      0.04971  B =      0.01536  C =      0.01403 [cm^-1]
  Rotational constants: A =   1490.40431  B =    460.50995  C =    420.65370 [MHz]
  Nuclear repulsion =  672.704500861778229

  Charge       = 0
  Multiplicity = 1
  Electrons    = 90
  Nalpha       = 45
  Nbeta        = 45

  ==> Algorithm <==

  SCF Algorithm Type is PK.
  DIIS enabled.
  MOM disabled.
  Fractional occupation disabled.
  Guess Type is SAD.
  Energy threshold   = 1.00e-06
  Density threshold  = 1.00e-10
  Integral threshold = 0.00e+00

  ==> Primary Basis <==

  Basis Set: CC-PVDZ
    Blend: CC-PVDZ
    Number of shells: 111
    Number of basis function: 233
    Number of Cartesian functions: 245
    Spherical Harmonics?: true
    Max angular momentum: 2

  ==> Pre-Iterations <==

   -------------------------------------------------------
    Irrep   Nso     Nmo     Nalpha   Nbeta   Ndocc  Nsocc
   -------------------------------------------------------
     A        233     233       0       0       0       0
   -------------------------------------------------------
    Total     233     233      45      45      45       0
   -------------------------------------------------------

  ==> Integral Setup <==

  Using integral reordering PK algorithm.
  Sizing the integral batches needed.
  Building batch lookup table.
   Calculation information:
      Number of atoms:                  25
      Number of AO shells:             111
      Number of primitives:            329
      Number of atomic orbitals:       245
      Number of basis functions:       233

      Integral cutoff                 1.00e-12
      Number of threads:                 1

	Batch   1 pq = [       0,    9405] index = [             0,44231715] size =     44231715
	Batch   2 pq = [    9405,   13301] index = [      44231715,88464951] size =     44233236
	Batch   3 pq = [   13301,   16290] index = [      88464951,132690195] size =     44225244
	Batch   4 pq = [   16290,   18810] index = [     132690195,176917455] size =     44227260
	Batch   5 pq = [   18810,   21030] index = [     176917455,221140965] size =     44223510
	Batch   6 pq = [   21030,   23037] index = [     221140965,265363203] size =     44222238
	Batch   7 pq = [   23037,   24883] index = [     265363203,309594286] size =     44231083
	Batch   8 pq = [   24883,   26601] index = [     309594286,353819901] size =     44225615
	Batch   9 pq = [   26601,   27261] index = [     353819901,371594691] size =     17774790
  Task number: 34
  Buffer size: 11059200
  Buffer per thread: 2
  We computed 19149078 shell quartets total.
  Whereas there are 19322436 unique shell quartets.

  ==> DiskJK: Disk-Based J/K Matrices <==

    J tasked:                  Yes
    K tasked:                  Yes
    wK tasked:                  No
    Memory [MiB]:              375
    Schwarz Cutoff:          1E-12

    OpenMP threads:              1

  Minimum eigenvalue in the overlap matrix is 3.3151416670E-04.
  Using Symmetric Orthogonalization.

  SCF Guess: Superposition of Atomic Densities via on-the-fly atomic UHF.

  ==> Iterations <==

                        Total Energy        Delta E     RMS |[F,P]|

   @RHF iter SAD:  -551.25860046010052   -5.51259e+02   0.00000e+00
   @RHF iter   1:  -552.29012251433403   -1.03152e+00   3.23029e-03 DIIS
   @RHF iter   2:  -552.54649536277657   -2.56373e-01   1.70101e-03 DIIS
   @RHF iter   3:  -552.60805869191950   -6.15633e-02   3.95518e-04 DIIS
   @RHF iter   4:  -552.61294750208776   -4.88881e-03   1.57481e-04 DIIS
   @RHF iter   5:  -552.61376192232331   -8.14420e-04   2.41602e-05 DIIS
   @RHF iter   6:  -552.61380156337123   -3.96410e-05   1.12020e-05 DIIS
   @RHF iter   7:  -552.61380830269468   -6.73932e-06   4.09698e-06 DIIS
   @RHF iter   8:  -552.61380964084708   -1.33815e-06   1.51811e-06 DIIS
   @RHF iter   9:  -552.61380981749494   -1.76648e-07   5.72943e-07 DIIS
   @RHF iter  10:  -552.61380983987135   -2.23764e-08   2.01105e-07 DIIS
   @RHF iter  11:  -552.61380984365132   -3.77997e-09   6.59998e-08 DIIS
   @RHF iter  12:  -552.61380984410505   -4.53724e-10   3.47707e-08 DIIS
   @RHF iter  13:  -552.61380984422840   -1.23350e-10   1.59274e-08 DIIS
   @RHF iter  14:  -552.61380984426455   -3.61524e-11   6.30923e-09 DIIS
   @RHF iter  15:  -552.61380984427456   -1.00044e-11   2.42048e-09 DIIS
   @RHF iter  16:  -552.61380984427262    1.93268e-12   6.59276e-10 DIIS
   @RHF iter  17:  -552.61380984427456   -1.93268e-12   1.97399e-10 DIIS
   @RHF iter  18:  -552.61380984427603   -1.47793e-12   7.74941e-11 DIIS
  Energy and wave function converged.

  ==> Post-Iterations <==

    Orbital Energies [Eh]
    ---------------------

    Doubly Occupied:

       1A    -20.594269     2A    -20.493738     3A    -15.582748
       4A    -11.339976     5A    -11.315659     6A    -11.255589
       7A    -11.253457     8A    -11.250262     9A    -11.246910
      10A    -11.245062    11A    -11.236900    12A    -11.230412
      13A     -1.410543    14A     -1.358600    15A     -1.210765
      16A     -1.162984    17A     -1.050040    18A     -1.030785
      19A     -0.988740    20A     -0.937730    21A     -0.859168
      22A     -0.815003    23A     -0.793615    24A     -0.745285
      25A     -0.726122    26A     -0.680152    27A     -0.655617
      28A     -0.645248    29A     -0.620533    30A     -0.603499
      31A     -0.600658    32A     -0.589974    33A     -0.582237
      34A     -0.573925    35A     -0.561783    36A     -0.556027
      37A     -0.536778    38A     -0.510661    39A     -0.507491
      40A     -0.498610    41A     -0.478426    42A     -0.401305
      43A     -0.395616    44A     -0.352711    45A     -0.315552

    Virtual:

      46A      0.110250    47A      0.139986    48A      0.155493
      49A      0.175068    50A      0.200911    51A      0.202717
      52A      0.205103    53A      0.215833    54A      0.234117
      55A      0.243795    56A      0.251407    57A      0.262634
      58A      0.266276    59A      0.282342    60A      0.299780
      61A      0.316410    62A      0.358074    63A      0.363956
      64A      0.398023    65A      0.416423    66A      0.441809
      67A      0.465775    68A      0.469217    69A      0.483071
      70A      0.491584    71A      0.564687    72A      0.585063
      73A      0.598810    74A      0.623630    75A      0.638280
      76A      0.650562    77A      0.665600    78A      0.673422
      79A      0.690492    80A      0.696557    81A      0.707186
      82A      0.722118    83A      0.723785    84A      0.739147
      85A      0.748467    86A      0.751719    87A      0.758539
      88A      0.763324    89A      0.771240    90A      0.782455
      91A      0.805893    92A      0.831492    93A      0.845051
      94A      0.861548    95A      0.867071    96A      0.869734
      97A      0.880002    98A      0.880526    99A      0.889755
     100A      0.898195   101A      0.906720   102A      0.919038
     103A      0.925446   104A      0.930363   105A      0.946555
     106A      0.957684   107A      0.968431   108A      0.993811
     109A      1.008939   110A      1.030115   111A      1.050462
     112A      1.062363   113A      1.076136   114A      1.106437
     115A      1.121138   116A      1.128739   117A      1.133951
     118A      1.156685   119A      1.183324   120A      1.204180
     121A      1.231954   122A      1.243708   123A      1.260203
     124A      1.282200   125A      1.290033   126A      1.297936
     127A      1.301544   128A      1.335571   129A      1.354726
     130A      1.368799   131A      1.374774   132A      1.384723
     133A      1.389295   134A      1.423826   135A      1.435687
     136A      1.467309   137A      1.476042   138A      1.482979
     139A      1.521579   140A      1.523184   141A      1.538453
     142A      1.603155   143A      1.615497   144A      1.647055
     145A      1.673366   146A      1.684726   147A      1.692904
     148A      1.719524   149A      1.725025   150A      1.732863
     151A      1.766630   152A      1.784245   153A      1.796545
     154A      1.812069   155A      1.860083   156A      1.866268
     157A      1.877599   158A      1.881701   159A      1.887746
     160A      1.900101   161A      1.904159   162A      1.909740
     163A      1.928040   164A      1.937965   165A      1.948108
     166A      1.955128   167A      1.968172   168A      1.972767
     169A      1.990886   170A      2.016895   171A      2.024728
     172A      2.029834   173A      2.039479   174A      2.052301
     175A      2.063220   176A      2.081429   177A      2.100874
     178A      2.112940   179A      2.127471   180A      2.137660
     181A      2.160590   182A      2.189797   183A      2.222080
     184A      2.231423   185A      2.241792   186A      2.257660
     187A      2.291059   188A      2.310513   189A      2.355732
     190A      2.378853   191A      2.411909   192A      2.420068
     193A      2.443309   194A      2.445884   195A      2.461635
     196A      2.478825   197A      2.498643   198A      2.529620
     199A      2.550416   200A      2.560511   201A      2.581396
     202A      2.590645   203A      2.639537   204A      2.666478
     205A      2.734049   206A      2.750502   207A      2.761166
     208A      2.775855   209A      2.784791   210A      2.800792
     211A      2.831802   212A      2.844359   213A      2.870421
     214A      2.887822   215A      2.945007   216A      2.965688
     217A      2.994601   218A      3.066536   219A      3.093414
     220A      3.099659   221A      3.137892   222A      3.234449
     223A      3.255980   224A      3.327255   225A      3.343455
     226A      3.524265   227A      3.527100   228A      3.562046
     229A      3.653869   230A      3.875250   231A      3.912297
     232A      3.959960   233A      4.180680

    Final Occupation by Irrep:
              A
    DOCC [    45 ]

  @RHF Final Energy:  -552.61380984427603

   => Energetics <=

    Nuclear Repulsion Energy =            672.7045008617782287
    One-Electron Energy =               -2087.0342896579400076
    Two-Electron Energy =                 861.7159789518856314
    Total Energy =                       -552.6138098442760338

Computation Completed

Properties will be evaluated at   0.000000,   0.000000,   0.000000 [a0]

Properties computed using the SCF density matrix

  Nuclear Dipole Moment: [e a0]
     X:    -2.0369      Y:     9.1503      Z:     1.9267

  Electronic Dipole Moment: [e a0]
     X:     3.1172      Y:    -7.3040      Z:    -1.9238

  Dipole Moment: [e a0]
     X:     1.0802      Y:     1.8462      Z:     0.0029     Total:     2.1390

  Dipole Moment: [D]
     X:     2.7457      Y:     4.6927      Z:     0.0073     Total:     5.4369

*** tstop() called on ds3 at Mon Apr 27 21:31:32 2020
Module time:
	user time   =     148.42 seconds =       2.47 minutes
	system time =      56.34 seconds =       0.94 minutes
	total time  =        235 seconds =       3.92 minutes
Total time:
	user time   =     148.42 seconds =       2.47 minutes
	system time =      56.34 seconds =       0.94 minutes
	total time  =        235 seconds =       3.92 minutes
                                     G D M A

                                 by Anthony Stone

                           version 2.2.06, 22 June 2011

               Distributed Multipoles from Gaussian wavefunctions

Starting at 21:31:32 on 27 Apr 2020

Using SCF density matrix from file ./SSI/SSI-062GLN-173TYR-2-dimer.test.8046.fchk

                         Distributed Multipole Analysis

Standard DMA

Positions and radii in angstrom
Multipole moments in atomic units, ea_0^k for rank k

C          x = -2.286284  y = -0.942037  z = -0.748529 angstrom
           Maximum rank =  0   Radius =  0.650 angstrom
                   Q00  =  -0.270470

C          x = -1.582284  y = -1.942037  z = -1.649529 angstrom
           Maximum rank =  0   Radius =  0.650 angstrom
                   Q00  =   0.810981

O          x = -2.081284  y = -3.041037  z = -1.882529 angstrom
           Maximum rank =  0   Radius =  0.650 angstrom
                   Q00  =  -0.800148

N          x = -0.418284  y = -1.572037  z = -2.167529 angstrom
           Maximum rank =  0   Radius =  0.650 angstrom
                   Q00  =  -0.519387

H          x =  0.071716  y = -2.232037  z = -2.756529 angstrom
           Maximum rank =  0   Radius =  0.325 angstrom
                   Q00  =   0.213632

H          x = -0.028284  y = -0.674037  z = -1.941529 angstrom
           Maximum rank =  0   Radius =  0.325 angstrom
                   Q00  =   0.213731

H          x = -3.315284  y = -0.864037  z = -1.075529 angstrom
           Maximum rank =  0   Radius =  0.325 angstrom
                   Q00  =   0.126820

H          x = -1.796284  y =  0.032963  z = -0.765529 angstrom
           Maximum rank =  0   Radius =  0.325 angstrom
                   Q00  =   0.087769

H          x = -2.380724  y = -1.316157  z =  0.281575 angstrom
           Maximum rank =  0   Radius =  0.325 angstrom
                   Q00  =   0.134886

C          x =  0.006716  y =  3.712963  z =  1.675471 angstrom
           Maximum rank =  0   Radius =  0.650 angstrom
                   Q00  =  -0.191960

C          x =  1.260716  y = -0.244037  z =  0.525471 angstrom
           Maximum rank =  0   Radius =  0.650 angstrom
                   Q00  =   0.308493

C          x =  1.361716  y =  0.807963  z = -0.384529 angstrom
           Maximum rank =  0   Radius =  0.650 angstrom
                   Q00  =  -0.218476

C          x =  0.745716  y = -0.020037  z =  1.803471 angstrom
           Maximum rank =  0   Radius =  0.650 angstrom
                   Q00  =  -0.110126

C          x =  0.943716  y =  2.089963  z = -0.010529 angstrom
           Maximum rank =  0   Radius =  0.650 angstrom
                   Q00  =   0.022286

C          x =  0.332716  y =  1.266963  z =  2.168471 angstrom
           Maximum rank =  0   Radius =  0.650 angstrom
                   Q00  =  -0.011860

C          x =  0.429716  y =  2.326963  z =  1.265471 angstrom
           Maximum rank =  0   Radius =  0.650 angstrom
                   Q00  =  -0.135418

O          x =  1.674716  y = -1.493037  z =  0.165471 angstrom
           Maximum rank =  0   Radius =  0.650 angstrom
                   Q00  =  -0.669228

H          x =  2.078716  y = -1.522037  z = -0.708529 angstrom
           Maximum rank =  0   Radius =  0.325 angstrom
                   Q00  =   0.408065

H          x =  1.795716  y =  0.644963  z = -1.362529 angstrom
           Maximum rank =  0   Radius =  0.325 angstrom
                   Q00  =   0.069562

H          x =  0.672716  y = -0.839037  z =  2.505471 angstrom
           Maximum rank =  0   Radius =  0.325 angstrom
                   Q00  =   0.088425

H          x =  1.019716  y =  2.909963  z = -0.715529 angstrom
           Maximum rank =  0   Radius =  0.325 angstrom
                   Q00  =   0.074735

H          x = -0.064284  y =  1.435963  z =  3.160471 angstrom
           Maximum rank =  0   Radius =  0.325 angstrom
                   Q00  =   0.071012

H          x =  0.681716  y =  4.439963  z =  1.223471 angstrom
           Maximum rank =  0   Radius =  0.325 angstrom
                   Q00  =   0.098181

H          x =  0.128716  y =  3.774963  z =  2.753471 angstrom
           Maximum rank =  0   Radius =  0.325 angstrom
                   Q00  =   0.095996

H          x = -1.036134  y =  3.987550  z =  1.458540 angstrom
           Maximum rank =  0   Radius =  0.325 angstrom
                   Q00  =   0.102499

Total multipoles referred to origin at
           x =   0.000000,  y =    0.000000,  z =    0.000000 angstrom
                   Q00  =  -0.000000

Finished at 21:31:32 on 27 Apr 2020

  DMA results are available in the Python driver through the
	  variable('DMA DISTRIBUTED MULTIPOLES')
  and
	  variable('DMA TOTAL MULTIPOLES')
  commands.

    Psi4 stopped on: Monday, 27 April 2020 09:31PM
    Psi4 wall time for execution: 0:03:54.62

*** Psi4 exiting successfully. Buy a developer a beer!
