                               Psi4 1.3.2 release

  ==> Input File <==

--------------------------------------------------------------------------
import numpy as np
set {scf_type pk
basis cc-pvdz
d_convergence 10
gdma_switch   0
gdma_limit    0
gdma_origin   [ 0.0,  0.0,  0.0 ]
}
molecule test {
    units Angstrom
    0 1
    --
    0 1
    C               -0.944639944641574     2.201964751808895    -1.379914647359274
    C               -0.283639944641574     0.425964751808895     0.256085352640726
    C               -0.246639944641574     1.758964751808895    -0.131914647359274
    C                0.358360055358426     0.013964751808895     1.415085352640726
    C                0.427360055358426     2.681964751808895     0.662085352640726
    C                1.034360055358426     0.935964751808895     2.201085352640725
    C                1.069360055358425     2.271964751808895     1.824085352640725
    H               -0.817639944641574    -0.295035248191105    -0.342914647359274
    H                0.343360055358426    -1.028035248191105     1.693085352640725
    H               -1.181639944641574     3.264964751808895    -1.297914647359275
    H               -1.891639944641575     1.665964751808895    -1.434914647359275
    H                0.458360055358426     3.723964751808895     0.375085352640726
    H                1.533360055358426     0.611964751808895     3.104085352640725
    H                1.594360055358426     2.992964751808895     2.437085352640726
    H               -0.382239944641574     2.030514751808895    -2.309594647359275
    C                0.188360055358426    -2.854035248191105    -1.437914647359275
    C               -0.892639944641574    -3.115035248191105    -2.481914647359274
    O               -0.367639944641574    -2.871035248191105    -0.136914647359274
    H                0.960360055358426    -3.621035248191105    -1.509914647359275
    H                0.641360055358426    -1.878035248191105    -1.620914647359274
    H               -1.349639944641575    -4.071035248191105    -2.249914647359274
    H               -0.389639944641574    -3.791035248191105     0.198085352640725
    H               -0.464769944641574    -3.152015248191105    -3.494614647359275
    H               -1.675949944641574    -2.346235248191105    -2.408664647359275

}
e, wfn = energy('scf', return_wfn=True)
gdma(wfn)
dmavals = variable('DMA DISTRIBUTED MULTIPOLES')
charges = np.array(dmavals)
print(charges)
np.save('SSI-036PHE-075SER-2-dimer.npy', np.array(charges))--------------------------------------------------------------------------

*** tstart() called on ds3
*** at Mon Apr 27 13:11:12 2020

   => Loading Basis Set <=

    Name: CC-PVDZ
    Role: ORBITAL
    Keyword: BASIS
    atoms 1-7, 16-17  entry C          line   138 file /theoryfs2/ds/metcalf/miniconda2/envs/tf2gpu/share/psi4/basis/cc-pvdz.gbs
    atoms 8-15, 19-24 entry H          line    22 file /theoryfs2/ds/metcalf/miniconda2/envs/tf2gpu/share/psi4/basis/cc-pvdz.gbs
    atoms 18          entry O          line   198 file /theoryfs2/ds/metcalf/miniconda2/envs/tf2gpu/share/psi4/basis/cc-pvdz.gbs

         ---------------------------------------------------------
                                   SCF
               by Justin Turney, Rob Parrish, Andy Simmonett
                          and Daniel G. A. Smith
                              RHF Reference
                        1 Threads,    500 MiB Core
         ---------------------------------------------------------

  ==> Geometry <==

    Molecular point group: c1
    Full point group: C1

    Geometry (in Angstrom), charge = 0, multiplicity = 1:

       Center              X                  Y                   Z               Mass
    ------------   -----------------  -----------------  -----------------  -----------------
         C           -0.944639944642     2.201964751809    -1.379914647359    12.000000000000
         C           -0.283639944642     0.425964751809     0.256085352641    12.000000000000
         C           -0.246639944642     1.758964751809    -0.131914647359    12.000000000000
         C            0.358360055358     0.013964751809     1.415085352641    12.000000000000
         C            0.427360055358     2.681964751809     0.662085352641    12.000000000000
         C            1.034360055358     0.935964751809     2.201085352641    12.000000000000
         C            1.069360055358     2.271964751809     1.824085352641    12.000000000000
         H           -0.817639944642    -0.295035248191    -0.342914647359     1.007825032230
         H            0.343360055358    -1.028035248191     1.693085352641     1.007825032230
         H           -1.181639944642     3.264964751809    -1.297914647359     1.007825032230
         H           -1.891639944642     1.665964751809    -1.434914647359     1.007825032230
         H            0.458360055358     3.723964751809     0.375085352641     1.007825032230
         H            1.533360055358     0.611964751809     3.104085352641     1.007825032230
         H            1.594360055358     2.992964751809     2.437085352641     1.007825032230
         H           -0.382239944642     2.030514751809    -2.309594647359     1.007825032230
         C            0.188360055358    -2.854035248191    -1.437914647359    12.000000000000
         C           -0.892639944642    -3.115035248191    -2.481914647359    12.000000000000
         O           -0.367639944642    -2.871035248191    -0.136914647359    15.994914619570
         H            0.960360055358    -3.621035248191    -1.509914647359     1.007825032230
         H            0.641360055358    -1.878035248191    -1.620914647359     1.007825032230
         H           -1.349639944642    -4.071035248191    -2.249914647359     1.007825032230
         H           -0.389639944642    -3.791035248191     0.198085352641     1.007825032230
         H           -0.464769944642    -3.152015248191    -3.494614647359     1.007825032230
         H           -1.675949944642    -2.346235248191    -2.408664647359     1.007825032230

  Running in c1 symmetry.

  Rotational constants: A =      0.06746  B =      0.01967  C =      0.01580 [cm^-1]
  Rotational constants: A =   2022.35120  B =    589.66696  C =    473.77521 [MHz]
  Nuclear repulsion =  489.609949024626019

  Charge       = 0
  Multiplicity = 1
  Electrons    = 76
  Nalpha       = 38
  Nbeta        = 38

  ==> Algorithm <==

  SCF Algorithm Type is PK.
  DIIS enabled.
  MOM disabled.
  Fractional occupation disabled.
  Guess Type is SAD.
  Energy threshold   = 1.00e-06
  Density threshold  = 1.00e-10
  Integral threshold = 0.00e+00

  ==> Primary Basis <==

  Basis Set: CC-PVDZ
    Blend: CC-PVDZ
    Number of shells: 102
    Number of basis function: 210
    Number of Cartesian functions: 220
    Spherical Harmonics?: true
    Max angular momentum: 2

  ==> Pre-Iterations <==

   -------------------------------------------------------
    Irrep   Nso     Nmo     Nalpha   Nbeta   Ndocc  Nsocc
   -------------------------------------------------------
     A        210     210       0       0       0       0
   -------------------------------------------------------
    Total     210     210      38      38      38       0
   -------------------------------------------------------

  ==> Integral Setup <==

  Using integral reordering PK algorithm.
  Sizing the integral batches needed.
  Building batch lookup table.
   Calculation information:
      Number of atoms:                  24
      Number of AO shells:             102
      Number of primitives:            290
      Number of atomic orbitals:       220
      Number of basis functions:       210

      Integral cutoff                 1.00e-12
      Number of threads:                 1

	Batch   1 pq = [       0,    9405] index = [             0,44231715] size =     44231715
	Batch   2 pq = [    9405,   13301] index = [      44231715,88464951] size =     44233236
	Batch   3 pq = [   13301,   16290] index = [      88464951,132690195] size =     44225244
	Batch   4 pq = [   16290,   18810] index = [     132690195,176917455] size =     44227260
	Batch   5 pq = [   18810,   21030] index = [     176917455,221140965] size =     44223510
	Batch   6 pq = [   21030,   22155] index = [     221140965,245433090] size =     24292125
  Task number: 23
  Buffer size: 11059200
  Buffer per thread: 2
  We computed 11521402 shell quartets total.
  Whereas there are 13799631 unique shell quartets.

  ==> DiskJK: Disk-Based J/K Matrices <==

    J tasked:                  Yes
    K tasked:                  Yes
    wK tasked:                  No
    Memory [MiB]:              375
    Schwarz Cutoff:          1E-12

    OpenMP threads:              1

  Minimum eigenvalue in the overlap matrix is 2.9495206535E-04.
  Using Symmetric Orthogonalization.

  SCF Guess: Superposition of Atomic Densities via on-the-fly atomic UHF.

  ==> Iterations <==

                        Total Energy        Delta E     RMS |[F,P]|

   @RHF iter SAD:  -422.65532985729794   -4.22655e+02   0.00000e+00
   @RHF iter   1:  -423.60234960482001   -9.47020e-01   2.94700e-03 DIIS
   @RHF iter   2:  -423.81292161477586   -2.10572e-01   1.31362e-03 DIIS
   @RHF iter   3:  -423.84839215855828   -3.54705e-02   2.86154e-04 DIIS
   @RHF iter   4:  -423.85119434727847   -2.80219e-03   9.10175e-05 DIIS
   @RHF iter   5:  -423.85139210234161   -1.97755e-04   1.84949e-05 DIIS
   @RHF iter   6:  -423.85140312392440   -1.10216e-05   5.18985e-06 DIIS
   @RHF iter   7:  -423.85140406907823   -9.45154e-07   1.81408e-06 DIIS
   @RHF iter   8:  -423.85140417897406   -1.09896e-07   4.91813e-07 DIIS
   @RHF iter   9:  -423.85140419088725   -1.19132e-08   1.82528e-07 DIIS
   @RHF iter  10:  -423.85140419234642   -1.45917e-09   4.37258e-08 DIIS
   @RHF iter  11:  -423.85140419248523   -1.38812e-10   1.68641e-08 DIIS
   @RHF iter  12:  -423.85140419250087   -1.56319e-11   8.27090e-09 DIIS
   @RHF iter  13:  -423.85140419250820   -7.33280e-12   3.78502e-09 DIIS
   @RHF iter  14:  -423.85140419250996   -1.76215e-12   1.67358e-09 DIIS
   @RHF iter  15:  -423.85140419251047   -5.11591e-13   5.52995e-10 DIIS
   @RHF iter  16:  -423.85140419251172   -1.25056e-12   1.91153e-10 DIIS
   @RHF iter  17:  -423.85140419251235   -6.25278e-13   8.07774e-11 DIIS
  Energy and wave function converged.

  ==> Post-Iterations <==

    Orbital Energies [Eh]
    ---------------------

    Doubly Occupied:

       1A    -20.558358     2A    -11.279275     3A    -11.228925
       4A    -11.225372     5A    -11.223804     6A    -11.221915
       7A    -11.220411     8A    -11.220259     9A    -11.219136
      10A    -11.215548    11A     -1.357883    12A     -1.144721
      13A     -1.037021    14A     -1.011502    15A     -1.001747
      16A     -0.923025    17A     -0.843081    18A     -0.814905
      19A     -0.785311    20A     -0.696764    21A     -0.680338
      22A     -0.631264    23A     -0.622509    24A     -0.618532
      25A     -0.587731    26A     -0.571489    27A     -0.571152
      28A     -0.553358    29A     -0.550373    30A     -0.526404
      31A     -0.524899    32A     -0.479807    33A     -0.477467
      34A     -0.472967    35A     -0.472196    36A     -0.438239
      37A     -0.321801    38A     -0.313009

    Virtual:

      39A      0.144932    40A      0.151500    41A      0.166713
      42A      0.189432    43A      0.204474    44A      0.222896
      45A      0.229680    46A      0.236194    47A      0.253473
      48A      0.260353    49A      0.261551    50A      0.271812
      51A      0.291137    52A      0.294857    53A      0.307939
      54A      0.336085    55A      0.376046    56A      0.381425
      57A      0.392907    58A      0.408586    59A      0.467471
      60A      0.474671    61A      0.490434    62A      0.511144
      63A      0.572179    64A      0.604017    65A      0.611347
      66A      0.620118    67A      0.643414    68A      0.665097
      69A      0.695251    70A      0.698936    71A      0.701545
      72A      0.721232    73A      0.727961    74A      0.742912
      75A      0.753440    76A      0.753768    77A      0.760924
      78A      0.766763    79A      0.779101    80A      0.785382
      81A      0.801016    82A      0.826023    83A      0.838552
      84A      0.859090    85A      0.865278    86A      0.879305
      87A      0.882098    88A      0.886188    89A      0.890332
      90A      0.892237    91A      0.900831    92A      0.909231
      93A      0.918235    94A      0.922351    95A      0.939976
      96A      0.953372    97A      0.961635    98A      0.982956
      99A      1.020351   100A      1.048987   101A      1.055796
     102A      1.126169   103A      1.130771   104A      1.136643
     105A      1.146369   106A      1.163932   107A      1.169476
     108A      1.186455   109A      1.209506   110A      1.247816
     111A      1.253420   112A      1.260930   113A      1.272925
     114A      1.292815   115A      1.317754   116A      1.320882
     117A      1.331922   118A      1.344083   119A      1.373376
     120A      1.413640   121A      1.445822   122A      1.478208
     123A      1.524292   124A      1.527911   125A      1.539732
     126A      1.573766   127A      1.611996   128A      1.633056
     129A      1.666450   130A      1.682204   131A      1.694314
     132A      1.717757   133A      1.726090   134A      1.759537
     135A      1.769005   136A      1.772832   137A      1.800234
     138A      1.824258   139A      1.841813   140A      1.865214
     141A      1.869600   142A      1.891897   143A      1.909373
     144A      1.916837   145A      1.919635   146A      1.928851
     147A      1.932073   148A      1.941054   149A      1.949930
     150A      1.961513   151A      1.970022   152A      1.972147
     153A      1.983591   154A      1.999647   155A      2.003815
     156A      2.017438   157A      2.046668   158A      2.058910
     159A      2.065036   160A      2.076081   161A      2.093119
     162A      2.122497   163A      2.157987   164A      2.168452
     165A      2.181319   166A      2.185242   167A      2.204259
     168A      2.220476   169A      2.251709   170A      2.271739
     171A      2.281782   172A      2.304389   173A      2.308639
     174A      2.321543   175A      2.327934   176A      2.342156
     177A      2.354648   178A      2.430321   179A      2.481301
     180A      2.496046   181A      2.522191   182A      2.528359
     183A      2.540252   184A      2.553368   185A      2.556939
     186A      2.637673   187A      2.746645   188A      2.756007
     189A      2.771360   190A      2.774722   191A      2.781863
     192A      2.793912   193A      2.807891   194A      2.843208
     195A      2.862719   196A      2.880655   197A      2.885306
     198A      2.917176   199A      3.001763   200A      3.027442
     201A      3.041172   202A      3.173691   203A      3.224122
     204A      3.308404   205A      3.322105   206A      3.394702
     207A      3.467733   208A      3.637611   209A      3.995780
     210A      4.092690

    Final Occupation by Irrep:
              A
    DOCC [    38 ]

  @RHF Final Energy:  -423.85140419251235

   => Energetics <=

    Nuclear Repulsion Energy =            489.6099490246260189
    One-Electron Energy =               -1545.6377094154177030
    Two-Electron Energy =                 632.1763561982793362
    Total Energy =                       -423.8514041925122910

Computation Completed

Properties will be evaluated at   0.000000,   0.000000,   0.000000 [a0]

Properties computed using the SCF density matrix

  Nuclear Dipole Moment: [e a0]
     X:    -2.4598      Y:    -5.5375      Z:    -8.3085

  Electronic Dipole Moment: [e a0]
     X:     2.5889      Y:     4.7824      Z:     7.8622

  Dipole Moment: [e a0]
     X:     0.1291      Y:    -0.7550      Z:    -0.4463     Total:     0.8865

  Dipole Moment: [D]
     X:     0.3282      Y:    -1.9191      Z:    -1.1344     Total:     2.2533

*** tstop() called on ds3 at Mon Apr 27 13:13:13 2020
Module time:
	user time   =      87.84 seconds =       1.46 minutes
	system time =      38.58 seconds =       0.64 minutes
	total time  =        121 seconds =       2.02 minutes
Total time:
	user time   =      87.84 seconds =       1.46 minutes
	system time =      38.58 seconds =       0.64 minutes
	total time  =        121 seconds =       2.02 minutes
                                     G D M A

                                 by Anthony Stone

                           version 2.2.06, 22 June 2011

               Distributed Multipoles from Gaussian wavefunctions

Starting at 13:13:13 on 27 Apr 2020

Using SCF density matrix from file ./SSI/SSI-036PHE-075SER-2-dimer.test.5683.fchk

                         Distributed Multipole Analysis

Standard DMA

Positions and radii in angstrom
Multipole moments in atomic units, ea_0^k for rank k

C          x = -0.944640  y =  2.201965  z = -1.379915 angstrom
           Maximum rank =  0   Radius =  0.650 angstrom
                   Q00  =  -0.194261

C          x = -0.283640  y =  0.425965  z =  0.256085 angstrom
           Maximum rank =  0   Radius =  0.650 angstrom
                   Q00  =  -0.006192

C          x = -0.246640  y =  1.758965  z = -0.131915 angstrom
           Maximum rank =  0   Radius =  0.650 angstrom
                   Q00  =  -0.113809

C          x =  0.358360  y =  0.013965  z =  1.415085 angstrom
           Maximum rank =  0   Radius =  0.650 angstrom
                   Q00  =  -0.051704

C          x =  0.427360  y =  2.681965  z =  0.662085 angstrom
           Maximum rank =  0   Radius =  0.650 angstrom
                   Q00  =  -0.049807

C          x =  1.034360  y =  0.935965  z =  2.201085 angstrom
           Maximum rank =  0   Radius =  0.650 angstrom
                   Q00  =  -0.094175

C          x =  1.069360  y =  2.271965  z =  1.824085 angstrom
           Maximum rank =  0   Radius =  0.650 angstrom
                   Q00  =  -0.076521

H          x = -0.817640  y = -0.295035  z = -0.342915 angstrom
           Maximum rank =  0   Radius =  0.325 angstrom
                   Q00  =   0.049784

H          x =  0.343360  y = -1.028035  z =  1.693085 angstrom
           Maximum rank =  0   Radius =  0.325 angstrom
                   Q00  =   0.067090

H          x = -1.181640  y =  3.264965  z = -1.297915 angstrom
           Maximum rank =  0   Radius =  0.325 angstrom
                   Q00  =   0.095177

H          x = -1.891640  y =  1.665965  z = -1.434915 angstrom
           Maximum rank =  0   Radius =  0.325 angstrom
                   Q00  =   0.095362

H          x =  0.458360  y =  3.723965  z =  0.375085 angstrom
           Maximum rank =  0   Radius =  0.325 angstrom
                   Q00  =   0.052438

H          x =  1.533360  y =  0.611965  z =  3.104085 angstrom
           Maximum rank =  0   Radius =  0.325 angstrom
                   Q00  =   0.054472

H          x =  1.594360  y =  2.992965  z =  2.437085 angstrom
           Maximum rank =  0   Radius =  0.325 angstrom
                   Q00  =   0.060149

H          x = -0.382240  y =  2.030515  z = -2.309595 angstrom
           Maximum rank =  0   Radius =  0.325 angstrom
                   Q00  =   0.100991

C          x =  0.188360  y = -2.854035  z = -1.437915 angstrom
           Maximum rank =  0   Radius =  0.650 angstrom
                   Q00  =   0.111230

C          x = -0.892640  y = -3.115035  z = -2.481915 angstrom
           Maximum rank =  0   Radius =  0.650 angstrom
                   Q00  =  -0.259181

O          x = -0.367640  y = -2.871035  z = -0.136915 angstrom
           Maximum rank =  0   Radius =  0.650 angstrom
                   Q00  =  -0.610081

H          x =  0.960360  y = -3.621035  z = -1.509915 angstrom
           Maximum rank =  0   Radius =  0.325 angstrom
                   Q00  =   0.046111

H          x =  0.641360  y = -1.878035  z = -1.620915 angstrom
           Maximum rank =  0   Radius =  0.325 angstrom
                   Q00  =   0.077743

H          x = -1.349640  y = -4.071035  z = -2.249915 angstrom
           Maximum rank =  0   Radius =  0.325 angstrom
                   Q00  =   0.077719

H          x = -0.389640  y = -3.791035  z =  0.198085 angstrom
           Maximum rank =  0   Radius =  0.325 angstrom
                   Q00  =   0.391133

H          x = -0.464770  y = -3.152015  z = -3.494615 angstrom
           Maximum rank =  0   Radius =  0.325 angstrom
                   Q00  =   0.082621

H          x = -1.675950  y = -2.346235  z = -2.408665 angstrom
           Maximum rank =  0   Radius =  0.325 angstrom
                   Q00  =   0.093712

Total multipoles referred to origin at
           x =   0.000000,  y =    0.000000,  z =    0.000000 angstrom
                   Q00  =  -0.000000

Finished at 13:13:13 on 27 Apr 2020

  DMA results are available in the Python driver through the
	  variable('DMA DISTRIBUTED MULTIPOLES')
  and
	  variable('DMA TOTAL MULTIPOLES')
  commands.

    Psi4 stopped on: Monday, 27 April 2020 01:13PM
    Psi4 wall time for execution: 0:02:01.09

*** Psi4 exiting successfully. Buy a developer a beer!
