                               Psi4 1.3.2 release

  ==> Input File <==

--------------------------------------------------------------------------
import numpy as np
set {scf_type pk
basis cc-pvdz
d_convergence 10
gdma_switch   0
gdma_limit    0
gdma_origin   [ 0.0,  0.0,  0.0 ]
}
molecule test {
    units Angstrom
    0 1
    --
    0 1
    C               -1.781999779105964    -0.201458645520057    -0.063203718235070
    C               -3.179999779105965    -0.728458645520057    -0.377203718235070
    H               -1.809999779105964     0.417541354479943     0.833796281764930
    H               -1.105999779105964    -1.041458645520057     0.099796281764930
    H               -1.413999779105964     0.385541354479943    -0.905203718235070
    H               -3.115999779105964    -1.350458645520057    -1.265203718235070
    H               -3.880879779105964     0.102271354479943    -0.546505718235070
    H               -3.550679779105964    -1.360188645520057     0.443474281764930
    C                1.862000220894036     0.219541354479943    -0.147203718235070
    C                3.101000220894035     0.715541354479943     0.585796281764930
    H                1.968000220894036     0.380541354479943    -1.221203718235070
    H                1.724000220894036    -0.840458645520057     0.058796281764930
    H                0.984000220894036     0.756541354479943     0.212796281764930
    H                2.978000220894036     0.502541354479943     1.645796281764930
    H                3.215490220894035     1.799591354479943     0.438394281764930
    H                3.996150220894036     0.186491354479943     0.226876281764930

}
e, wfn = energy('scf', return_wfn=True)
gdma(wfn)
dmavals = variable('DMA DISTRIBUTED MULTIPOLES')
charges = np.array(dmavals)
print(charges)
np.save('SSI-007LEU-033LEU-1-dimer.npy', np.array(charges))--------------------------------------------------------------------------

*** tstart() called on ds3
*** at Tue Apr 28 07:57:01 2020

   => Loading Basis Set <=

    Name: CC-PVDZ
    Role: ORBITAL
    Keyword: BASIS
    atoms 1-2, 9-10  entry C          line   138 file /theoryfs2/ds/metcalf/miniconda2/envs/tf2gpu/share/psi4/basis/cc-pvdz.gbs
    atoms 3-8, 11-16 entry H          line    22 file /theoryfs2/ds/metcalf/miniconda2/envs/tf2gpu/share/psi4/basis/cc-pvdz.gbs

         ---------------------------------------------------------
                                   SCF
               by Justin Turney, Rob Parrish, Andy Simmonett
                          and Daniel G. A. Smith
                              RHF Reference
                        1 Threads,    500 MiB Core
         ---------------------------------------------------------

  ==> Geometry <==

    Molecular point group: c1
    Full point group: C1

    Geometry (in Angstrom), charge = 0, multiplicity = 1:

       Center              X                  Y                   Z               Mass
    ------------   -----------------  -----------------  -----------------  -----------------
         C           -1.781999779106    -0.201458645520    -0.063203718235    12.000000000000
         C           -3.179999779106    -0.728458645520    -0.377203718235    12.000000000000
         H           -1.809999779106     0.417541354480     0.833796281765     1.007825032230
         H           -1.105999779106    -1.041458645520     0.099796281765     1.007825032230
         H           -1.413999779106     0.385541354480    -0.905203718235     1.007825032230
         H           -3.115999779106    -1.350458645520    -1.265203718235     1.007825032230
         H           -3.880879779106     0.102271354480    -0.546505718235     1.007825032230
         H           -3.550679779106    -1.360188645520     0.443474281765     1.007825032230
         C            1.862000220894     0.219541354480    -0.147203718235    12.000000000000
         C            3.101000220894     0.715541354480     0.585796281765    12.000000000000
         H            1.968000220894     0.380541354480    -1.221203718235     1.007825032230
         H            1.724000220894    -0.840458645520     0.058796281765     1.007825032230
         H            0.984000220894     0.756541354480     0.212796281765     1.007825032230
         H            2.978000220894     0.502541354480     1.645796281765     1.007825032230
         H            3.215490220894     1.799591354480     0.438394281765     1.007825032230
         H            3.996150220894     0.186491354480     0.226876281765     1.007825032230

  Running in c1 symmetry.

  Rotational constants: A =      1.00037  B =      0.03904  C =      0.03872 [cm^-1]
  Rotational constants: A =  29990.46411  B =   1170.43166  C =   1160.78758 [MHz]
  Nuclear repulsion =  119.952943981809781

  Charge       = 0
  Multiplicity = 1
  Electrons    = 36
  Nalpha       = 18
  Nbeta        = 18

  ==> Algorithm <==

  SCF Algorithm Type is PK.
  DIIS enabled.
  MOM disabled.
  Fractional occupation disabled.
  Guess Type is SAD.
  Energy threshold   = 1.00e-06
  Density threshold  = 1.00e-10
  Integral threshold = 0.00e+00

  ==> Primary Basis <==

  Basis Set: CC-PVDZ
    Blend: CC-PVDZ
    Number of shells: 60
    Number of basis function: 116
    Number of Cartesian functions: 120
    Spherical Harmonics?: true
    Max angular momentum: 2

  ==> Pre-Iterations <==

   -------------------------------------------------------
    Irrep   Nso     Nmo     Nalpha   Nbeta   Ndocc  Nsocc
   -------------------------------------------------------
     A        116     116       0       0       0       0
   -------------------------------------------------------
    Total     116     116      18      18      18       0
   -------------------------------------------------------

  ==> Integral Setup <==

  Using integral reordering PK algorithm.
  Sizing the integral batches needed.
  Building batch lookup table.
   Calculation information:
      Number of atoms:                  16
      Number of AO shells:              60
      Number of primitives:            148
      Number of atomic orbitals:       120
      Number of basis functions:       116

      Integral cutoff                 1.00e-12
      Number of threads:                 1

	Batch   1 pq = [       0,    6786] index = [             0,23028291] size =     23028291
  Task number: 3
  Buffer size: 11059200
  Buffer per thread: 2
  We computed 1334740 shell quartets total.
  Whereas there are 1675365 unique shell quartets.

  ==> DiskJK: Disk-Based J/K Matrices <==

    J tasked:                  Yes
    K tasked:                  Yes
    wK tasked:                  No
    Memory [MiB]:              375
    Schwarz Cutoff:          1E-12

    OpenMP threads:              1

  Minimum eigenvalue in the overlap matrix is 5.9273564128E-03.
  Using Symmetric Orthogonalization.

  SCF Guess: Superposition of Atomic Densities via on-the-fly atomic UHF.

  ==> Iterations <==

                        Total Energy        Delta E     RMS |[F,P]|

   @RHF iter SAD:  -157.36227235432338   -1.57362e+02   0.00000e+00
   @RHF iter   1:  -158.30691440705999   -9.44642e-01   4.22974e-03 DIIS
   @RHF iter   2:  -158.44120175627435   -1.34287e-01   1.80374e-03 DIIS
   @RHF iter   3:  -158.46479989134485   -2.35981e-02   3.51303e-04 DIIS
   @RHF iter   4:  -158.46664799586398   -1.84810e-03   3.92736e-05 DIIS
   @RHF iter   5:  -158.46667226322262   -2.42674e-05   6.94026e-06 DIIS
   @RHF iter   6:  -158.46667295764004   -6.94417e-07   1.26631e-06 DIIS
   @RHF iter   7:  -158.46667297282818   -1.51881e-08   3.30253e-07 DIIS
   @RHF iter   8:  -158.46667297386952   -1.04134e-09   4.31980e-08 DIIS
   @RHF iter   9:  -158.46667297390067   -3.11502e-11   8.55140e-09 DIIS
   @RHF iter  10:  -158.46667297390198   -1.30740e-12   2.14906e-09 DIIS
   @RHF iter  11:  -158.46667297390246   -4.83169e-13   4.55025e-10 DIIS
   @RHF iter  12:  -158.46667297390272   -2.55795e-13   1.39560e-10 DIIS
   @RHF iter  13:  -158.46667297390235    3.69482e-13   2.67701e-11 DIIS
  Energy and wave function converged.

  ==> Post-Iterations <==

    Orbital Energies [Eh]
    ---------------------

    Doubly Occupied:

       1A    -11.217961     2A    -11.217576     3A    -11.216212
       4A    -11.214765     5A     -1.019830     6A     -1.017756
       7A     -0.838472     8A     -0.831517     9A     -0.600901
      10A     -0.599095    11A     -0.597269    12A     -0.595901
      13A     -0.505939    14A     -0.493889    15A     -0.488423
      16A     -0.484946    17A     -0.482657    18A     -0.481523

    Virtual:

      19A      0.177954    20A      0.192784    21A      0.222377
      22A      0.232955    23A      0.242777    24A      0.263138
      25A      0.266536    26A      0.276681    27A      0.281382
      28A      0.289476    29A      0.301807    30A      0.320629
      31A      0.390466    32A      0.416246    33A      0.570587
      34A      0.595862    35A      0.601026    36A      0.602231
      37A      0.606903    38A      0.643611    39A      0.672119
      40A      0.692379    41A      0.706084    42A      0.740452
      43A      0.850542    44A      0.885315    45A      0.891605
      46A      0.893267    47A      0.893466    48A      0.897568
      49A      0.898956    50A      0.910228    51A      0.915145
      52A      0.917611    53A      0.929432    54A      0.949797
      55A      0.961425    56A      1.006136    57A      1.126325
      58A      1.128550    59A      1.130632    60A      1.141967
      61A      1.229141    62A      1.247458    63A      1.470934
      64A      1.476388    65A      1.484669    66A      1.487458
      67A      1.576259    68A      1.585121    69A      1.679307
      70A      1.680689    71A      1.692911    72A      1.693755
      73A      1.847073    74A      1.857269    75A      1.860352
      76A      1.879530    77A      1.896610    78A      1.922594
      79A      1.937909    80A      1.940311    81A      1.945080
      82A      1.947975    83A      1.949647    84A      1.956087
      85A      1.966673    86A      1.972554    87A      1.999085
      88A      2.061197    89A      2.096672    90A      2.103987
      91A      2.114426    92A      2.124271    93A      2.295155
      94A      2.298599    95A      2.316504    96A      2.341145
      97A      2.455706    98A      2.457467    99A      2.470928
     100A      2.473514   101A      2.558320   102A      2.569330
     103A      2.574959   104A      2.579628   105A      2.756344
     106A      2.765434   107A      2.783766   108A      2.803134
     109A      2.846559   110A      2.848922   111A      2.850392
     112A      2.860352   113A      2.944314   114A      2.950465
     115A      2.952309   116A      2.970166

    Final Occupation by Irrep:
              A
    DOCC [    18 ]

  @RHF Final Energy:  -158.46667297390235

   => Energetics <=

    Nuclear Repulsion Energy =            119.9529439818097813
    One-Electron Energy =                -449.0299646182181732
    Two-Electron Energy =                 170.6103476625060580
    Total Energy =                       -158.4666729739023481

Computation Completed

Properties will be evaluated at   0.000000,   0.000000,   0.000000 [a0]

Properties computed using the SCF density matrix

  Nuclear Dipole Moment: [e a0]
     X:    -0.0112      Y:    -0.0577      Z:     0.0203

  Electronic Dipole Moment: [e a0]
     X:     0.0057      Y:     0.0478      Z:    -0.0197

  Dipole Moment: [e a0]
     X:    -0.0055      Y:    -0.0098      Z:     0.0006     Total:     0.0113

  Dipole Moment: [D]
     X:    -0.0139      Y:    -0.0250      Z:     0.0014     Total:     0.0286

*** tstop() called on ds3 at Tue Apr 28 07:57:10 2020
Module time:
	user time   =       6.59 seconds =       0.11 minutes
	system time =       2.70 seconds =       0.04 minutes
	total time  =          9 seconds =       0.15 minutes
Total time:
	user time   =       6.59 seconds =       0.11 minutes
	system time =       2.70 seconds =       0.04 minutes
	total time  =          9 seconds =       0.15 minutes
                                     G D M A

                                 by Anthony Stone

                           version 2.2.06, 22 June 2011

               Distributed Multipoles from Gaussian wavefunctions

Starting at 7:57:11 on 28 Apr 2020

Using SCF density matrix from file ./SSI/SSI-007LEU-033LEU-1-dimer.test.7913.fchk

                         Distributed Multipole Analysis

Standard DMA

Positions and radii in angstrom
Multipole moments in atomic units, ea_0^k for rank k

C          x = -1.782000  y = -0.201459  z = -0.063204 angstrom
           Maximum rank =  0   Radius =  0.650 angstrom
                   Q00  =  -0.237739

C          x = -3.180000  y = -0.728459  z = -0.377204 angstrom
           Maximum rank =  0   Radius =  0.650 angstrom
                   Q00  =  -0.234180

H          x = -1.810000  y =  0.417541  z =  0.833796 angstrom
           Maximum rank =  0   Radius =  0.325 angstrom
                   Q00  =   0.077493

H          x = -1.106000  y = -1.041459  z =  0.099796 angstrom
           Maximum rank =  0   Radius =  0.325 angstrom
                   Q00  =   0.080379

H          x = -1.414000  y =  0.385541  z = -0.905204 angstrom
           Maximum rank =  0   Radius =  0.325 angstrom
                   Q00  =   0.078793

H          x = -3.116000  y = -1.350459  z = -1.265204 angstrom
           Maximum rank =  0   Radius =  0.325 angstrom
                   Q00  =   0.079248

H          x = -3.880880  y =  0.102271  z = -0.546506 angstrom
           Maximum rank =  0   Radius =  0.325 angstrom
                   Q00  =   0.079630

H          x = -3.550680  y = -1.360189  z =  0.443474 angstrom
           Maximum rank =  0   Radius =  0.325 angstrom
                   Q00  =   0.078084

C          x =  1.862000  y =  0.219541  z = -0.147204 angstrom
           Maximum rank =  0   Radius =  0.650 angstrom
                   Q00  =  -0.232843

C          x =  3.101000  y =  0.715541  z =  0.585796 angstrom
           Maximum rank =  0   Radius =  0.650 angstrom
                   Q00  =  -0.238211

H          x =  1.968000  y =  0.380541  z = -1.221204 angstrom
           Maximum rank =  0   Radius =  0.325 angstrom
                   Q00  =   0.078140

H          x =  1.724000  y = -0.840459  z =  0.058796 angstrom
           Maximum rank =  0   Radius =  0.325 angstrom
                   Q00  =   0.077001

H          x =  0.984000  y =  0.756541  z =  0.212796 angstrom
           Maximum rank =  0   Radius =  0.325 angstrom
                   Q00  =   0.081003

H          x =  2.978000  y =  0.502541  z =  1.645796 angstrom
           Maximum rank =  0   Radius =  0.325 angstrom
                   Q00  =   0.077664

H          x =  3.215490  y =  1.799591  z =  0.438394 angstrom
           Maximum rank =  0   Radius =  0.325 angstrom
                   Q00  =   0.078073

H          x =  3.996150  y =  0.186491  z =  0.226876 angstrom
           Maximum rank =  0   Radius =  0.325 angstrom
                   Q00  =   0.077464

Total multipoles referred to origin at
           x =   0.000000,  y =    0.000000,  z =    0.000000 angstrom
                   Q00  =  -0.000000

Finished at 7:57:11 on 28 Apr 2020

  DMA results are available in the Python driver through the
	  variable('DMA DISTRIBUTED MULTIPOLES')
  and
	  variable('DMA TOTAL MULTIPOLES')
  commands.

    Psi4 stopped on: Tuesday, 28 April 2020 07:57AM
    Psi4 wall time for execution: 0:00:09.24

*** Psi4 exiting successfully. Buy a developer a beer!
