                               Psi4 1.3.2 release

  ==> Input File <==

--------------------------------------------------------------------------
import numpy as np
set {scf_type pk
basis cc-pvdz
d_convergence 10
gdma_switch   0
gdma_limit    0
gdma_origin   [ 0.0,  0.0,  0.0 ]
}
molecule test {
    units Angstrom
    0 1
    --
    0 1
    C               -3.333811486252352     2.311478574848844    -0.151947983478892
    C               -2.727811486252352     1.326478574848844     0.825052016521108
    O               -2.033811486252353     1.690478574848844     1.796052016521108
    N               -2.991811486252353     0.072478574848844     0.586052016521108
    H               -3.697811486252353     3.180478574848844     0.394052016521108
    H               -4.192811486252352     1.849478574848844    -0.639947983478892
    H               -2.618811486252353    -0.612521425151156     1.225052016521108
    H               -3.558811486252353    -0.181521425151156    -0.199947983478892
    H               -2.593464486252353     2.611774574848844    -0.908057983478892
    C                2.107188513747647    -3.083521425151156     0.498052016521108
    C                0.678188513747648     0.378478574848844    -0.247947983478892
    C                1.559188513747647     0.867478574848844    -1.206947983478892
    C                0.842188513747647    -0.904521425151156     0.282052016521108
    C                1.890188513747647    -1.741521425151156    -0.134947983478892
    C                2.582188513747647     0.035478574848844    -1.625947983478892
    C                2.750188513747648    -1.259521425151156    -1.124947983478892
    H               -0.112811486252353     1.011478574848844     0.119052016521108
    H                1.456188513747647     1.868478574848844    -1.593947983478892
    H                0.162188513747647    -1.246521425151156     1.050052016521108
    H                3.296188513747648     0.409478574848844    -2.343947983478892
    H                1.691188513747647    -3.051521425151155     1.506052016521108
    H                3.181188513747648    -3.224521425151156     0.603052016521108
    H                3.586188513747647    -1.856521425151156    -1.460947983478892
    H                1.667795513747647    -3.950725425151155    -0.016627983478892

}
e, wfn = energy('scf', return_wfn=True)
gdma(wfn)
dmavals = variable('DMA DISTRIBUTED MULTIPOLES')
charges = np.array(dmavals)
print(charges)
np.save('SSI-040ASN-073PHE-1-dimer.npy', np.array(charges))--------------------------------------------------------------------------

*** tstart() called on ds3
*** at Mon Apr 27 05:39:08 2020

   => Loading Basis Set <=

    Name: CC-PVDZ
    Role: ORBITAL
    Keyword: BASIS
    atoms 1-2, 10-16 entry C          line   138 file /theoryfs2/ds/metcalf/miniconda2/envs/tf2gpu/share/psi4/basis/cc-pvdz.gbs
    atoms 3          entry O          line   198 file /theoryfs2/ds/metcalf/miniconda2/envs/tf2gpu/share/psi4/basis/cc-pvdz.gbs
    atoms 4          entry N          line   168 file /theoryfs2/ds/metcalf/miniconda2/envs/tf2gpu/share/psi4/basis/cc-pvdz.gbs
    atoms 5-9, 17-24 entry H          line    22 file /theoryfs2/ds/metcalf/miniconda2/envs/tf2gpu/share/psi4/basis/cc-pvdz.gbs

         ---------------------------------------------------------
                                   SCF
               by Justin Turney, Rob Parrish, Andy Simmonett
                          and Daniel G. A. Smith
                              RHF Reference
                        1 Threads,    500 MiB Core
         ---------------------------------------------------------

  ==> Geometry <==

    Molecular point group: c1
    Full point group: C1

    Geometry (in Angstrom), charge = 0, multiplicity = 1:

       Center              X                  Y                   Z               Mass
    ------------   -----------------  -----------------  -----------------  -----------------
         C           -3.333811486252     2.311478574849    -0.151947983479    12.000000000000
         C           -2.727811486252     1.326478574849     0.825052016521    12.000000000000
         O           -2.033811486252     1.690478574849     1.796052016521    15.994914619570
         N           -2.991811486252     0.072478574849     0.586052016521    14.003074004430
         H           -3.697811486252     3.180478574849     0.394052016521     1.007825032230
         H           -4.192811486252     1.849478574849    -0.639947983479     1.007825032230
         H           -2.618811486252    -0.612521425151     1.225052016521     1.007825032230
         H           -3.558811486252    -0.181521425151    -0.199947983479     1.007825032230
         H           -2.593464486252     2.611774574849    -0.908057983479     1.007825032230
         C            2.107188513748    -3.083521425151     0.498052016521    12.000000000000
         C            0.678188513748     0.378478574849    -0.247947983479    12.000000000000
         C            1.559188513748     0.867478574849    -1.206947983479    12.000000000000
         C            0.842188513748    -0.904521425151     0.282052016521    12.000000000000
         C            1.890188513748    -1.741521425151    -0.134947983479    12.000000000000
         C            2.582188513748     0.035478574849    -1.625947983479    12.000000000000
         C            2.750188513748    -1.259521425151    -1.124947983479    12.000000000000
         H           -0.112811486252     1.011478574849     0.119052016521     1.007825032230
         H            1.456188513748     1.868478574849    -1.593947983479     1.007825032230
         H            0.162188513748    -1.246521425151     1.050052016521     1.007825032230
         H            3.296188513748     0.409478574849    -2.343947983479     1.007825032230
         H            1.691188513748    -3.051521425151     1.506052016521     1.007825032230
         H            3.181188513748    -3.224521425151     0.603052016521     1.007825032230
         H            3.586188513748    -1.856521425151    -1.460947983479     1.007825032230
         H            1.667795513748    -3.950725425151    -0.016627983479     1.007825032230

  Running in c1 symmetry.

  Rotational constants: A =      0.06320  B =      0.01472  C =      0.01284 [cm^-1]
  Rotational constants: A =   1894.70848  B =    441.18645  C =    384.83187 [MHz]
  Nuclear repulsion =  551.778377477263803

  Charge       = 0
  Multiplicity = 1
  Electrons    = 82
  Nalpha       = 41
  Nbeta        = 41

  ==> Algorithm <==

  SCF Algorithm Type is PK.
  DIIS enabled.
  MOM disabled.
  Fractional occupation disabled.
  Guess Type is SAD.
  Energy threshold   = 1.00e-06
  Density threshold  = 1.00e-10
  Integral threshold = 0.00e+00

  ==> Primary Basis <==

  Basis Set: CC-PVDZ
    Blend: CC-PVDZ
    Number of shells: 105
    Number of basis function: 219
    Number of Cartesian functions: 230
    Spherical Harmonics?: true
    Max angular momentum: 2

  ==> Pre-Iterations <==

   -------------------------------------------------------
    Irrep   Nso     Nmo     Nalpha   Nbeta   Ndocc  Nsocc
   -------------------------------------------------------
     A        219     219       0       0       0       0
   -------------------------------------------------------
    Total     219     219      41      41      41       0
   -------------------------------------------------------

  ==> Integral Setup <==

  Using integral reordering PK algorithm.
  Sizing the integral batches needed.
  Building batch lookup table.
   Calculation information:
      Number of atoms:                  24
      Number of AO shells:             105
      Number of primitives:            307
      Number of atomic orbitals:       230
      Number of basis functions:       219

      Integral cutoff                 1.00e-12
      Number of threads:                 1

	Batch   1 pq = [       0,    9405] index = [             0,44231715] size =     44231715
	Batch   2 pq = [    9405,   13301] index = [      44231715,88464951] size =     44233236
	Batch   3 pq = [   13301,   16290] index = [      88464951,132690195] size =     44225244
	Batch   4 pq = [   16290,   18810] index = [     132690195,176917455] size =     44227260
	Batch   5 pq = [   18810,   21030] index = [     176917455,221140965] size =     44223510
	Batch   6 pq = [   21030,   23037] index = [     221140965,265363203] size =     44222238
	Batch   7 pq = [   23037,   24090] index = [     265363203,290176095] size =     24812892
  Task number: 27
  Buffer size: 11059200
  Buffer per thread: 2
  We computed 12622078 shell quartets total.
  Whereas there are 15487395 unique shell quartets.

  ==> DiskJK: Disk-Based J/K Matrices <==

    J tasked:                  Yes
    K tasked:                  Yes
    wK tasked:                  No
    Memory [MiB]:              375
    Schwarz Cutoff:          1E-12

    OpenMP threads:              1

  Minimum eigenvalue in the overlap matrix is 3.0800659160E-04.
  Using Symmetric Orthogonalization.

  SCF Guess: Superposition of Atomic Densities via on-the-fly atomic UHF.

  ==> Iterations <==

                        Total Energy        Delta E     RMS |[F,P]|

   @RHF iter SAD:  -476.46434097441488   -4.76464e+02   0.00000e+00
   @RHF iter   1:  -477.45269835966724   -9.88357e-01   3.21970e-03 DIIS
   @RHF iter   2:  -477.68667945152413   -2.33981e-01   1.72903e-03 DIIS
   @RHF iter   3:  -477.74334450988300   -5.66651e-02   4.03029e-04 DIIS
   @RHF iter   4:  -477.74773243123786   -4.38792e-03   1.56014e-04 DIIS
   @RHF iter   5:  -477.74842698805747   -6.94557e-04   2.30678e-05 DIIS
   @RHF iter   6:  -477.74845666334221   -2.96753e-05   1.00621e-05 DIIS
   @RHF iter   7:  -477.74846173972878   -5.07639e-06   3.69705e-06 DIIS
   @RHF iter   8:  -477.74846274586719   -1.00614e-06   1.36545e-06 DIIS
   @RHF iter   9:  -477.74846288818367   -1.42316e-07   4.03649e-07 DIIS
   @RHF iter  10:  -477.74846289755465   -9.37098e-09   1.66678e-07 DIIS
   @RHF iter  11:  -477.74846289925779   -1.70314e-09   4.93445e-08 DIIS
   @RHF iter  12:  -477.74846289942258   -1.64789e-10   2.22538e-08 DIIS
   @RHF iter  13:  -477.74846289946242   -3.98472e-11   1.00641e-08 DIIS
   @RHF iter  14:  -477.74846289947675   -1.43245e-11   4.16612e-09 DIIS
   @RHF iter  15:  -477.74846289947936   -2.61480e-12   1.44217e-09 DIIS
   @RHF iter  16:  -477.74846289947641    2.95586e-12   5.01912e-10 DIIS
   @RHF iter  17:  -477.74846289947965   -3.24007e-12   1.62797e-10 DIIS
   @RHF iter  18:  -477.74846289947419    5.45697e-12   5.47749e-11 DIIS
  Energy and wave function converged.

  ==> Post-Iterations <==

    Orbital Energies [Eh]
    ---------------------

    Doubly Occupied:

       1A    -20.503047     2A    -15.595825     3A    -11.349901
       4A    -11.245973     5A    -11.239295     6A    -11.230377
       7A    -11.227862     8A    -11.227726     9A    -11.227085
      10A    -11.226479    11A    -11.225122    12A     -1.362450
      13A     -1.228633    14A     -1.146293    15A     -1.042472
      16A     -1.004660    17A     -1.002845    18A     -0.930129
      19A     -0.819032    20A     -0.808620    21A     -0.790272
      22A     -0.741466    23A     -0.687310    24A     -0.654346
      25A     -0.628004    26A     -0.626291    27A     -0.615867
      28A     -0.576687    29A     -0.572086    30A     -0.566100
      31A     -0.562337    32A     -0.559055    33A     -0.532133
      34A     -0.527459    35A     -0.482884    36A     -0.480118
      37A     -0.474913    38A     -0.411062    39A     -0.404734
      40A     -0.324400    41A     -0.319197

    Virtual:

      42A      0.140290    43A      0.143139    44A      0.156227
      45A      0.185042    46A      0.189933    47A      0.200843
      48A      0.210884    49A      0.220910    50A      0.241310
      51A      0.257807    52A      0.260586    53A      0.269085
      54A      0.280589    55A      0.289514    56A      0.309858
      57A      0.337636    58A      0.369501    59A      0.377569
      60A      0.386178    61A      0.456406    62A      0.463598
      63A      0.479257    64A      0.489752    65A      0.507071
      66A      0.560683    67A      0.571300    68A      0.597905
      69A      0.629316    70A      0.642337    71A      0.663771
      72A      0.673004    73A      0.691917    74A      0.697392
      75A      0.704213    76A      0.708306    77A      0.717802
      78A      0.736347    79A      0.744283    80A      0.746675
      81A      0.749111    82A      0.757663    83A      0.767063
      84A      0.775376    85A      0.787449    86A      0.806842
      87A      0.840820    88A      0.848600    89A      0.861866
      90A      0.863819    91A      0.872770    92A      0.876460
      93A      0.879487    94A      0.895281    95A      0.906391
      96A      0.915648    97A      0.926089    98A      0.933210
      99A      0.936777   100A      0.944720   101A      0.972405
     102A      0.989252   103A      1.006732   104A      1.021370
     105A      1.042789   106A      1.053857   107A      1.092114
     108A      1.116427   109A      1.118732   110A      1.138805
     111A      1.157323   112A      1.159926   113A      1.179633
     114A      1.193015   115A      1.239651   116A      1.252671
     117A      1.263920   118A      1.268423   119A      1.301502
     120A      1.302330   121A      1.327886   122A      1.331432
     123A      1.337514   124A      1.356581   125A      1.390500
     126A      1.410181   127A      1.419553   128A      1.464100
     129A      1.495022   130A      1.500610   131A      1.525359
     132A      1.538272   133A      1.546646   134A      1.607445
     135A      1.638003   136A      1.651558   137A      1.687502
     138A      1.701763   139A      1.731111   140A      1.739220
     141A      1.755895   142A      1.767868   143A      1.789499
     144A      1.803811   145A      1.813874   146A      1.844456
     147A      1.868904   148A      1.871172   149A      1.887016
     150A      1.893820   151A      1.895263   152A      1.907977
     153A      1.920396   154A      1.925877   155A      1.938583
     156A      1.946195   157A      1.951588   158A      1.965101
     159A      1.977814   160A      1.980986   161A      1.989800
     162A      2.011735   163A      2.042878   164A      2.052675
     165A      2.060330   166A      2.067407   167A      2.075013
     168A      2.119373   169A      2.147858   170A      2.161754
     171A      2.169549   172A      2.173266   173A      2.187656
     174A      2.197649   175A      2.223141   176A      2.255490
     177A      2.274230   178A      2.284672   179A      2.306993
     180A      2.312196   181A      2.314825   182A      2.328423
     183A      2.446392   184A      2.459110   185A      2.471299
     186A      2.480541   187A      2.500494   188A      2.510983
     189A      2.546628   190A      2.561429   191A      2.574367
     192A      2.624056   193A      2.633161   194A      2.737400
     195A      2.749286   196A      2.756899   197A      2.766099
     198A      2.773514   199A      2.786141   200A      2.790991
     201A      2.836250   202A      2.855758   203A      2.865730
     204A      2.876813   205A      2.979175   206A      3.000285
     207A      3.008943   208A      3.024965   209A      3.096522
     210A      3.131678   211A      3.156407   212A      3.204666
     213A      3.302322   214A      3.307434   215A      3.497442
     216A      3.517357   217A      3.854209   218A      3.900227
     219A      3.960344

    Final Occupation by Irrep:
              A
    DOCC [    41 ]

  @RHF Final Energy:  -477.74846289947419

   => Energetics <=

    Nuclear Repulsion Energy =            551.7783774772638026
    One-Electron Energy =               -1742.6925826453925765
    Two-Electron Energy =                 713.1657422686545260
    Total Energy =                       -477.7484628994742479

Computation Completed

Properties will be evaluated at   0.000000,   0.000000,   0.000000 [a0]

Properties computed using the SCF density matrix

  Nuclear Dipole Moment: [e a0]
     X:    -1.6263      Y:    -2.9851      Z:    -2.1175

  Electronic Dipole Moment: [e a0]
     X:     0.6375      Y:     2.1399      Z:     1.0029

  Dipole Moment: [e a0]
     X:    -0.9887      Y:    -0.8452      Z:    -1.1146     Total:     1.7130

  Dipole Moment: [D]
     X:    -2.5131      Y:    -2.1483      Z:    -2.8330     Total:     4.3540

*** tstop() called on ds3 at Mon Apr 27 05:41:20 2020
Module time:
	user time   =      92.20 seconds =       1.54 minutes
	system time =      44.81 seconds =       0.75 minutes
	total time  =        132 seconds =       2.20 minutes
Total time:
	user time   =      92.20 seconds =       1.54 minutes
	system time =      44.81 seconds =       0.75 minutes
	total time  =        132 seconds =       2.20 minutes
                                     G D M A

                                 by Anthony Stone

                           version 2.2.06, 22 June 2011

               Distributed Multipoles from Gaussian wavefunctions

Starting at 5:41:20 on 27 Apr 2020

Using SCF density matrix from file ./SSI/SSI-040ASN-073PHE-1-dimer.test.29343.fchk

                         Distributed Multipole Analysis

Standard DMA

Positions and radii in angstrom
Multipole moments in atomic units, ea_0^k for rank k

C          x = -3.333811  y =  2.311479  z = -0.151948 angstrom
           Maximum rank =  0   Radius =  0.650 angstrom
                   Q00  =  -0.257718

C          x = -2.727811  y =  1.326479  z =  0.825052 angstrom
           Maximum rank =  0   Radius =  0.650 angstrom
                   Q00  =   0.797829

O          x = -2.033811  y =  1.690479  z =  1.796052 angstrom
           Maximum rank =  0   Radius =  0.650 angstrom
                   Q00  =  -0.812213

N          x = -2.991811  y =  0.072479  z =  0.586052 angstrom
           Maximum rank =  0   Radius =  0.650 angstrom
                   Q00  =  -0.498594

H          x = -3.697811  y =  3.180479  z =  0.394052 angstrom
           Maximum rank =  0   Radius =  0.325 angstrom
                   Q00  =   0.133191

H          x = -4.192811  y =  1.849479  z = -0.639948 angstrom
           Maximum rank =  0   Radius =  0.325 angstrom
                   Q00  =   0.074890

H          x = -2.618811  y = -0.612521  z =  1.225052 angstrom
           Maximum rank =  0   Radius =  0.325 angstrom
                   Q00  =   0.225122

H          x = -3.558811  y = -0.181521  z = -0.199948 angstrom
           Maximum rank =  0   Radius =  0.325 angstrom
                   Q00  =   0.210776

H          x = -2.593464  y =  2.611775  z = -0.908058 angstrom
           Maximum rank =  0   Radius =  0.325 angstrom
                   Q00  =   0.130621

C          x =  2.107189  y = -3.083521  z =  0.498052 angstrom
           Maximum rank =  0   Radius =  0.650 angstrom
                   Q00  =  -0.209022

C          x =  0.678189  y =  0.378479  z = -0.247948 angstrom
           Maximum rank =  0   Radius =  0.650 angstrom
                   Q00  =  -0.068255

C          x =  1.559189  y =  0.867479  z = -1.206948 angstrom
           Maximum rank =  0   Radius =  0.650 angstrom
                   Q00  =  -0.089662

C          x =  0.842189  y = -0.904521  z =  0.282052 angstrom
           Maximum rank =  0   Radius =  0.650 angstrom
                   Q00  =  -0.065330

C          x =  1.890189  y = -1.741521  z = -0.134948 angstrom
           Maximum rank =  0   Radius =  0.650 angstrom
                   Q00  =  -0.099295

C          x =  2.582189  y =  0.035479  z = -1.625948 angstrom
           Maximum rank =  0   Radius =  0.650 angstrom
                   Q00  =   0.036535

C          x =  2.750189  y = -1.259521  z = -1.124948 angstrom
           Maximum rank =  0   Radius =  0.650 angstrom
                   Q00  =  -0.100809

H          x = -0.112811  y =  1.011479  z =  0.119052 angstrom
           Maximum rank =  0   Radius =  0.325 angstrom
                   Q00  =   0.071023

H          x =  1.456189  y =  1.868479  z = -1.593948 angstrom
           Maximum rank =  0   Radius =  0.325 angstrom
                   Q00  =   0.059219

H          x =  0.162189  y = -1.246521  z =  1.050052 angstrom
           Maximum rank =  0   Radius =  0.325 angstrom
                   Q00  =   0.045870

H          x =  3.296189  y =  0.409479  z = -2.343948 angstrom
           Maximum rank =  0   Radius =  0.325 angstrom
                   Q00  =   0.058742

H          x =  1.691189  y = -3.051521  z =  1.506052 angstrom
           Maximum rank =  0   Radius =  0.325 angstrom
                   Q00  =   0.097132

H          x =  3.181189  y = -3.224521  z =  0.603052 angstrom
           Maximum rank =  0   Radius =  0.325 angstrom
                   Q00  =   0.100051

H          x =  3.586189  y = -1.856521  z = -1.460948 angstrom
           Maximum rank =  0   Radius =  0.325 angstrom
                   Q00  =   0.056287

H          x =  1.667796  y = -3.950725  z = -0.016628 angstrom
           Maximum rank =  0   Radius =  0.325 angstrom
                   Q00  =   0.103613

Total multipoles referred to origin at
           x =   0.000000,  y =    0.000000,  z =    0.000000 angstrom
                   Q00  =  -0.000000

Finished at 5:41:20 on 27 Apr 2020

  DMA results are available in the Python driver through the
	  variable('DMA DISTRIBUTED MULTIPOLES')
  and
	  variable('DMA TOTAL MULTIPOLES')
  commands.

    Psi4 stopped on: Monday, 27 April 2020 05:41AM
    Psi4 wall time for execution: 0:02:12.21

*** Psi4 exiting successfully. Buy a developer a beer!
