                               Psi4 1.3.2 release

  ==> Input File <==

--------------------------------------------------------------------------
import numpy as np
set {scf_type pk
basis cc-pvdz
d_convergence 10
gdma_switch   0
gdma_limit    0
gdma_origin   [ 0.0,  0.0,  0.0 ]
}
molecule test {
    units Angstrom
    -1 1
    --
    -1 1
    C                1.995521807673569     1.308514239228096     0.058154744085944
    C                0.593521807673569     1.235514239228096     0.643154744085944
    O               -0.286478192326431     1.999514239228096     0.199154744085944
    O                0.379521807673569     0.431514239228097     1.573154744085944
    H                2.442521807673570     0.324514239228097     0.104154744085944
    H                2.581521807673569     1.990514239228097     0.678154744085944
    H                2.007001807673569     1.661507239228097    -0.983605255914056
    C               -1.015478192326431    -1.746485760771904    -1.165845255914056
    C               -1.622478192326431    -3.141485760771903    -1.265845255914056
    H               -0.191478192326431    -1.627485760771904    -1.867845255914056
    H               -1.771478192326431    -1.010485760771904    -1.417845255914056
    H               -0.656478192326431    -1.563485760771903    -0.153845255914056
    H               -1.959478192326431    -3.326485760771903    -2.279845255914056
    H               -0.863518192326431    -3.898283760771903    -1.018375255914056
    H               -2.482888192326431    -3.223566760771903    -0.585435255914056

}
e, wfn = energy('scf', return_wfn=True)
gdma(wfn)
dmavals = variable('DMA DISTRIBUTED MULTIPOLES')
charges = np.array(dmavals)
print(charges)
np.save('SSI-073ASP-193VAL-1-dimer.npy', np.array(charges))--------------------------------------------------------------------------

*** tstart() called on ds3
*** at Tue Apr 28 21:41:24 2020

   => Loading Basis Set <=

    Name: CC-PVDZ
    Role: ORBITAL
    Keyword: BASIS
    atoms 1-2, 8-9   entry C          line   138 file /theoryfs2/ds/metcalf/miniconda2/envs/tf2gpu/share/psi4/basis/cc-pvdz.gbs
    atoms 3-4        entry O          line   198 file /theoryfs2/ds/metcalf/miniconda2/envs/tf2gpu/share/psi4/basis/cc-pvdz.gbs
    atoms 5-7, 10-15 entry H          line    22 file /theoryfs2/ds/metcalf/miniconda2/envs/tf2gpu/share/psi4/basis/cc-pvdz.gbs

         ---------------------------------------------------------
                                   SCF
               by Justin Turney, Rob Parrish, Andy Simmonett
                          and Daniel G. A. Smith
                              RHF Reference
                        1 Threads,    500 MiB Core
         ---------------------------------------------------------

  ==> Geometry <==

    Molecular point group: c1
    Full point group: C1

    Geometry (in Angstrom), charge = -1, multiplicity = 1:

       Center              X                  Y                   Z               Mass
    ------------   -----------------  -----------------  -----------------  -----------------
         C            1.995521807674     1.308514239228     0.058154744086    12.000000000000
         C            0.593521807674     1.235514239228     0.643154744086    12.000000000000
         O           -0.286478192326     1.999514239228     0.199154744086    15.994914619570
         O            0.379521807674     0.431514239228     1.573154744086    15.994914619570
         H            2.442521807674     0.324514239228     0.104154744086     1.007825032230
         H            2.581521807674     1.990514239228     0.678154744086     1.007825032230
         H            2.007001807674     1.661507239228    -0.983605255914     1.007825032230
         C           -1.015478192326    -1.746485760772    -1.165845255914    12.000000000000
         C           -1.622478192326    -3.141485760772    -1.265845255914    12.000000000000
         H           -0.191478192326    -1.627485760772    -1.867845255914     1.007825032230
         H           -1.771478192326    -1.010485760772    -1.417845255914     1.007825032230
         H           -0.656478192326    -1.563485760772    -0.153845255914     1.007825032230
         H           -1.959478192326    -3.326485760772    -2.279845255914     1.007825032230
         H           -0.863518192326    -3.898283760772    -1.018375255914     1.007825032230
         H           -2.482888192326    -3.223566760772    -0.585435255914     1.007825032230

  Running in c1 symmetry.

  Rotational constants: A =      0.18313  B =      0.03465  C =      0.03415 [cm^-1]
  Rotational constants: A =   5489.99476  B =   1038.80847  C =   1023.92950 [MHz]
  Nuclear repulsion =  218.989720700090231

  Charge       = -1
  Multiplicity = 1
  Electrons    = 50
  Nalpha       = 25
  Nbeta        = 25

  ==> Algorithm <==

  SCF Algorithm Type is PK.
  DIIS enabled.
  MOM disabled.
  Fractional occupation disabled.
  Guess Type is SAD.
  Energy threshold   = 1.00e-06
  Density threshold  = 1.00e-10
  Integral threshold = 0.00e+00

  ==> Primary Basis <==

  Basis Set: CC-PVDZ
    Blend: CC-PVDZ
    Number of shells: 63
    Number of basis function: 129
    Number of Cartesian functions: 135
    Spherical Harmonics?: true
    Max angular momentum: 2

  ==> Pre-Iterations <==

   -------------------------------------------------------
    Irrep   Nso     Nmo     Nalpha   Nbeta   Ndocc  Nsocc
   -------------------------------------------------------
     A        129     129       0       0       0       0
   -------------------------------------------------------
    Total     129     129      25      25      25       0
   -------------------------------------------------------

  ==> Integral Setup <==

  Using integral reordering PK algorithm.
  Sizing the integral batches needed.
  Building batch lookup table.
   Calculation information:
      Number of atoms:                  15
      Number of AO shells:              63
      Number of primitives:            177
      Number of atomic orbitals:       135
      Number of basis functions:       129

      Integral cutoff                 1.00e-12
      Number of threads:                 1

	Batch   1 pq = [       0,    8385] index = [             0,35158305] size =     35158305
  Task number: 4
  Buffer size: 11059200
  Buffer per thread: 2
  We computed 1580022 shell quartets total.
  Whereas there are 2033136 unique shell quartets.

  ==> DiskJK: Disk-Based J/K Matrices <==

    J tasked:                  Yes
    K tasked:                  Yes
    wK tasked:                  No
    Memory [MiB]:              375
    Schwarz Cutoff:          1E-12

    OpenMP threads:              1

  Minimum eigenvalue in the overlap matrix is 5.3287378128E-03.
  Using Symmetric Orthogonalization.

  SCF Guess: Superposition of Atomic Densities via on-the-fly atomic UHF.

  ==> Iterations <==

                        Total Energy        Delta E     RMS |[F,P]|

   @RHF iter SAD:  -304.86771936595949   -3.04868e+02   0.00000e+00
   @RHF iter   1:  -306.21120970220477   -1.34349e+00   5.65668e-03 DIIS
   @RHF iter   2:  -306.41203219086304   -2.00822e-01   3.15687e-03 DIIS
   @RHF iter   3:  -306.47272346569440   -6.06913e-02   4.69253e-04 DIIS
   @RHF iter   4:  -306.47525441911284   -2.53095e-03   1.75842e-04 DIIS
   @RHF iter   5:  -306.47562736747938   -3.72948e-04   2.53265e-05 DIIS
   @RHF iter   6:  -306.47563763426979   -1.02668e-05   5.60587e-06 DIIS
   @RHF iter   7:  -306.47563812233739   -4.88068e-07   1.79284e-06 DIIS
   @RHF iter   8:  -306.47563817018818   -4.78508e-08   6.86650e-07 DIIS
   @RHF iter   9:  -306.47563817615560   -5.96742e-09   2.64234e-07 DIIS
   @RHF iter  10:  -306.47563817754281   -1.38721e-09   1.08726e-07 DIIS
   @RHF iter  11:  -306.47563817781656   -2.73758e-10   2.74410e-08 DIIS
   @RHF iter  12:  -306.47563817783873   -2.21689e-11   8.26008e-09 DIIS
   @RHF iter  13:  -306.47563817783970   -9.66338e-13   2.54406e-09 DIIS
   @RHF iter  14:  -306.47563817784021   -5.11591e-13   7.86160e-10 DIIS
   @RHF iter  15:  -306.47563817784010    1.13687e-13   2.93594e-10 DIIS
   @RHF iter  16:  -306.47563817783987    2.27374e-13   8.31970e-11 DIIS
  Energy and wave function converged.

  ==> Post-Iterations <==

    Orbital Energies [Eh]
    ---------------------

    Doubly Occupied:

       1A    -20.251539     2A    -20.249957     3A    -11.112287
       4A    -11.108399     5A    -11.086403     6A    -11.045886
       7A     -1.144419     8A     -1.028998     9A     -0.903060
      10A     -0.793600    11A     -0.719088    12A     -0.494268
      13A     -0.483628    14A     -0.482489    15A     -0.410048
      16A     -0.403276    17A     -0.397504    18A     -0.383280
      19A     -0.368210    20A     -0.365970    21A     -0.336926
      22A     -0.298340    23A     -0.177075    24A     -0.164002
      25A     -0.153390

    Virtual:

      26A      0.292993    27A      0.337709    28A      0.359395
      29A      0.362015    30A      0.377504    31A      0.400674
      32A      0.402083    33A      0.417663    34A      0.447157
      35A      0.487708    36A      0.519722    37A      0.576923
      38A      0.671000    39A      0.709874    40A      0.714411
      41A      0.720329    42A      0.757906    43A      0.791882
      44A      0.812372    45A      0.836124    46A      0.877786
      47A      0.937242    48A      0.976895    49A      0.995706
      50A      0.998308    51A      1.016271    52A      1.024052
      53A      1.032435    54A      1.036439    55A      1.042918
      56A      1.053994    57A      1.071729    58A      1.081532
      59A      1.110489    60A      1.150302    61A      1.234213
      62A      1.244228    63A      1.249585    64A      1.328874
      65A      1.347460    66A      1.369270    67A      1.402418
      68A      1.549627    69A      1.567194    70A      1.585713
      71A      1.591500    72A      1.593260    73A      1.619384
      74A      1.665875    75A      1.679289    76A      1.720460
      77A      1.759799    78A      1.785497    79A      1.827781
      80A      1.844234    81A      1.857615    82A      1.971181
      83A      1.985156    84A      2.022587    85A      2.050353
      86A      2.057202    87A      2.067834    88A      2.069973
      89A      2.077180    90A      2.081129    91A      2.095208
      92A      2.122930    93A      2.161447    94A      2.212267
      95A      2.216920    96A      2.227483    97A      2.252723
      98A      2.386469    99A      2.414683   100A      2.432379
     101A      2.440438   102A      2.467602   103A      2.572204
     104A      2.581047   105A      2.598918   106A      2.679384
     107A      2.687158   108A      2.696168   109A      2.721127
     110A      2.791343   111A      2.868835   112A      2.920482
     113A      2.929381   114A      2.966491   115A      2.980354
     116A      2.987254   117A      2.992956   118A      3.067830
     119A      3.089290   120A      3.249582   121A      3.285400
     122A      3.303670   123A      3.371660   124A      3.651500
     125A      3.784320   126A      3.850176   127A      4.078834
     128A      4.087643   129A      4.208308

    Final Occupation by Irrep:
              A
    DOCC [    25 ]

  @RHF Final Energy:  -306.47563817783987

   => Energetics <=

    Nuclear Repulsion Energy =            218.9897207000902313
    One-Electron Energy =                -862.2066337931773887
    Two-Electron Energy =                 336.7412749152473452
    Total Energy =                       -306.4756381778398691

Computation Completed

Properties will be evaluated at   0.000000,   0.000000,   0.000000 [a0]

Properties computed using the SCF density matrix

  Nuclear Dipole Moment: [e a0]
     X:    -0.8379      Y:    -9.9942      Z:    -7.0455

  Electronic Dipole Moment: [e a0]
     X:     1.0720      Y:     8.0503      Z:     5.4958

  Dipole Moment: [e a0]
     X:     0.2341      Y:    -1.9439      Z:    -1.5497     Total:     2.4970

  Dipole Moment: [D]
     X:     0.5950      Y:    -4.9409      Z:    -3.9389     Total:     6.3467

*** tstop() called on ds3 at Tue Apr 28 21:41:41 2020
Module time:
	user time   =      12.07 seconds =       0.20 minutes
	system time =       5.54 seconds =       0.09 minutes
	total time  =         17 seconds =       0.28 minutes
Total time:
	user time   =      12.07 seconds =       0.20 minutes
	system time =       5.54 seconds =       0.09 minutes
	total time  =         17 seconds =       0.28 minutes
                                     G D M A

                                 by Anthony Stone

                           version 2.2.06, 22 June 2011

               Distributed Multipoles from Gaussian wavefunctions

Starting at 21:41:42 on 28 Apr 2020

Using SCF density matrix from file ./SSI/SSI-073ASP-193VAL-1-dimer.test.24422.fchk

                         Distributed Multipole Analysis

Standard DMA

Positions and radii in angstrom
Multipole moments in atomic units, ea_0^k for rank k

C          x =  1.995522  y =  1.308514  z =  0.058155 angstrom
           Maximum rank =  0   Radius =  0.650 angstrom
                   Q00  =  -0.283069

C          x =  0.593522  y =  1.235514  z =  0.643155 angstrom
           Maximum rank =  0   Radius =  0.650 angstrom
                   Q00  =   0.982351

O          x = -0.286478  y =  1.999514  z =  0.199155 angstrom
           Maximum rank =  0   Radius =  0.650 angstrom
                   Q00  =  -0.930847

O          x =  0.379522  y =  0.431514  z =  1.573155 angstrom
           Maximum rank =  0   Radius =  0.650 angstrom
                   Q00  =  -0.945490

H          x =  2.442522  y =  0.324514  z =  0.104155 angstrom
           Maximum rank =  0   Radius =  0.325 angstrom
                   Q00  =   0.054369

H          x =  2.581522  y =  1.990514  z =  0.678155 angstrom
           Maximum rank =  0   Radius =  0.325 angstrom
                   Q00  =   0.078266

H          x =  2.007002  y =  1.661507  z = -0.983605 angstrom
           Maximum rank =  0   Radius =  0.325 angstrom
                   Q00  =   0.049970

C          x = -1.015478  y = -1.746486  z = -1.165845 angstrom
           Maximum rank =  0   Radius =  0.650 angstrom
                   Q00  =  -0.176518

C          x = -1.622478  y = -3.141486  z = -1.265845 angstrom
           Maximum rank =  0   Radius =  0.650 angstrom
                   Q00  =  -0.251215

H          x = -0.191478  y = -1.627486  z = -1.867845 angstrom
           Maximum rank =  0   Radius =  0.325 angstrom
                   Q00  =   0.058638

H          x = -1.771478  y = -1.010486  z = -1.417845 angstrom
           Maximum rank =  0   Radius =  0.325 angstrom
                   Q00  =   0.076749

H          x = -0.656478  y = -1.563486  z = -0.153845 angstrom
           Maximum rank =  0   Radius =  0.325 angstrom
                   Q00  =   0.104586

H          x = -1.959478  y = -3.326486  z = -2.279845 angstrom
           Maximum rank =  0   Radius =  0.325 angstrom
                   Q00  =   0.050419

H          x = -0.863518  y = -3.898284  z = -1.018375 angstrom
           Maximum rank =  0   Radius =  0.325 angstrom
                   Q00  =   0.061570

H          x = -2.482888  y = -3.223567  z = -0.585435 angstrom
           Maximum rank =  0   Radius =  0.325 angstrom
                   Q00  =   0.070221

Total multipoles referred to origin at
           x =   0.000000,  y =    0.000000,  z =    0.000000 angstrom
                   Q00  =  -1.000000

Finished at 21:41:42 on 28 Apr 2020

  DMA results are available in the Python driver through the
	  variable('DMA DISTRIBUTED MULTIPOLES')
  and
	  variable('DMA TOTAL MULTIPOLES')
  commands.

    Psi4 stopped on: Tuesday, 28 April 2020 09:41PM
    Psi4 wall time for execution: 0:00:17.75

*** Psi4 exiting successfully. Buy a developer a beer!
