                               Psi4 1.3.2 release

  ==> Input File <==

--------------------------------------------------------------------------
import numpy as np
set {scf_type pk
basis cc-pvdz
d_convergence 10
gdma_switch   0
gdma_limit    0
gdma_origin   [ 0.0,  0.0,  0.0 ]
}
molecule test {
    units Angstrom
    1 1
    --
    1 1
    C               -2.047489924887617    -2.196177839391658    -0.250811039312016
    N               -0.811489924887617    -1.901177839391658     0.534188960687984
    H               -0.778489924887617    -2.430177839391658     1.405188960687984
    H                0.011510075112383    -2.144177839391658    -0.014811039312016
    H               -0.733489924887617    -0.904177839391658     0.727188960687984
    H               -2.102489924887617    -3.264177839391658    -0.484811039312016
    H               -2.023489924887617    -1.656177839391658    -1.200811039312016
    H               -2.955029924887617    -1.915597839391658     0.303838960687984
    C                1.691510075112383     1.920822160608342     0.664188960687984
    C                0.678510075112383     1.081822160608342    -0.084811039312016
    O               -0.481489924887617     0.978822160608342     0.314188960687984
    N                1.101510075112384     0.478822160608342    -1.178811039312016
    H                1.502510075112383     2.965822160608342     0.422188960687984
    H                2.690510075112383     1.676822160608342     0.310188960687984
    H                0.434510075112383    -0.050177839391658    -1.721811039312016
    H                2.081510075112383     0.564822160608342    -1.442811039312016
    H                1.644080075112383     1.782830160608342     1.754468960687984

}
e, wfn = energy('scf', return_wfn=True)
gdma(wfn)
dmavals = variable('DMA DISTRIBUTED MULTIPOLES')
charges = np.array(dmavals)
print(charges)
np.save('SSI-077LYS-186ASN-2-dimer.npy', np.array(charges))--------------------------------------------------------------------------

*** tstart() called on ds3
*** at Sun Apr 26 23:27:46 2020

   => Loading Basis Set <=

    Name: CC-PVDZ
    Role: ORBITAL
    Keyword: BASIS
    atoms 1, 9-10    entry C          line   138 file /theoryfs2/ds/metcalf/miniconda2/envs/tf2gpu/share/psi4/basis/cc-pvdz.gbs
    atoms 2, 12      entry N          line   168 file /theoryfs2/ds/metcalf/miniconda2/envs/tf2gpu/share/psi4/basis/cc-pvdz.gbs
    atoms 3-8, 13-17 entry H          line    22 file /theoryfs2/ds/metcalf/miniconda2/envs/tf2gpu/share/psi4/basis/cc-pvdz.gbs
    atoms 11         entry O          line   198 file /theoryfs2/ds/metcalf/miniconda2/envs/tf2gpu/share/psi4/basis/cc-pvdz.gbs

         ---------------------------------------------------------
                                   SCF
               by Justin Turney, Rob Parrish, Andy Simmonett
                          and Daniel G. A. Smith
                              RHF Reference
                        1 Threads,    500 MiB Core
         ---------------------------------------------------------

  ==> Geometry <==

    Molecular point group: c1
    Full point group: C1

    Geometry (in Angstrom), charge = 1, multiplicity = 1:

       Center              X                  Y                   Z               Mass
    ------------   -----------------  -----------------  -----------------  -----------------
         C           -2.047489924888    -2.196177839392    -0.250811039312    12.000000000000
         N           -0.811489924888    -1.901177839392     0.534188960688    14.003074004430
         H           -0.778489924888    -2.430177839392     1.405188960688     1.007825032230
         H            0.011510075112    -2.144177839392    -0.014811039312     1.007825032230
         H           -0.733489924888    -0.904177839392     0.727188960688     1.007825032230
         H           -2.102489924888    -3.264177839392    -0.484811039312     1.007825032230
         H           -2.023489924888    -1.656177839392    -1.200811039312     1.007825032230
         H           -2.955029924888    -1.915597839392     0.303838960688     1.007825032230
         C            1.691510075112     1.920822160608     0.664188960688    12.000000000000
         C            0.678510075112     1.081822160608    -0.084811039312    12.000000000000
         O           -0.481489924888     0.978822160608     0.314188960688    15.994914619570
         N            1.101510075112     0.478822160608    -1.178811039312    14.003074004430
         H            1.502510075112     2.965822160608     0.422188960688     1.007825032230
         H            2.690510075112     1.676822160608     0.310188960688     1.007825032230
         H            0.434510075112    -0.050177839392    -1.721811039312     1.007825032230
         H            2.081510075112     0.564822160608    -1.442811039312     1.007825032230
         H            1.644080075112     1.782830160608     1.754468960688     1.007825032230

  Running in c1 symmetry.

  Rotational constants: A =      0.21886  B =      0.04442  C =      0.04208 [cm^-1]
  Rotational constants: A =   6561.35763  B =   1331.54694  C =   1261.48730 [MHz]
  Nuclear repulsion =  252.871476096527658

  Charge       = 1
  Multiplicity = 1
  Electrons    = 50
  Nalpha       = 25
  Nbeta        = 25

  ==> Algorithm <==

  SCF Algorithm Type is PK.
  DIIS enabled.
  MOM disabled.
  Fractional occupation disabled.
  Guess Type is SAD.
  Energy threshold   = 1.00e-06
  Density threshold  = 1.00e-10
  Integral threshold = 0.00e+00

  ==> Primary Basis <==

  Basis Set: CC-PVDZ
    Blend: CC-PVDZ
    Number of shells: 69
    Number of basis function: 139
    Number of Cartesian functions: 145
    Spherical Harmonics?: true
    Max angular momentum: 2

  ==> Pre-Iterations <==

   -------------------------------------------------------
    Irrep   Nso     Nmo     Nalpha   Nbeta   Ndocc  Nsocc
   -------------------------------------------------------
     A        139     139       0       0       0       0
   -------------------------------------------------------
    Total     139     139      25      25      25       0
   -------------------------------------------------------

  ==> Integral Setup <==

  Using integral reordering PK algorithm.
  Sizing the integral batches needed.
  Building batch lookup table.
   Calculation information:
      Number of atoms:                  17
      Number of AO shells:              69
      Number of primitives:            187
      Number of atomic orbitals:       145
      Number of basis functions:       139

      Integral cutoff                 1.00e-12
      Number of threads:                 1

	Batch   1 pq = [       0,    9730] index = [             0,47341315] size =     47341315
  Task number: 5
  Buffer size: 11059200
  Buffer per thread: 2
  We computed 2644723 shell quartets total.
  Whereas there are 2917320 unique shell quartets.

  ==> DiskJK: Disk-Based J/K Matrices <==

    J tasked:                  Yes
    K tasked:                  Yes
    wK tasked:                  No
    Memory [MiB]:              375
    Schwarz Cutoff:          1E-12

    OpenMP threads:              1

  Minimum eigenvalue in the overlap matrix is 4.4478383123E-03.
  Using Symmetric Orthogonalization.

  SCF Guess: Superposition of Atomic Densities via on-the-fly atomic UHF.

  ==> Iterations <==

                        Total Energy        Delta E     RMS |[F,P]|

   @RHF iter SAD:  -302.80898276832806   -3.02809e+02   0.00000e+00
   @RHF iter   1:  -303.41594846566801   -6.06966e-01   4.23603e-03 DIIS
   @RHF iter   2:  -303.56832162374906   -1.52373e-01   2.21352e-03 DIIS
   @RHF iter   3:  -303.60367883704271   -3.53572e-02   5.52041e-04 DIIS
   @RHF iter   4:  -303.60700957910427   -3.33074e-03   1.80681e-04 DIIS
   @RHF iter   5:  -303.60740428163723   -3.94703e-04   3.37631e-05 DIIS
   @RHF iter   6:  -303.60742904681206   -2.47652e-05   1.35716e-05 DIIS
   @RHF iter   7:  -303.60743207203643   -3.02522e-06   4.51304e-06 DIIS
   @RHF iter   8:  -303.60743265617759   -5.84141e-07   1.49651e-06 DIIS
   @RHF iter   9:  -303.60743272666900   -7.04914e-08   3.93833e-07 DIIS
   @RHF iter  10:  -303.60743273159466   -4.92565e-09   9.82034e-08 DIIS
   @RHF iter  11:  -303.60743273182550   -2.30841e-10   2.83242e-08 DIIS
   @RHF iter  12:  -303.60743273184107   -1.55751e-11   8.47797e-09 DIIS
   @RHF iter  13:  -303.60743273184352   -2.44427e-12   2.64793e-09 DIIS
   @RHF iter  14:  -303.60743273184301    5.11591e-13   1.12606e-09 DIIS
   @RHF iter  15:  -303.60743273184374   -7.38964e-13   4.77028e-10 DIIS
   @RHF iter  16:  -303.60743273184539   -1.64846e-12   1.79087e-10 DIIS
   @RHF iter  17:  -303.60743273184471    6.82121e-13   7.87545e-11 DIIS
  Energy and wave function converged.

  ==> Post-Iterations <==

    Orbital Energies [Eh]
    ---------------------

    Doubly Occupied:

       1A    -20.662543     2A    -15.880845     3A    -15.743506
       4A    -11.499937     5A    -11.472959     6A    -11.366182
       7A     -1.529998     8A     -1.497042     9A     -1.372161
      10A     -1.146175    11A     -1.131972    12A     -0.961324
      13A     -0.952551    14A     -0.943704    15A     -0.879444
      16A     -0.842625    17A     -0.804361    18A     -0.755377
      19A     -0.749131    20A     -0.742600    21A     -0.719209
      22A     -0.685047    23A     -0.660909    24A     -0.567314
      25A     -0.564228

    Virtual:

      26A     -0.035383    27A      0.018893    28A      0.038516
      29A      0.050282    30A      0.053906    31A      0.072400
      32A      0.091421    33A      0.104650    34A      0.133132
      35A      0.138162    36A      0.160630    37A      0.166378
      38A      0.184840    39A      0.256442    40A      0.344473
      41A      0.385743    42A      0.404814    43A      0.411259
      44A      0.444933    45A      0.494679    46A      0.518004
      47A      0.522171    48A      0.533724    49A      0.569304
      50A      0.596588    51A      0.607000    52A      0.630489
      53A      0.673787    54A      0.674331    55A      0.697487
      56A      0.704383    57A      0.713244    58A      0.739227
      59A      0.757078    60A      0.769679    61A      0.793982
      62A      0.803256    63A      0.815328    64A      0.854005
      65A      0.866962    66A      0.886888    67A      0.908779
      68A      0.940103    69A      0.969673    70A      0.996360
      71A      1.040843    72A      1.088918    73A      1.177110
      74A      1.216874    75A      1.255073    76A      1.266038
      77A      1.273765    78A      1.295326    79A      1.308014
      80A      1.347620    81A      1.353592    82A      1.481690
      83A      1.498653    84A      1.532315    85A      1.547040
      86A      1.585373    87A      1.644417    88A      1.667251
      89A      1.683303    90A      1.700376    91A      1.706497
      92A      1.727954    93A      1.733495    94A      1.747999
      95A      1.759540    96A      1.769847    97A      1.780978
      98A      1.808962    99A      1.840746   100A      1.899700
     101A      1.911802   102A      1.946686   103A      1.955946
     104A      1.969818   105A      1.981490   106A      2.010242
     107A      2.051375   108A      2.103358   109A      2.148996
     110A      2.161066   111A      2.255792   112A      2.266045
     113A      2.289416   114A      2.310399   115A      2.320652
     116A      2.369990   117A      2.429826   118A      2.433612
     119A      2.481184   120A      2.491296   121A      2.511413
     122A      2.547036   123A      2.604891   124A      2.642196
     125A      2.683034   126A      2.718926   127A      2.739284
     128A      2.742832   129A      2.785398   130A      2.823546
     131A      2.945122   132A      2.974433   133A      3.104283
     134A      3.137992   135A      3.159706   136A      3.353097
     137A      3.371676   138A      3.714667   139A      3.772315

    Final Occupation by Irrep:
              A
    DOCC [    25 ]

  @RHF Final Energy:  -303.60743273184471

   => Energetics <=

    Nuclear Repulsion Energy =            252.8714760965276582
    One-Electron Energy =                -904.6955333881701335
    Two-Electron Energy =                 348.2166245597977650
    Total Energy =                       -303.6074327318447104

Computation Completed

Properties will be evaluated at   0.000000,   0.000000,   0.000000 [a0]

Properties computed using the SCF density matrix

  Nuclear Dipole Moment: [e a0]
     X:    -0.2172      Y:    -5.0295      Z:     0.0578

  Electronic Dipole Moment: [e a0]
     X:     0.2817      Y:     1.9680      Z:    -0.1912

  Dipole Moment: [e a0]
     X:     0.0644      Y:    -3.0614      Z:    -0.1335     Total:     3.0650

  Dipole Moment: [D]
     X:     0.1638      Y:    -7.7814      Z:    -0.3393     Total:     7.7905

*** tstop() called on ds3 at Sun Apr 26 23:28:42 2020
Module time:
	user time   =      17.16 seconds =       0.29 minutes
	system time =       6.28 seconds =       0.10 minutes
	total time  =         56 seconds =       0.93 minutes
Total time:
	user time   =      17.16 seconds =       0.29 minutes
	system time =       6.28 seconds =       0.10 minutes
	total time  =         56 seconds =       0.93 minutes
                                     G D M A

                                 by Anthony Stone

                           version 2.2.06, 22 June 2011

               Distributed Multipoles from Gaussian wavefunctions

Starting at 23:28:42 on 26 Apr 2020

Using SCF density matrix from file ./SSI/SSI-077LYS-186ASN-2-dimer.test.32180.fchk

                         Distributed Multipole Analysis

Standard DMA

Positions and radii in angstrom
Multipole moments in atomic units, ea_0^k for rank k

C          x = -2.047490  y = -2.196178  z = -0.250811 angstrom
           Maximum rank =  0   Radius =  0.650 angstrom
                   Q00  =  -0.147733

N          x = -0.811490  y = -1.901178  z =  0.534189 angstrom
           Maximum rank =  0   Radius =  0.650 angstrom
                   Q00  =  -0.146732

H          x = -0.778490  y = -2.430178  z =  1.405189 angstrom
           Maximum rank =  0   Radius =  0.325 angstrom
                   Q00  =   0.254168

H          x =  0.011510  y = -2.144178  z = -0.014811 angstrom
           Maximum rank =  0   Radius =  0.325 angstrom
                   Q00  =   0.237887

H          x = -0.733490  y = -0.904178  z =  0.727189 angstrom
           Maximum rank =  0   Radius =  0.325 angstrom
                   Q00  =   0.294256

H          x = -2.102490  y = -3.264178  z = -0.484811 angstrom
           Maximum rank =  0   Radius =  0.325 angstrom
                   Q00  =   0.151008

H          x = -2.023490  y = -1.656178  z = -1.200811 angstrom
           Maximum rank =  0   Radius =  0.325 angstrom
                   Q00  =   0.154537

H          x = -2.955030  y = -1.915598  z =  0.303839 angstrom
           Maximum rank =  0   Radius =  0.325 angstrom
                   Q00  =   0.169190

C          x =  1.691510  y =  1.920822  z =  0.664189 angstrom
           Maximum rank =  0   Radius =  0.650 angstrom
                   Q00  =  -0.254367

C          x =  0.678510  y =  1.081822  z = -0.084811 angstrom
           Maximum rank =  0   Radius =  0.650 angstrom
                   Q00  =   0.786263

O          x = -0.481490  y =  0.978822  z =  0.314189 angstrom
           Maximum rank =  0   Radius =  0.650 angstrom
                   Q00  =  -0.832178

N          x =  1.101510  y =  0.478822  z = -1.178811 angstrom
           Maximum rank =  0   Radius =  0.650 angstrom
                   Q00  =  -0.525606

H          x =  1.502510  y =  2.965822  z =  0.422189 angstrom
           Maximum rank =  0   Radius =  0.325 angstrom
                   Q00  =   0.163938

H          x =  2.690510  y =  1.676822  z =  0.310189 angstrom
           Maximum rank =  0   Radius =  0.325 angstrom
                   Q00  =   0.089082

H          x =  0.434510  y = -0.050178  z = -1.721811 angstrom
           Maximum rank =  0   Radius =  0.325 angstrom
                   Q00  =   0.217296

H          x =  2.081510  y =  0.564822  z = -1.442811 angstrom
           Maximum rank =  0   Radius =  0.325 angstrom
                   Q00  =   0.246871

H          x =  1.644080  y =  1.782830  z =  1.754469 angstrom
           Maximum rank =  0   Radius =  0.325 angstrom
                   Q00  =   0.142120

Total multipoles referred to origin at
           x =   0.000000,  y =    0.000000,  z =    0.000000 angstrom
                   Q00  =   1.000000

Finished at 23:28:42 on 26 Apr 2020

  DMA results are available in the Python driver through the
	  variable('DMA DISTRIBUTED MULTIPOLES')
  and
	  variable('DMA TOTAL MULTIPOLES')
  commands.

    Psi4 stopped on: Sunday, 26 April 2020 11:28PM
    Psi4 wall time for execution: 0:00:55.75

*** Psi4 exiting successfully. Buy a developer a beer!
