                               Psi4 1.3.2 release

  ==> Input File <==

--------------------------------------------------------------------------
import numpy as np
set {scf_type pk
basis cc-pvdz
d_convergence 10
gdma_switch   0
gdma_limit    0
gdma_origin   [ 0.0,  0.0,  0.0 ]
}
molecule test {
    units Angstrom
    0 1
    --
    0 1
    C                1.130705243533911    -3.054049967003044     1.608214697771746
    C               -0.124294756466089    -2.783049967003044     2.437214697771745
    H                0.909705243533911    -2.910049967003044     0.551214697771745
    H                1.917705243533911    -2.363049967003044     1.901214697771746
    H                1.472705243533911    -4.075049967003044     1.769214697771745
    H               -0.446294756466089    -1.761049967003044     2.236214697771746
    H               -0.915014756466089    -3.485433567003044     2.134859697771745
    H                0.101555243533911    -2.886956967003043     3.508752697771746
    C               -1.974294756466089     2.069950032996957     0.554214697771746
    C                1.147705243533911     0.023950032996956    -0.188785302228254
    C                0.104705243533911     0.658950032996956     0.499214697771746
    C                1.218705243533911     0.104950032996956    -1.579785302228255
    C               -0.869294756466089     1.378950032996957    -0.193785302228255
    C                0.242705243533911     0.821950032996956    -2.280785302228255
    C               -0.798294756466089     1.456950032996956    -1.585785302228254
    H                1.906705243533911    -0.515049967003044     0.358214697771746
    H                0.063705243533911     0.594950032996956     1.577214697771746
    H                2.029705243533911    -0.376049967003044    -2.110785302228254
    H                0.288705243533911     0.892950032996956    -3.354785302228255
    H               -2.197294756466089     3.014950032996956     0.054214697771746
    H               -1.627294756466089     2.303950032996957     1.562214697771746
    H               -1.542294756466089     2.011950032996956    -2.135785302228255
    H               -2.895164756466089     1.474558032996957     0.640817197771746

}
e, wfn = energy('scf', return_wfn=True)
gdma(wfn)
dmavals = variable('DMA DISTRIBUTED MULTIPOLES')
charges = np.array(dmavals)
print(charges)
np.save('SSI-138LEU-149PHE-1-dimer.npy', np.array(charges))--------------------------------------------------------------------------

*** tstart() called on ds3
*** at Tue Apr 28 20:04:44 2020

   => Loading Basis Set <=

    Name: CC-PVDZ
    Role: ORBITAL
    Keyword: BASIS
    atoms 1-2, 9-15  entry C          line   138 file /theoryfs2/ds/metcalf/miniconda2/envs/tf2gpu/share/psi4/basis/cc-pvdz.gbs
    atoms 3-8, 16-23 entry H          line    22 file /theoryfs2/ds/metcalf/miniconda2/envs/tf2gpu/share/psi4/basis/cc-pvdz.gbs

         ---------------------------------------------------------
                                   SCF
               by Justin Turney, Rob Parrish, Andy Simmonett
                          and Daniel G. A. Smith
                              RHF Reference
                        1 Threads,    500 MiB Core
         ---------------------------------------------------------

  ==> Geometry <==

    Molecular point group: c1
    Full point group: C1

    Geometry (in Angstrom), charge = 0, multiplicity = 1:

       Center              X                  Y                   Z               Mass
    ------------   -----------------  -----------------  -----------------  -----------------
         C            1.130705243534    -3.054049967003     1.608214697772    12.000000000000
         C           -0.124294756466    -2.783049967003     2.437214697772    12.000000000000
         H            0.909705243534    -2.910049967003     0.551214697772     1.007825032230
         H            1.917705243534    -2.363049967003     1.901214697772     1.007825032230
         H            1.472705243534    -4.075049967003     1.769214697772     1.007825032230
         H           -0.446294756466    -1.761049967003     2.236214697772     1.007825032230
         H           -0.915014756466    -3.485433567003     2.134859697772     1.007825032230
         H            0.101555243534    -2.886956967003     3.508752697772     1.007825032230
         C           -1.974294756466     2.069950032997     0.554214697772    12.000000000000
         C            1.147705243534     0.023950032997    -0.188785302228    12.000000000000
         C            0.104705243534     0.658950032997     0.499214697772    12.000000000000
         C            1.218705243534     0.104950032997    -1.579785302228    12.000000000000
         C           -0.869294756466     1.378950032997    -0.193785302228    12.000000000000
         C            0.242705243534     0.821950032997    -2.280785302228    12.000000000000
         C           -0.798294756466     1.456950032997    -1.585785302228    12.000000000000
         H            1.906705243534    -0.515049967003     0.358214697772     1.007825032230
         H            0.063705243534     0.594950032997     1.577214697772     1.007825032230
         H            2.029705243534    -0.376049967003    -2.110785302228     1.007825032230
         H            0.288705243534     0.892950032997    -3.354785302228     1.007825032230
         H           -2.197294756466     3.014950032997     0.054214697772     1.007825032230
         H           -1.627294756466     2.303950032997     1.562214697772     1.007825032230
         H           -1.542294756466     2.011950032997    -2.135785302228     1.007825032230
         H           -2.895164756466     1.474558032997     0.640817197772     1.007825032230

  Running in c1 symmetry.

  Rotational constants: A =      0.06937  B =      0.02731  C =      0.02107 [cm^-1]
  Rotational constants: A =   2079.64392  B =    818.71034  C =    631.78473 [MHz]
  Nuclear repulsion =  408.482075687392637

  Charge       = 0
  Multiplicity = 1
  Electrons    = 68
  Nalpha       = 34
  Nbeta        = 34

  ==> Algorithm <==

  SCF Algorithm Type is PK.
  DIIS enabled.
  MOM disabled.
  Fractional occupation disabled.
  Guess Type is SAD.
  Energy threshold   = 1.00e-06
  Density threshold  = 1.00e-10
  Integral threshold = 0.00e+00

  ==> Primary Basis <==

  Basis Set: CC-PVDZ
    Blend: CC-PVDZ
    Number of shells: 96
    Number of basis function: 196
    Number of Cartesian functions: 205
    Spherical Harmonics?: true
    Max angular momentum: 2

  ==> Pre-Iterations <==

   -------------------------------------------------------
    Irrep   Nso     Nmo     Nalpha   Nbeta   Ndocc  Nsocc
   -------------------------------------------------------
     A        196     196       0       0       0       0
   -------------------------------------------------------
    Total     196     196      34      34      34       0
   -------------------------------------------------------

  ==> Integral Setup <==

  Using integral reordering PK algorithm.
  Sizing the integral batches needed.
  Building batch lookup table.
   Calculation information:
      Number of atoms:                  23
      Number of AO shells:              96
      Number of primitives:            268
      Number of atomic orbitals:       205
      Number of basis functions:       196

      Integral cutoff                 1.00e-12
      Number of threads:                 1

	Batch   1 pq = [       0,    9405] index = [             0,44231715] size =     44231715
	Batch   2 pq = [    9405,   13301] index = [      44231715,88464951] size =     44233236
	Batch   3 pq = [   13301,   16290] index = [      88464951,132690195] size =     44225244
	Batch   4 pq = [   16290,   18810] index = [     132690195,176917455] size =     44227260
	Batch   5 pq = [   18810,   19306] index = [     176917455,186370471] size =      9453016
  Task number: 17
  Buffer size: 11059200
  Buffer per thread: 2
  We computed 9497826 shell quartets total.
  Whereas there are 10841496 unique shell quartets.

  ==> DiskJK: Disk-Based J/K Matrices <==

    J tasked:                  Yes
    K tasked:                  Yes
    wK tasked:                  No
    Memory [MiB]:              375
    Schwarz Cutoff:          1E-12

    OpenMP threads:              1

  Minimum eigenvalue in the overlap matrix is 3.1833224138E-04.
  Using Symmetric Orthogonalization.

  SCF Guess: Superposition of Atomic Densities via on-the-fly atomic UHF.

  ==> Iterations <==

                        Total Energy        Delta E     RMS |[F,P]|

   @RHF iter SAD:  -347.82999280867745   -3.47830e+02   0.00000e+00
   @RHF iter   1:  -348.76813455243905   -9.38142e-01   2.87897e-03 DIIS
   @RHF iter   2:  -348.95946103083270   -1.91326e-01   1.19027e-03 DIIS
   @RHF iter   3:  -348.98922538870136   -2.97644e-02   2.59218e-04 DIIS
   @RHF iter   4:  -348.99170070884389   -2.47532e-03   5.56529e-05 DIIS
   @RHF iter   5:  -348.99177934807483   -7.86392e-05   1.91957e-05 DIIS
   @RHF iter   6:  -348.99178829093091   -8.94286e-06   4.90254e-06 DIIS
   @RHF iter   7:  -348.99178897647005   -6.85539e-07   1.17590e-06 DIIS
   @RHF iter   8:  -348.99178902066836   -4.41983e-08   2.73396e-07 DIIS
   @RHF iter   9:  -348.99178902445880   -3.79043e-09   1.02608e-07 DIIS
   @RHF iter  10:  -348.99178902510090   -6.42103e-10   4.74264e-08 DIIS
   @RHF iter  11:  -348.99178902530127   -2.00373e-10   1.95907e-08 DIIS
   @RHF iter  12:  -348.99178902534180   -4.05294e-11   1.02699e-08 DIIS
   @RHF iter  13:  -348.99178902535141   -9.60654e-12   4.07750e-09 DIIS
   @RHF iter  14:  -348.99178902535226   -8.52651e-13   1.13306e-09 DIIS
   @RHF iter  15:  -348.99178902535289   -6.25278e-13   3.51136e-10 DIIS
   @RHF iter  16:  -348.99178902535300   -1.13687e-13   1.23789e-10 DIIS
   @RHF iter  17:  -348.99178902535238    6.25278e-13   5.52107e-11 DIIS
  Energy and wave function converged.

  ==> Post-Iterations <==

    Orbital Energies [Eh]
    ---------------------

    Doubly Occupied:

       1A    -11.241577     2A    -11.237990     3A    -11.236727
       4A    -11.233136     5A    -11.232148     6A    -11.231875
       7A    -11.229606     8A    -11.216963     9A    -11.214044
      10A     -1.149666    11A     -1.043941    12A     -1.017713
      13A     -1.008613    14A     -0.930557    15A     -0.834536
      16A     -0.824740    17A     -0.794458    18A     -0.690055
      19A     -0.632791    20A     -0.629430    21A     -0.600670
      22A     -0.597342    23A     -0.579194    24A     -0.576506
      25A     -0.562946    26A     -0.534633    27A     -0.496185
      28A     -0.490847    29A     -0.486217    30A     -0.483084
      31A     -0.481760    32A     -0.478497    33A     -0.329914
      34A     -0.322173

    Virtual:

      35A      0.132631    36A      0.138398    37A      0.174780
      38A      0.196775    39A      0.203316    40A      0.223610
      41A      0.235486    42A      0.239676    43A      0.255530
      44A      0.262162    45A      0.263487    46A      0.281670
      47A      0.282478    48A      0.284952    49A      0.326359
      50A      0.344503    51A      0.366412    52A      0.378475
      53A      0.399928    54A      0.451599    55A      0.460202
      56A      0.480695    57A      0.488101    58A      0.559903
      59A      0.589677    60A      0.600319    61A      0.608435
      62A      0.614212    63A      0.642226    64A      0.673189
      65A      0.682305    66A      0.691976    67A      0.694850
      68A      0.710576    69A      0.716851    70A      0.741159
      71A      0.743872    72A      0.749094    73A      0.757504
      74A      0.773410    75A      0.782568    76A      0.809443
      77A      0.837825    78A      0.853072    79A      0.856090
      80A      0.865676    81A      0.876016    82A      0.882463
      83A      0.891675    84A      0.899938    85A      0.904788
      86A      0.909866    87A      0.918671    88A      0.924164
      89A      0.934775    90A      0.939339    91A      0.963419
      92A      0.980911    93A      0.990358    94A      1.003696
      95A      1.028832    96A      1.058575    97A      1.115524
      98A      1.122385    99A      1.131306   100A      1.149358
     101A      1.154727   102A      1.176814   103A      1.187574
     104A      1.223430   105A      1.240143   106A      1.247522
     107A      1.255950   108A      1.270471   109A      1.297066
     110A      1.304880   111A      1.322838   112A      1.343022
     113A      1.412316   114A      1.479275   115A      1.489995
     116A      1.512000   117A      1.514799   118A      1.556519
     119A      1.595371   120A      1.615334   121A      1.680720
     122A      1.685266   123A      1.695932   124A      1.700635
     125A      1.735433   126A      1.748397   127A      1.762980
     128A      1.790918   129A      1.805893   130A      1.854031
     131A      1.858531   132A      1.868319   133A      1.877227
     134A      1.892774   135A      1.906912   136A      1.909787
     137A      1.919321   138A      1.925287   139A      1.939814
     140A      1.944676   141A      1.950034   142A      1.954737
     143A      1.960725   144A      1.975987   145A      1.977550
     146A      1.984656   147A      1.997671   148A      2.022899
     149A      2.040098   150A      2.058353   151A      2.064152
     152A      2.106126   153A      2.115940   154A      2.123010
     155A      2.142278   156A      2.152487   157A      2.159951
     158A      2.167461   159A      2.183252   160A      2.252545
     161A      2.281001   162A      2.286215   163A      2.297300
     164A      2.308140   165A      2.311545   166A      2.321809
     167A      2.327328   168A      2.463794   169A      2.467990
     170A      2.474437   171A      2.480572   172A      2.492645
     173A      2.539855   174A      2.571975   175A      2.580596
     176A      2.621318   177A      2.741980   178A      2.748946
     179A      2.764995   180A      2.769225   181A      2.779143
     182A      2.800127   183A      2.815495   184A      2.845917
     185A      2.849232   186A      2.858380   187A      2.867715
     188A      2.955928   189A      2.972084   190A      2.977075
     191A      3.003300   192A      3.023906   193A      3.149735
     194A      3.191488   195A      3.288563   196A      3.950609

    Final Occupation by Irrep:
              A
    DOCC [    34 ]

  @RHF Final Energy:  -348.99178902535238

   => Energetics <=

    Nuclear Repulsion Energy =            408.4820756873926371
    One-Electron Energy =               -1279.6466666238748076
    Two-Electron Energy =                 522.1728019111299091
    Total Energy =                       -348.9917890253523183

Computation Completed

Properties will be evaluated at   0.000000,   0.000000,   0.000000 [a0]

Properties computed using the SCF density matrix

  Nuclear Dipole Moment: [e a0]
     X:    -0.8745      Y:    -7.5742      Z:     8.1492

  Electronic Dipole Moment: [e a0]
     X:     0.7802      Y:     7.6593      Z:    -8.1343

  Dipole Moment: [e a0]
     X:    -0.0943      Y:     0.0851      Z:     0.0149     Total:     0.1279

  Dipole Moment: [D]
     X:    -0.2397      Y:     0.2163      Z:     0.0379     Total:     0.3251

*** tstop() called on ds3 at Tue Apr 28 20:06:15 2020
Module time:
	user time   =      64.85 seconds =       1.08 minutes
	system time =      29.49 seconds =       0.49 minutes
	total time  =         91 seconds =       1.52 minutes
Total time:
	user time   =      64.85 seconds =       1.08 minutes
	system time =      29.49 seconds =       0.49 minutes
	total time  =         91 seconds =       1.52 minutes
                                     G D M A

                                 by Anthony Stone

                           version 2.2.06, 22 June 2011

               Distributed Multipoles from Gaussian wavefunctions

Starting at 20:6:15 on 28 Apr 2020

Using SCF density matrix from file ./SSI/SSI-138LEU-149PHE-1-dimer.test.28863.fchk

                         Distributed Multipole Analysis

Standard DMA

Positions and radii in angstrom
Multipole moments in atomic units, ea_0^k for rank k

C          x =  1.130705  y = -3.054050  z =  1.608215 angstrom
           Maximum rank =  0   Radius =  0.650 angstrom
                   Q00  =  -0.238638

C          x = -0.124295  y = -2.783050  z =  2.437215 angstrom
           Maximum rank =  0   Radius =  0.650 angstrom
                   Q00  =  -0.231442

H          x =  0.909705  y = -2.910050  z =  0.551215 angstrom
           Maximum rank =  0   Radius =  0.325 angstrom
                   Q00  =   0.085634

H          x =  1.917705  y = -2.363050  z =  1.901215 angstrom
           Maximum rank =  0   Radius =  0.325 angstrom
                   Q00  =   0.071607

H          x =  1.472705  y = -4.075050  z =  1.769215 angstrom
           Maximum rank =  0   Radius =  0.325 angstrom
                   Q00  =   0.078275

H          x = -0.446295  y = -1.761050  z =  2.236215 angstrom
           Maximum rank =  0   Radius =  0.325 angstrom
                   Q00  =   0.080415

H          x = -0.915015  y = -3.485434  z =  2.134860 angstrom
           Maximum rank =  0   Radius =  0.325 angstrom
                   Q00  =   0.080112

H          x =  0.101555  y = -2.886957  z =  3.508753 angstrom
           Maximum rank =  0   Radius =  0.325 angstrom
                   Q00  =   0.075214

C          x = -1.974295  y =  2.069950  z =  0.554215 angstrom
           Maximum rank =  0   Radius =  0.650 angstrom
                   Q00  =  -0.198599

C          x =  1.147705  y =  0.023950  z = -0.188785 angstrom
           Maximum rank =  0   Radius =  0.650 angstrom
                   Q00  =  -0.079074

C          x =  0.104705  y =  0.658950  z =  0.499215 angstrom
           Maximum rank =  0   Radius =  0.650 angstrom
                   Q00  =  -0.025085

C          x =  1.218705  y =  0.104950  z = -1.579785 angstrom
           Maximum rank =  0   Radius =  0.650 angstrom
                   Q00  =  -0.080327

C          x = -0.869295  y =  1.378950  z = -0.193785 angstrom
           Maximum rank =  0   Radius =  0.650 angstrom
                   Q00  =  -0.096890

C          x =  0.242705  y =  0.821950  z = -2.280785 angstrom
           Maximum rank =  0   Radius =  0.650 angstrom
                   Q00  =  -0.077457

C          x = -0.798295  y =  1.456950  z = -1.585785 angstrom
           Maximum rank =  0   Radius =  0.650 angstrom
                   Q00  =  -0.061723

H          x =  1.906705  y = -0.515050  z =  0.358215 angstrom
           Maximum rank =  0   Radius =  0.325 angstrom
                   Q00  =   0.069426

H          x =  0.063705  y =  0.594950  z =  1.577215 angstrom
           Maximum rank =  0   Radius =  0.325 angstrom
                   Q00  =   0.059865

H          x =  2.029705  y = -0.376050  z = -2.110785 angstrom
           Maximum rank =  0   Radius =  0.325 angstrom
                   Q00  =   0.062930

H          x =  0.288705  y =  0.892950  z = -3.354785 angstrom
           Maximum rank =  0   Radius =  0.325 angstrom
                   Q00  =   0.066845

H          x = -2.197295  y =  3.014950  z =  0.054215 angstrom
           Maximum rank =  0   Radius =  0.325 angstrom
                   Q00  =   0.098084

H          x = -1.627295  y =  2.303950  z =  1.562215 angstrom
           Maximum rank =  0   Radius =  0.325 angstrom
                   Q00  =   0.096741

H          x = -1.542295  y =  2.011950  z = -2.135785 angstrom
           Maximum rank =  0   Radius =  0.325 angstrom
                   Q00  =   0.058295

H          x = -2.895165  y =  1.474558  z =  0.640817 angstrom
           Maximum rank =  0   Radius =  0.325 angstrom
                   Q00  =   0.105789

Total multipoles referred to origin at
           x =   0.000000,  y =    0.000000,  z =    0.000000 angstrom
                   Q00  =  -0.000000

Finished at 20:6:15 on 28 Apr 2020

  DMA results are available in the Python driver through the
	  variable('DMA DISTRIBUTED MULTIPOLES')
  and
	  variable('DMA TOTAL MULTIPOLES')
  commands.

    Psi4 stopped on: Tuesday, 28 April 2020 08:06PM
    Psi4 wall time for execution: 0:01:31.33

*** Psi4 exiting successfully. Buy a developer a beer!
