                               Psi4 1.3.2 release

  ==> Input File <==

--------------------------------------------------------------------------
import numpy as np
set {scf_type pk
basis cc-pvdz
d_convergence 10
gdma_switch   0
gdma_limit    0
gdma_origin   [ 0.0,  0.0,  0.0 ]
}
molecule test {
    units Angstrom
    0 1
    --
    0 1
    C                3.128377417363225    -0.556163351818747     2.256843773400344
    C                1.915377417363225    -0.747163351818747     0.091843773400344
    N                0.874377417363225    -0.065163351818747     0.549843773400344
    N                2.972377417363225    -1.003163351818747     0.867843773400344
    N                1.919377417363225    -1.140163351818747    -1.170156226599656
    H                0.871377417363225     0.307836648181253     1.488843773400344
    H                0.006377417363225     0.019836648181253     0.017843773400344
    H                3.722377417363225    -1.567163351818747     0.459843773400344
    H                2.728377417363225    -1.663163351818747    -1.521156226599656
    H                1.133377417363225    -0.956163351818747    -1.766156226599656
    H                2.162377417363225    -0.393163351818747     2.735843773400344
    H                3.677377417363225     0.386836648181253     2.267843773400344
    H                3.685967417363225    -1.295333351818747     2.850746773400343
    C               -4.072622582636775     0.742836648181253    -0.268156226599656
    C               -2.616622582636775     0.889836648181253    -0.657156226599656
    O               -1.753622582636775     0.157836648181253    -0.110156226599656
    O               -2.353622582636775     1.719836648181253    -1.549156226599656
    H               -4.590622582636775     0.279836648181253    -1.109156226599656
    H               -4.517622582636775     1.722836648181253    -0.105156226599656
    H               -4.218492582636776     0.121826648181253     0.627981773400344

}
e, wfn = energy('scf', return_wfn=True)
gdma(wfn)
dmavals = variable('DMA DISTRIBUTED MULTIPOLES')
charges = np.array(dmavals)
print(charges)
np.save('SSI-156ARG-171ASP-1-dimer.npy', np.array(charges))--------------------------------------------------------------------------

*** tstart() called on ds3
*** at Tue Apr 28 03:26:30 2020

   => Loading Basis Set <=

    Name: CC-PVDZ
    Role: ORBITAL
    Keyword: BASIS
    atoms 1-2, 14-15  entry C          line   138 file /theoryfs2/ds/metcalf/miniconda2/envs/tf2gpu/share/psi4/basis/cc-pvdz.gbs
    atoms 3-5         entry N          line   168 file /theoryfs2/ds/metcalf/miniconda2/envs/tf2gpu/share/psi4/basis/cc-pvdz.gbs
    atoms 6-13, 18-20 entry H          line    22 file /theoryfs2/ds/metcalf/miniconda2/envs/tf2gpu/share/psi4/basis/cc-pvdz.gbs
    atoms 16-17       entry O          line   198 file /theoryfs2/ds/metcalf/miniconda2/envs/tf2gpu/share/psi4/basis/cc-pvdz.gbs

         ---------------------------------------------------------
                                   SCF
               by Justin Turney, Rob Parrish, Andy Simmonett
                          and Daniel G. A. Smith
                              RHF Reference
                        1 Threads,    500 MiB Core
         ---------------------------------------------------------

  ==> Geometry <==

    Molecular point group: c1
    Full point group: C1

    Geometry (in Angstrom), charge = 0, multiplicity = 1:

       Center              X                  Y                   Z               Mass
    ------------   -----------------  -----------------  -----------------  -----------------
         C            3.128377417363    -0.556163351819     2.256843773400    12.000000000000
         C            1.915377417363    -0.747163351819     0.091843773400    12.000000000000
         N            0.874377417363    -0.065163351819     0.549843773400    14.003074004430
         N            2.972377417363    -1.003163351819     0.867843773400    14.003074004430
         N            1.919377417363    -1.140163351819    -1.170156226600    14.003074004430
         H            0.871377417363     0.307836648181     1.488843773400     1.007825032230
         H            0.006377417363     0.019836648181     0.017843773400     1.007825032230
         H            3.722377417363    -1.567163351819     0.459843773400     1.007825032230
         H            2.728377417363    -1.663163351819    -1.521156226600     1.007825032230
         H            1.133377417363    -0.956163351819    -1.766156226600     1.007825032230
         H            2.162377417363    -0.393163351819     2.735843773400     1.007825032230
         H            3.677377417363     0.386836648181     2.267843773400     1.007825032230
         H            3.685967417363    -1.295333351819     2.850746773400     1.007825032230
         C           -4.072622582637     0.742836648181    -0.268156226600    12.000000000000
         C           -2.616622582637     0.889836648181    -0.657156226600    12.000000000000
         O           -1.753622582637     0.157836648181    -0.110156226600    15.994914619570
         O           -2.353622582637     1.719836648181    -1.549156226600    15.994914619570
         H           -4.590622582637     0.279836648181    -1.109156226600     1.007825032230
         H           -4.517622582637     1.722836648181    -0.105156226600     1.007825032230
         H           -4.218492582637     0.121826648181     0.627981773400     1.007825032230

  Running in c1 symmetry.

  Rotational constants: A =      0.11828  B =      0.01591  C =      0.01481 [cm^-1]
  Rotational constants: A =   3545.89487  B =    477.10846  C =    443.99480 [MHz]
  Nuclear repulsion =  438.153760748211823

  Charge       = 0
  Multiplicity = 1
  Electrons    = 72
  Nalpha       = 36
  Nbeta        = 36

  ==> Algorithm <==

  SCF Algorithm Type is PK.
  DIIS enabled.
  MOM disabled.
  Fractional occupation disabled.
  Guess Type is SAD.
  Energy threshold   = 1.00e-06
  Density threshold  = 1.00e-10
  Integral threshold = 0.00e+00

  ==> Primary Basis <==

  Basis Set: CC-PVDZ
    Blend: CC-PVDZ
    Number of shells: 87
    Number of basis function: 181
    Number of Cartesian functions: 190
    Spherical Harmonics?: true
    Max angular momentum: 2

  ==> Pre-Iterations <==

   -------------------------------------------------------
    Irrep   Nso     Nmo     Nalpha   Nbeta   Ndocc  Nsocc
   -------------------------------------------------------
     A        181     181       0       0       0       0
   -------------------------------------------------------
    Total     181     181      36      36      36       0
   -------------------------------------------------------

  ==> Integral Setup <==

  Using integral reordering PK algorithm.
  Sizing the integral batches needed.
  Building batch lookup table.
   Calculation information:
      Number of atoms:                  20
      Number of AO shells:              87
      Number of primitives:            253
      Number of atomic orbitals:       190
      Number of basis functions:       181

      Integral cutoff                 1.00e-12
      Number of threads:                 1

	Batch   1 pq = [       0,    9405] index = [             0,44231715] size =     44231715
	Batch   2 pq = [    9405,   13301] index = [      44231715,88464951] size =     44233236
	Batch   3 pq = [   13301,   16471] index = [      88464951,135655156] size =     47190205
  Task number: 13
  Buffer size: 11059200
  Buffer per thread: 2
  We computed 5013850 shell quartets total.
  Whereas there are 7328706 unique shell quartets.

  ==> DiskJK: Disk-Based J/K Matrices <==

    J tasked:                  Yes
    K tasked:                  Yes
    wK tasked:                  No
    Memory [MiB]:              375
    Schwarz Cutoff:          1E-12

    OpenMP threads:              1

  Minimum eigenvalue in the overlap matrix is 3.8600873882E-03.
  Using Symmetric Orthogonalization.

  SCF Guess: Superposition of Atomic Densities via on-the-fly atomic UHF.

  ==> Iterations <==

                        Total Energy        Delta E     RMS |[F,P]|

   @RHF iter SAD:  -469.62162917518998   -4.69622e+02   0.00000e+00
   @RHF iter   1:  -470.67959351316551   -1.05796e+00   4.26643e-03 DIIS
   @RHF iter   2:  -470.90803819840301   -2.28445e-01   2.24275e-03 DIIS
   @RHF iter   3:  -470.96783506589890   -5.97969e-02   3.93935e-04 DIIS
   @RHF iter   4:  -470.97114895991524   -3.31389e-03   1.41309e-04 DIIS
   @RHF iter   5:  -470.97155438556189   -4.05426e-04   2.78597e-05 DIIS
   @RHF iter   6:  -470.97157756366136   -2.31781e-05   1.43332e-05 DIIS
   @RHF iter   7:  -470.97158173749654   -4.17384e-06   3.74705e-06 DIIS
   @RHF iter   8:  -470.97158242197429   -6.84478e-07   1.78016e-06 DIIS
   @RHF iter   9:  -470.97158253516682   -1.13193e-07   6.15517e-07 DIIS
   @RHF iter  10:  -470.97158255601448   -2.08477e-08   2.07510e-07 DIIS
   @RHF iter  11:  -470.97158255804487   -2.03039e-09   5.31377e-08 DIIS
   @RHF iter  12:  -470.97158255813969   -9.48148e-11   1.95302e-08 DIIS
   @RHF iter  13:  -470.97158255815191   -1.22213e-11   5.23073e-09 DIIS
   @RHF iter  14:  -470.97158255815418   -2.27374e-12   1.44181e-09 DIIS
   @RHF iter  15:  -470.97158255815208    2.10321e-12   5.83193e-10 DIIS
   @RHF iter  16:  -470.97158255815611   -4.03588e-12   1.83609e-10 DIIS
   @RHF iter  17:  -470.97158255815236    3.75167e-12   7.49762e-11 DIIS
  Energy and wave function converged.

  ==> Post-Iterations <==

    Orbital Energies [Eh]
    ---------------------

    Doubly Occupied:

       1A    -20.403190     2A    -20.380185     3A    -15.668649
       4A    -15.658927     5A    -15.620353     6A    -11.454319
       7A    -11.339636     8A    -11.241932     9A    -11.151004
      10A     -1.405694    11A     -1.281266    12A     -1.274073
      13A     -1.237672    14A     -1.168072    15A     -1.028070
      16A     -0.904064    17A     -0.898419    18A     -0.836836
      19A     -0.808796    20A     -0.721441    21A     -0.702107
      22A     -0.700149    23A     -0.678608    24A     -0.623760
      25A     -0.618683    26A     -0.617804    27A     -0.532280
      28A     -0.520326    29A     -0.518796    30A     -0.474064
      31A     -0.460501    32A     -0.454007    33A     -0.426673
      34A     -0.319956    35A     -0.297357    36A     -0.295616

    Virtual:

      37A      0.103952    38A      0.138876    39A      0.153897
      40A      0.163298    41A      0.199409    42A      0.207796
      43A      0.214456    44A      0.258580    45A      0.264526
      46A      0.295223    47A      0.298132    48A      0.323232
      49A      0.371168    50A      0.375508    51A      0.405041
      52A      0.462022    53A      0.467858    54A      0.476468
      55A      0.539530    56A      0.567460    57A      0.583725
      58A      0.608189    59A      0.627532    60A      0.656299
      61A      0.673094    62A      0.679130    63A      0.695323
      64A      0.710375    65A      0.718672    66A      0.778849
      67A      0.784624    68A      0.802319    69A      0.812721
      70A      0.813821    71A      0.832298    72A      0.843178
      73A      0.855889    74A      0.881367    75A      0.885384
      76A      0.930179    77A      0.939209    78A      0.941086
      79A      0.952541    80A      0.968086    81A      0.976537
      82A      0.995211    83A      1.018766    84A      1.031122
      85A      1.054719    86A      1.101133    87A      1.110934
      88A      1.128453    89A      1.183016    90A      1.223573
      91A      1.235325    92A      1.239361    93A      1.257992
      94A      1.270284    95A      1.298476    96A      1.323322
      97A      1.345025    98A      1.395742    99A      1.431320
     100A      1.437320   101A      1.471189   102A      1.481191
     103A      1.486975   104A      1.513398   105A      1.535454
     106A      1.597194   107A      1.608254   108A      1.614244
     109A      1.638220   110A      1.641818   111A      1.670111
     112A      1.696771   113A      1.744133   114A      1.750144
     115A      1.777296   116A      1.787535   117A      1.825488
     118A      1.850002   119A      1.852159   120A      1.871345
     121A      1.883575   122A      1.902167   123A      1.920449
     124A      1.945562   125A      1.977297   126A      1.983401
     127A      1.993808   128A      2.000191   129A      2.029089
     130A      2.061261   131A      2.096121   132A      2.105729
     133A      2.137331   134A      2.148503   135A      2.180695
     136A      2.216803   137A      2.233874   138A      2.252279
     139A      2.263535   140A      2.310545   141A      2.335891
     142A      2.355625   143A      2.399522   144A      2.446240
     145A      2.459163   146A      2.483043   147A      2.490136
     148A      2.528636   149A      2.555928   150A      2.558838
     151A      2.583570   152A      2.610768   153A      2.634242
     154A      2.680476   155A      2.706526   156A      2.728473
     157A      2.753783   158A      2.819325   159A      2.842027
     160A      2.866456   161A      2.871212   162A      2.891547
     163A      2.922675   164A      2.928314   165A      3.003989
     166A      3.017481   167A      3.107192   168A      3.140256
     169A      3.161120   170A      3.188197   171A      3.205442
     172A      3.225165   173A      3.334460   174A      3.496285
     175A      3.651793   176A      3.680896   177A      3.720457
     178A      3.793958   179A      3.938819   180A      3.962869
     181A      4.082847

    Final Occupation by Irrep:
              A
    DOCC [    36 ]

  @RHF Final Energy:  -470.97158255815236

   => Energetics <=

    Nuclear Repulsion Energy =            438.1537607482118233
    One-Electron Energy =               -1512.8041180295354025
    Two-Electron Energy =                 603.6787747231711592
    Total Energy =                       -470.9715825581523632

Computation Completed

Properties will be evaluated at   0.000000,   0.000000,   0.000000 [a0]

Properties computed using the SCF density matrix

  Nuclear Dipole Moment: [e a0]
     X:     4.3329      Y:    -2.8307      Z:     5.5667

  Electronic Dipole Moment: [e a0]
     X:     1.6646      Y:     0.0807      Z:    -3.7934

  Dipole Moment: [e a0]
     X:     5.9976      Y:    -2.7500      Z:     1.7734     Total:     6.8321

  Dipole Moment: [D]
     X:    15.2443      Y:    -6.9898      Z:     4.5074     Total:    17.3655

*** tstop() called on ds3 at Tue Apr 28 03:27:27 2020
Module time:
	user time   =      38.52 seconds =       0.64 minutes
	system time =      20.72 seconds =       0.35 minutes
	total time  =         57 seconds =       0.95 minutes
Total time:
	user time   =      38.52 seconds =       0.64 minutes
	system time =      20.72 seconds =       0.35 minutes
	total time  =         57 seconds =       0.95 minutes
                                     G D M A

                                 by Anthony Stone

                           version 2.2.06, 22 June 2011

               Distributed Multipoles from Gaussian wavefunctions

Starting at 3:27:27 on 28 Apr 2020

Using SCF density matrix from file ./SSI/SSI-156ARG-171ASP-1-dimer.test.9818.fchk

                         Distributed Multipole Analysis

Standard DMA

Positions and radii in angstrom
Multipole moments in atomic units, ea_0^k for rank k

C          x =  3.128377  y = -0.556163  z =  2.256844 angstrom
           Maximum rank =  0   Radius =  0.650 angstrom
                   Q00  =  -0.110194

C          x =  1.915377  y = -0.747163  z =  0.091844 angstrom
           Maximum rank =  0   Radius =  0.650 angstrom
                   Q00  =   1.063641

N          x =  0.874377  y = -0.065163  z =  0.549844 angstrom
           Maximum rank =  0   Radius =  0.650 angstrom
                   Q00  =  -0.581123

N          x =  2.972377  y = -1.003163  z =  0.867844 angstrom
           Maximum rank =  0   Radius =  0.650 angstrom
                   Q00  =  -0.500468

N          x =  1.919377  y = -1.140163  z = -1.170156 angstrom
           Maximum rank =  0   Radius =  0.650 angstrom
                   Q00  =  -0.589643

H          x =  0.871377  y =  0.307837  z =  1.488844 angstrom
           Maximum rank =  0   Radius =  0.325 angstrom
                   Q00  =   0.241504

H          x =  0.006377  y =  0.019837  z =  0.017844 angstrom
           Maximum rank =  0   Radius =  0.325 angstrom
                   Q00  =   0.329780

H          x =  3.722377  y = -1.567163  z =  0.459844 angstrom
           Maximum rank =  0   Radius =  0.325 angstrom
                   Q00  =   0.210726

H          x =  2.728377  y = -1.663163  z = -1.521156 angstrom
           Maximum rank =  0   Radius =  0.325 angstrom
                   Q00  =   0.237773

H          x =  1.133377  y = -0.956163  z = -1.766156 angstrom
           Maximum rank =  0   Radius =  0.325 angstrom
                   Q00  =   0.284270

H          x =  2.162377  y = -0.393163  z =  2.735844 angstrom
           Maximum rank =  0   Radius =  0.325 angstrom
                   Q00  =   0.116645

H          x =  3.677377  y =  0.386837  z =  2.267844 angstrom
           Maximum rank =  0   Radius =  0.325 angstrom
                   Q00  =   0.114369

H          x =  3.685967  y = -1.295333  z =  2.850747 angstrom
           Maximum rank =  0   Radius =  0.325 angstrom
                   Q00  =   0.133907

C          x = -4.072623  y =  0.742837  z = -0.268156 angstrom
           Maximum rank =  0   Radius =  0.650 angstrom
                   Q00  =  -0.279840

C          x = -2.616623  y =  0.889837  z = -0.657156 angstrom
           Maximum rank =  0   Radius =  0.650 angstrom
                   Q00  =   0.939030

O          x = -1.753623  y =  0.157837  z = -0.110156 angstrom
           Maximum rank =  0   Radius =  0.650 angstrom
                   Q00  =  -0.968651

O          x = -2.353623  y =  1.719837  z = -1.549156 angstrom
           Maximum rank =  0   Radius =  0.650 angstrom
                   Q00  =  -0.889849

H          x = -4.590623  y =  0.279837  z = -1.109156 angstrom
           Maximum rank =  0   Radius =  0.325 angstrom
                   Q00  =   0.098305

H          x = -4.517623  y =  1.722837  z = -0.105156 angstrom
           Maximum rank =  0   Radius =  0.325 angstrom
                   Q00  =   0.090027

H          x = -4.218493  y =  0.121827  z =  0.627982 angstrom
           Maximum rank =  0   Radius =  0.325 angstrom
                   Q00  =   0.059792

Total multipoles referred to origin at
           x =   0.000000,  y =    0.000000,  z =    0.000000 angstrom
                   Q00  =  -0.000000

Finished at 3:27:27 on 28 Apr 2020

  DMA results are available in the Python driver through the
	  variable('DMA DISTRIBUTED MULTIPOLES')
  and
	  variable('DMA TOTAL MULTIPOLES')
  commands.

    Psi4 stopped on: Tuesday, 28 April 2020 03:27AM
    Psi4 wall time for execution: 0:00:57.11

*** Psi4 exiting successfully. Buy a developer a beer!
