                               Psi4 1.3.2 release

  ==> Input File <==

--------------------------------------------------------------------------
import numpy as np
set {scf_type pk
basis cc-pvdz
d_convergence 10
gdma_switch   0
gdma_limit    0
gdma_origin   [ 0.0,  0.0,  0.0 ]
}
molecule test {
    units Angstrom
    0 1
    --
    0 1
    C                0.558498175726256     1.711679011216843    -2.885393772020099
    O                0.041498175726256     1.671679011216843    -1.570393772020098
    H               -0.466501824273744     2.487679011216843    -1.446393772020098
    H                1.478498175726256     1.125679011216843    -2.921393772020098
    H                0.797498175726256     2.740679011216844    -3.158393772020098
    H               -0.165601824273744     1.298529011216843    -3.603015772020099
    C               -0.524501824273744    -1.146320988783157     0.049606227979902
    C               -1.979501824273744    -1.394320988783157     0.480606227979902
    C                0.360498175726256    -0.608320988783157     1.160606227979902
    O                0.581498175726256    -1.268320988783157     2.171606227979902
    N                0.909498175726256     0.576679011216843     0.963606227979902
    H               -0.092501824273744    -2.093320988783157    -0.271393772020098
    H               -0.504501824273744    -0.488320988783157    -0.803393772020098
    H               -1.997501824273744    -2.154320988783157     1.265606227979902
    H                1.527498175726256     0.953679011216843     1.667606227979902
    H                0.747498175726256     1.061679011216843     0.085606227979902
    H               -2.533391824273744    -1.753520988783157    -0.399273772020098
    H               -2.442871824273744    -0.479110988783157     0.877680227979902

}
e, wfn = energy('scf', return_wfn=True)
gdma(wfn)
dmavals = variable('DMA DISTRIBUTED MULTIPOLES')
charges = np.array(dmavals)
print(charges)
np.save('SSI-016SER-031ASN-2-dimer.npy', np.array(charges))--------------------------------------------------------------------------

*** tstart() called on ds3
*** at Tue Apr 28 21:06:03 2020

   => Loading Basis Set <=

    Name: CC-PVDZ
    Role: ORBITAL
    Keyword: BASIS
    atoms 1, 7-9     entry C          line   138 file /theoryfs2/ds/metcalf/miniconda2/envs/tf2gpu/share/psi4/basis/cc-pvdz.gbs
    atoms 2, 10      entry O          line   198 file /theoryfs2/ds/metcalf/miniconda2/envs/tf2gpu/share/psi4/basis/cc-pvdz.gbs
    atoms 3-6, 12-18 entry H          line    22 file /theoryfs2/ds/metcalf/miniconda2/envs/tf2gpu/share/psi4/basis/cc-pvdz.gbs
    atoms 11         entry N          line   168 file /theoryfs2/ds/metcalf/miniconda2/envs/tf2gpu/share/psi4/basis/cc-pvdz.gbs

         ---------------------------------------------------------
                                   SCF
               by Justin Turney, Rob Parrish, Andy Simmonett
                          and Daniel G. A. Smith
                              RHF Reference
                        1 Threads,    500 MiB Core
         ---------------------------------------------------------

  ==> Geometry <==

    Molecular point group: c1
    Full point group: C1

    Geometry (in Angstrom), charge = 0, multiplicity = 1:

       Center              X                  Y                   Z               Mass
    ------------   -----------------  -----------------  -----------------  -----------------
         C            0.558498175726     1.711679011217    -2.885393772020    12.000000000000
         O            0.041498175726     1.671679011217    -1.570393772020    15.994914619570
         H           -0.466501824274     2.487679011217    -1.446393772020     1.007825032230
         H            1.478498175726     1.125679011217    -2.921393772020     1.007825032230
         H            0.797498175726     2.740679011217    -3.158393772020     1.007825032230
         H           -0.165601824274     1.298529011217    -3.603015772020     1.007825032230
         C           -0.524501824274    -1.146320988783     0.049606227980    12.000000000000
         C           -1.979501824274    -1.394320988783     0.480606227980    12.000000000000
         C            0.360498175726    -0.608320988783     1.160606227980    12.000000000000
         O            0.581498175726    -1.268320988783     2.171606227980    15.994914619570
         N            0.909498175726     0.576679011217     0.963606227980    14.003074004430
         H           -0.092501824274    -2.093320988783    -0.271393772020     1.007825032230
         H           -0.504501824274    -0.488320988783    -0.803393772020     1.007825032230
         H           -1.997501824274    -2.154320988783     1.265606227980     1.007825032230
         H            1.527498175726     0.953679011217     1.667606227980     1.007825032230
         H            0.747498175726     1.061679011217     0.085606227980     1.007825032230
         H           -2.533391824274    -1.753520988783    -0.399273772020     1.007825032230
         H           -2.442871824274    -0.479110988783     0.877680227980     1.007825032230

  Running in c1 symmetry.

  Rotational constants: A =      0.11630  B =      0.03802  C =      0.03085 [cm^-1]
  Rotational constants: A =   3486.71302  B =   1139.69020  C =    924.94816 [MHz]
  Nuclear repulsion =  311.579235962180178

  Charge       = 0
  Multiplicity = 1
  Electrons    = 58
  Nalpha       = 29
  Nbeta        = 29

  ==> Algorithm <==

  SCF Algorithm Type is PK.
  DIIS enabled.
  MOM disabled.
  Fractional occupation disabled.
  Guess Type is SAD.
  Energy threshold   = 1.00e-06
  Density threshold  = 1.00e-10
  Integral threshold = 0.00e+00

  ==> Primary Basis <==

  Basis Set: CC-PVDZ
    Blend: CC-PVDZ
    Number of shells: 75
    Number of basis function: 153
    Number of Cartesian functions: 160
    Spherical Harmonics?: true
    Max angular momentum: 2

  ==> Pre-Iterations <==

   -------------------------------------------------------
    Irrep   Nso     Nmo     Nalpha   Nbeta   Ndocc  Nsocc
   -------------------------------------------------------
     A        153     153       0       0       0       0
   -------------------------------------------------------
    Total     153     153      29      29      29       0
   -------------------------------------------------------

  ==> Integral Setup <==

  Using integral reordering PK algorithm.
  Sizing the integral batches needed.
  Building batch lookup table.
   Calculation information:
      Number of atoms:                  18
      Number of AO shells:              75
      Number of primitives:            209
      Number of atomic orbitals:       160
      Number of basis functions:       153

      Integral cutoff                 1.00e-12
      Number of threads:                 1

	Batch   1 pq = [       0,    9405] index = [             0,44231715] size =     44231715
	Batch   2 pq = [    9405,   11781] index = [      44231715,69401871] size =     25170156
  Task number: 7
  Buffer size: 11059200
  Buffer per thread: 2
  We computed 3761294 shell quartets total.
  Whereas there are 4062675 unique shell quartets.

  ==> DiskJK: Disk-Based J/K Matrices <==

    J tasked:                  Yes
    K tasked:                  Yes
    wK tasked:                  No
    Memory [MiB]:              375
    Schwarz Cutoff:          1E-12

    OpenMP threads:              1

  Minimum eigenvalue in the overlap matrix is 3.8981560961E-03.
  Using Symmetric Orthogonalization.

  SCF Guess: Superposition of Atomic Densities via on-the-fly atomic UHF.

  ==> Iterations <==

                        Total Energy        Delta E     RMS |[F,P]|

   @RHF iter SAD:  -360.74126164373996   -3.60741e+02   0.00000e+00
   @RHF iter   1:  -361.85831204839275   -1.11705e+00   4.28865e-03 DIIS
   @RHF iter   2:  -362.03381548529256   -1.75503e-01   2.35361e-03 DIIS
   @RHF iter   3:  -362.08160969024613   -4.77942e-02   4.80338e-04 DIIS
   @RHF iter   4:  -362.08484008354395   -3.23039e-03   1.94851e-04 DIIS
   @RHF iter   5:  -362.08536659352393   -5.26510e-04   3.60907e-05 DIIS
   @RHF iter   6:  -362.08539927296329   -3.26794e-05   1.65943e-05 DIIS
   @RHF iter   7:  -362.08540535740974   -6.08445e-06   6.22859e-06 DIIS
   @RHF iter   8:  -362.08540663790581   -1.28050e-06   2.25538e-06 DIIS
   @RHF iter   9:  -362.08540680930901   -1.71403e-07   6.54087e-07 DIIS
   @RHF iter  10:  -362.08540682210145   -1.27924e-08   2.22492e-07 DIIS
   @RHF iter  11:  -362.08540682324661   -1.14517e-09   5.15949e-08 DIIS
   @RHF iter  12:  -362.08540682332188   -7.52607e-11   1.68286e-08 DIIS
   @RHF iter  13:  -362.08540682332693   -5.05906e-12   5.21546e-09 DIIS
   @RHF iter  14:  -362.08540682332938   -2.44427e-12   1.76594e-09 DIIS
   @RHF iter  15:  -362.08540682332750    1.87583e-12   7.16768e-10 DIIS
   @RHF iter  16:  -362.08540682332824   -7.38964e-13   3.18526e-10 DIIS
   @RHF iter  17:  -362.08540682332813    1.13687e-13   1.34049e-10 DIIS
   @RHF iter  18:  -362.08540682332955   -1.42109e-12   3.35449e-11 DIIS
  Energy and wave function converged.

  ==> Post-Iterations <==

    Orbital Energies [Eh]
    ---------------------

    Doubly Occupied:

       1A    -20.594581     2A    -20.478111     3A    -15.557277
       4A    -11.319344     5A    -11.303544     6A    -11.218436
       7A    -11.216189     8A     -1.395475     9A     -1.344647
      10A     -1.189674    11A     -1.028822    12A     -0.950855
      13A     -0.871145    14A     -0.765159    15A     -0.724493
      16A     -0.701008    17A     -0.651749    18A     -0.643609
      19A     -0.623374    20A     -0.597851    21A     -0.567625
      22A     -0.547464    23A     -0.531874    24A     -0.505742
      25A     -0.487302    26A     -0.479027    27A     -0.473164
      28A     -0.383687    29A     -0.377642

    Virtual:

      30A      0.151503    31A      0.193976    32A      0.196926
      33A      0.220442    34A      0.241896    35A      0.246350
      36A      0.251507    37A      0.254450    38A      0.272692
      39A      0.291534    40A      0.313061    41A      0.340504
      42A      0.375703    43A      0.398102    44A      0.435420
      45A      0.484999    46A      0.584114    47A      0.600516
      48A      0.611370    49A      0.636372    50A      0.642869
      51A      0.678275    52A      0.691164    53A      0.711130
      54A      0.738300    55A      0.765236    56A      0.786976
      57A      0.813912    58A      0.836034    59A      0.848458
      60A      0.865198    61A      0.870979    62A      0.876894
      63A      0.894719    64A      0.908475    65A      0.908631
      66A      0.932975    67A      0.944631    68A      0.967010
      69A      1.006376    70A      1.042504    71A      1.055687
      72A      1.080599    73A      1.113400    74A      1.123518
      75A      1.130379    76A      1.177107    77A      1.189343
      78A      1.284710    79A      1.319603    80A      1.337150
      81A      1.361880    82A      1.401924    83A      1.405178
      84A      1.429500    85A      1.477134    86A      1.493811
      87A      1.519633    88A      1.524752    89A      1.545741
      90A      1.619626    91A      1.642333    92A      1.657534
      93A      1.671494    94A      1.684389    95A      1.761624
      96A      1.796070    97A      1.826269    98A      1.861920
      99A      1.874925   100A      1.879697   101A      1.897789
     102A      1.906958   103A      1.907292   104A      1.926669
     105A      1.950612   106A      1.958062   107A      1.971203
     108A      1.996231   109A      1.999814   110A      2.016780
     111A      2.032089   112A      2.072254   113A      2.090428
     114A      2.104259   115A      2.173156   116A      2.192029
     117A      2.258219   118A      2.277202   119A      2.311022
     120A      2.326031   121A      2.352308   122A      2.369093
     123A      2.438956   124A      2.464454   125A      2.481298
     126A      2.510386   127A      2.550650   128A      2.574213
     129A      2.625101   130A      2.651315   131A      2.688333
     132A      2.731817   133A      2.739155   134A      2.749691
     135A      2.764273   136A      2.793823   137A      2.856029
     138A      2.893598   139A      2.926124   140A      2.998639
     141A      3.021257   142A      3.127664   143A      3.156864
     144A      3.267584   145A      3.329251   146A      3.372023
     147A      3.442278   148A      3.544017   149A      3.549039
     150A      3.572617   151A      3.897479   152A      3.940896
     153A      4.056947

    Final Occupation by Irrep:
              A
    DOCC [    29 ]

  @RHF Final Energy:  -362.08540682332955

   => Energetics <=

    Nuclear Repulsion Energy =            311.5792359621801779
    One-Electron Energy =               -1112.2715375717191364
    Two-Electron Energy =                 438.6068947862094092
    Total Energy =                       -362.0854068233295493

Computation Completed

Properties will be evaluated at   0.000000,   0.000000,   0.000000 [a0]

Properties computed using the SCF density matrix

  Nuclear Dipole Moment: [e a0]
     X:    -3.4232      Y:     2.5308      Z:    -8.1622

  Electronic Dipole Moment: [e a0]
     X:     3.2538      Y:    -0.6388      Z:     6.0362

  Dipole Moment: [e a0]
     X:    -0.1694      Y:     1.8920      Z:    -2.1260     Total:     2.8510

  Dipole Moment: [D]
     X:    -0.4306      Y:     4.8089      Z:    -5.4038     Total:     7.2465

*** tstop() called on ds3 at Tue Apr 28 21:06:45 2020
Module time:
	user time   =      26.14 seconds =       0.44 minutes
	system time =      10.22 seconds =       0.17 minutes
	total time  =         42 seconds =       0.70 minutes
Total time:
	user time   =      26.14 seconds =       0.44 minutes
	system time =      10.22 seconds =       0.17 minutes
	total time  =         42 seconds =       0.70 minutes
                                     G D M A

                                 by Anthony Stone

                           version 2.2.06, 22 June 2011

               Distributed Multipoles from Gaussian wavefunctions

Starting at 21:6:45 on 28 Apr 2020

Using SCF density matrix from file ./SSI/SSI-016SER-031ASN-2-dimer.test.8774.fchk

                         Distributed Multipole Analysis

Standard DMA

Positions and radii in angstrom
Multipole moments in atomic units, ea_0^k for rank k

C          x =  0.558498  y =  1.711679  z = -2.885394 angstrom
           Maximum rank =  0   Radius =  0.650 angstrom
                   Q00  =  -0.062249

O          x =  0.041498  y =  1.671679  z = -1.570394 angstrom
           Maximum rank =  0   Radius =  0.650 angstrom
                   Q00  =  -0.610951

H          x = -0.466502  y =  2.487679  z = -1.446394 angstrom
           Maximum rank =  0   Radius =  0.325 angstrom
                   Q00  =   0.404410

H          x =  1.478498  y =  1.125679  z = -2.921394 angstrom
           Maximum rank =  0   Radius =  0.325 angstrom
                   Q00  =   0.115039

H          x =  0.797498  y =  2.740679  z = -3.158394 angstrom
           Maximum rank =  0   Radius =  0.325 angstrom
                   Q00  =   0.085787

H          x = -0.165602  y =  1.298529  z = -3.603016 angstrom
           Maximum rank =  0   Radius =  0.325 angstrom
                   Q00  =   0.087852

C          x = -0.524502  y = -1.146321  z =  0.049606 angstrom
           Maximum rank =  0   Radius =  0.650 angstrom
                   Q00  =  -0.130610

C          x = -1.979502  y = -1.394321  z =  0.480606 angstrom
           Maximum rank =  0   Radius =  0.650 angstrom
                   Q00  =  -0.213803

C          x =  0.360498  y = -0.608321  z =  1.160606 angstrom
           Maximum rank =  0   Radius =  0.650 angstrom
                   Q00  =   0.830338

O          x =  0.581498  y = -1.268321  z =  2.171606 angstrom
           Maximum rank =  0   Radius =  0.650 angstrom
                   Q00  =  -0.833071

N          x =  0.909498  y =  0.576679  z =  0.963606 angstrom
           Maximum rank =  0   Radius =  0.650 angstrom
                   Q00  =  -0.541877

H          x = -0.092502  y = -2.093321  z = -0.271394 angstrom
           Maximum rank =  0   Radius =  0.325 angstrom
                   Q00  =   0.092472

H          x = -0.504502  y = -0.488321  z = -0.803394 angstrom
           Maximum rank =  0   Radius =  0.325 angstrom
                   Q00  =   0.062739

H          x = -1.997502  y = -2.154321  z =  1.265606 angstrom
           Maximum rank =  0   Radius =  0.325 angstrom
                   Q00  =   0.103280

H          x =  1.527498  y =  0.953679  z =  1.667606 angstrom
           Maximum rank =  0   Radius =  0.325 angstrom
                   Q00  =   0.203322

H          x =  0.747498  y =  1.061679  z =  0.085606 angstrom
           Maximum rank =  0   Radius =  0.325 angstrom
                   Q00  =   0.253025

H          x = -2.533392  y = -1.753521  z = -0.399274 angstrom
           Maximum rank =  0   Radius =  0.325 angstrom
                   Q00  =   0.077848

H          x = -2.442872  y = -0.479111  z =  0.877680 angstrom
           Maximum rank =  0   Radius =  0.325 angstrom
                   Q00  =   0.076449

Total multipoles referred to origin at
           x =   0.000000,  y =    0.000000,  z =    0.000000 angstrom
                   Q00  =  -0.000000

Finished at 21:6:45 on 28 Apr 2020

  DMA results are available in the Python driver through the
	  variable('DMA DISTRIBUTED MULTIPOLES')
  and
	  variable('DMA TOTAL MULTIPOLES')
  commands.

    Psi4 stopped on: Tuesday, 28 April 2020 09:06PM
    Psi4 wall time for execution: 0:00:42.00

*** Psi4 exiting successfully. Buy a developer a beer!
