                               Psi4 1.3.2 release

  ==> Input File <==

--------------------------------------------------------------------------
import numpy as np
set {scf_type pk
basis cc-pvdz
d_convergence 10
gdma_switch   0
gdma_limit    0
gdma_origin   [ 0.0,  0.0,  0.0 ]
}
molecule test {
    units Angstrom
    0 1
    --
    0 1
    C                2.192012304867711    -0.153883262671579    -2.075495439289690
    C                3.553012304867711     0.514116737328421    -2.126495439289689
    C                2.382012304867711    -1.309883262671579    -3.024495439289690
    H                1.401012304867711     0.517116737328421    -2.409495439289690
    H                1.989012304867711    -0.520883262671579    -1.066495439289690
    H                3.634012304867711     1.160116737328421    -2.999495439289690
    H                3.697012304867711     1.079116737328421    -1.210495439289690
    H                2.364012304867711    -0.968883262671579    -4.060495439289689
    H                1.645012304867711    -2.060883262671579    -2.829495439289689
    H                4.239972304867712    -0.341396262671579    -2.205155439289689
    H                3.373232304867711    -1.691178262671579    -2.737985439289690
    C               -3.302987695132289    -1.016883262671579     0.358504560710310
    C               -0.178987695132289     1.157116737328421     0.427504560710310
    C               -1.326987695132289     0.498116737328421    -0.022495439289690
    C                0.221012304867711     1.036116737328421     1.757504560710310
    C               -2.081987695132289    -0.286883262671579     0.852504560710310
    C               -0.530987695132289     0.255116737328421     2.638504560710311
    C               -1.678987695132289    -0.402883262671579     2.183504560710311
    H                0.403012304867711     1.757116737328421    -0.256495439289690
    H               -1.624987695132289     0.593116737328421    -1.057495439289690
    H                1.107012304867711     1.549116737328421     2.108504560710310
    H               -0.222987695132289     0.163116737328421     3.671504560710311
    H               -3.533987695132289    -1.845883262671579     1.025504560710310
    H               -3.055987695132289    -1.450883262671579    -0.612495439289690
    H               -2.256987695132289    -1.010883262671579     2.862504560710311
    H               -4.193987695132289    -0.382916262671579     0.239321560710310

}
e, wfn = energy('scf', return_wfn=True)
gdma(wfn)
dmavals = variable('DMA DISTRIBUTED MULTIPOLES')
charges = np.array(dmavals)
print(charges)
np.save('SSI-099PRO-164PHE-1-dimer.npy', np.array(charges))--------------------------------------------------------------------------

*** tstart() called on ds3
*** at Sun Apr 26 22:18:00 2020

   => Loading Basis Set <=

    Name: CC-PVDZ
    Role: ORBITAL
    Keyword: BASIS
    atoms 1-3, 12-18  entry C          line   138 file /theoryfs2/ds/metcalf/miniconda2/envs/tf2gpu/share/psi4/basis/cc-pvdz.gbs
    atoms 4-11, 19-26 entry H          line    22 file /theoryfs2/ds/metcalf/miniconda2/envs/tf2gpu/share/psi4/basis/cc-pvdz.gbs

         ---------------------------------------------------------
                                   SCF
               by Justin Turney, Rob Parrish, Andy Simmonett
                          and Daniel G. A. Smith
                              RHF Reference
                        1 Threads,    500 MiB Core
         ---------------------------------------------------------

  ==> Geometry <==

    Molecular point group: c1
    Full point group: C1

    Geometry (in Angstrom), charge = 0, multiplicity = 1:

       Center              X                  Y                   Z               Mass
    ------------   -----------------  -----------------  -----------------  -----------------
         C            2.192012304868    -0.153883262672    -2.075495439290    12.000000000000
         C            3.553012304868     0.514116737328    -2.126495439290    12.000000000000
         C            2.382012304868    -1.309883262672    -3.024495439290    12.000000000000
         H            1.401012304868     0.517116737328    -2.409495439290     1.007825032230
         H            1.989012304868    -0.520883262672    -1.066495439290     1.007825032230
         H            3.634012304868     1.160116737328    -2.999495439290     1.007825032230
         H            3.697012304868     1.079116737328    -1.210495439290     1.007825032230
         H            2.364012304868    -0.968883262672    -4.060495439290     1.007825032230
         H            1.645012304868    -2.060883262672    -2.829495439290     1.007825032230
         H            4.239972304868    -0.341396262672    -2.205155439290     1.007825032230
         H            3.373232304868    -1.691178262672    -2.737985439290     1.007825032230
         C           -3.302987695132    -1.016883262672     0.358504560710    12.000000000000
         C           -0.178987695132     1.157116737328     0.427504560710    12.000000000000
         C           -1.326987695132     0.498116737328    -0.022495439290    12.000000000000
         C            0.221012304868     1.036116737328     1.757504560710    12.000000000000
         C           -2.081987695132    -0.286883262672     0.852504560710    12.000000000000
         C           -0.530987695132     0.255116737328     2.638504560710    12.000000000000
         C           -1.678987695132    -0.402883262672     2.183504560710    12.000000000000
         H            0.403012304868     1.757116737328    -0.256495439290     1.007825032230
         H           -1.624987695132     0.593116737328    -1.057495439290     1.007825032230
         H            1.107012304868     1.549116737328     2.108504560710     1.007825032230
         H           -0.222987695132     0.163116737328     3.671504560710     1.007825032230
         H           -3.533987695132    -1.845883262672     1.025504560710     1.007825032230
         H           -3.055987695132    -1.450883262672    -0.612495439290     1.007825032230
         H           -2.256987695132    -1.010883262672     2.862504560710     1.007825032230
         H           -4.193987695132    -0.382916262672     0.239321560710     1.007825032230

  Running in c1 symmetry.

  Rotational constants: A =      0.06266  B =      0.01674  C =      0.01436 [cm^-1]
  Rotational constants: A =   1878.46719  B =    501.83537  C =    430.37349 [MHz]
  Nuclear repulsion =  478.106661505774753

  Charge       = 0
  Multiplicity = 1
  Electrons    = 76
  Nalpha       = 38
  Nbeta        = 38

  ==> Algorithm <==

  SCF Algorithm Type is PK.
  DIIS enabled.
  MOM disabled.
  Fractional occupation disabled.
  Guess Type is SAD.
  Energy threshold   = 1.00e-06
  Density threshold  = 1.00e-10
  Integral threshold = 0.00e+00

  ==> Primary Basis <==

  Basis Set: CC-PVDZ
    Blend: CC-PVDZ
    Number of shells: 108
    Number of basis function: 220
    Number of Cartesian functions: 230
    Spherical Harmonics?: true
    Max angular momentum: 2

  ==> Pre-Iterations <==

   -------------------------------------------------------
    Irrep   Nso     Nmo     Nalpha   Nbeta   Ndocc  Nsocc
   -------------------------------------------------------
     A        220     220       0       0       0       0
   -------------------------------------------------------
    Total     220     220      38      38      38       0
   -------------------------------------------------------

  ==> Integral Setup <==

  Using integral reordering PK algorithm.
  Sizing the integral batches needed.
  Building batch lookup table.
   Calculation information:
      Number of atoms:                  26
      Number of AO shells:             108
      Number of primitives:            300
      Number of atomic orbitals:       230
      Number of basis functions:       220

      Integral cutoff                 1.00e-12
      Number of threads:                 1

	Batch   1 pq = [       0,    9405] index = [             0,44231715] size =     44231715
	Batch   2 pq = [    9405,   13301] index = [      44231715,88464951] size =     44233236
	Batch   3 pq = [   13301,   16290] index = [      88464951,132690195] size =     44225244
	Batch   4 pq = [   16290,   18810] index = [     132690195,176917455] size =     44227260
	Batch   5 pq = [   18810,   21030] index = [     176917455,221140965] size =     44223510
	Batch   6 pq = [   21030,   23037] index = [     221140965,265363203] size =     44222238
	Batch   7 pq = [   23037,   24310] index = [     265363203,295500205] size =     30137002
  Task number: 27
  Buffer size: 11059200
  Buffer per thread: 2
  We computed 14006242 shell quartets total.
  Whereas there are 17325441 unique shell quartets.

  ==> DiskJK: Disk-Based J/K Matrices <==

    J tasked:                  Yes
    K tasked:                  Yes
    wK tasked:                  No
    Memory [MiB]:              375
    Schwarz Cutoff:          1E-12

    OpenMP threads:              1

  Minimum eigenvalue in the overlap matrix is 3.1966405712E-04.
  Using Symmetric Orthogonalization.

  SCF Guess: Superposition of Atomic Densities via on-the-fly atomic UHF.

  ==> Iterations <==

                        Total Energy        Delta E     RMS |[F,P]|

   @RHF iter SAD:  -387.01325980043760   -3.87013e+02   0.00000e+00
   @RHF iter   1:  -387.74818868706228   -7.34929e-01   2.79076e-03 DIIS
   @RHF iter   2:  -387.96993622321094   -2.21748e-01   1.18538e-03 DIIS
   @RHF iter   3:  -388.00660942741825   -3.66732e-02   2.52783e-04 DIIS
   @RHF iter   4:  -388.00950349622207   -2.89407e-03   5.20047e-05 DIIS
   @RHF iter   5:  -388.00959195352630   -8.84573e-05   1.65722e-05 DIIS
   @RHF iter   6:  -388.00960052376655   -8.57024e-06   4.94676e-06 DIIS
   @RHF iter   7:  -388.00960139007054   -8.66304e-07   1.18877e-06 DIIS
   @RHF iter   8:  -388.00960144657222   -5.65017e-08   2.68105e-07 DIIS
   @RHF iter   9:  -388.00960145154346   -4.97124e-09   9.37566e-08 DIIS
   @RHF iter  10:  -388.00960145236627   -8.22808e-10   4.71495e-08 DIIS
   @RHF iter  11:  -388.00960145261359   -2.47326e-10   1.90856e-08 DIIS
   @RHF iter  12:  -388.00960145267516   -6.15614e-11   7.43803e-09 DIIS
   @RHF iter  13:  -388.00960145268385   -8.69704e-12   3.07106e-09 DIIS
   @RHF iter  14:  -388.00960145268527   -1.42109e-12   6.56410e-10 DIIS
   @RHF iter  15:  -388.00960145268562   -3.41061e-13   2.21096e-10 DIIS
   @RHF iter  16:  -388.00960145268277    2.84217e-12   1.04383e-10 DIIS
   @RHF iter  17:  -388.00960145268402   -1.25056e-12   5.27500e-11 DIIS
  Energy and wave function converged.

  ==> Post-Iterations <==

    Orbital Energies [Eh]
    ---------------------

    Doubly Occupied:

       1A    -11.241511     2A    -11.237290     3A    -11.236482
       4A    -11.232412     5A    -11.231481     6A    -11.231398
       7A    -11.229485     8A    -11.210791     9A    -11.209441
      10A    -11.207567    11A     -1.150122    12A     -1.069252
      13A     -1.043457    14A     -1.009548    15A     -0.930641
      16A     -0.912391    17A     -0.824919    18A     -0.796784
      19A     -0.792703    20A     -0.689891    21A     -0.639586
      22A     -0.631450    23A     -0.629247    24A     -0.612133
      25A     -0.581685    26A     -0.576517    27A     -0.562223
      28A     -0.544301    29A     -0.534781    30A     -0.507610
      31A     -0.488018    32A     -0.484936    33A     -0.481927
      34A     -0.478602    35A     -0.472301    36A     -0.450546
      37A     -0.330493    38A     -0.321767

    Virtual:

      39A      0.133464    40A      0.140785    41A      0.172787
      42A      0.192777    43A      0.200469    44A      0.211868
      45A      0.220564    46A      0.230888    47A      0.247595
      48A      0.247941    49A      0.261354    50A      0.266025
      51A      0.279031    52A      0.283780    53A      0.291001
      54A      0.300656    55A      0.329711    56A      0.339367
      57A      0.362651    58A      0.373860    59A      0.379016
      60A      0.429360    61A      0.451948    62A      0.461811
      63A      0.476737    64A      0.495129    65A      0.560588
      66A      0.577234    67A      0.590654    68A      0.599426
      69A      0.618557    70A      0.629136    71A      0.639808
      72A      0.653885    73A      0.681404    74A      0.691623
      75A      0.705094    76A      0.717194    77A      0.738431
      78A      0.742357    79A      0.744383    80A      0.755323
      81A      0.770153    82A      0.781323    83A      0.794496
      84A      0.802154    85A      0.819265    86A      0.838240
      87A      0.843941    88A      0.862149    89A      0.863667
      90A      0.870762    91A      0.875309    92A      0.888250
      93A      0.893574    94A      0.900778    95A      0.903434
      96A      0.907321    97A      0.916225    98A      0.919797
      99A      0.921609   100A      0.928639   101A      0.937760
     102A      0.950105   103A      0.959965   104A      0.969591
     105A      0.982983   106A      0.993375   107A      1.022157
     108A      1.051018   109A      1.105311   110A      1.121113
     111A      1.137290   112A      1.139661   113A      1.154015
     114A      1.161032   115A      1.189224   116A      1.202720
     117A      1.234103   118A      1.244433   119A      1.250646
     120A      1.263533   121A      1.296824   122A      1.301840
     123A      1.319192   124A      1.325127   125A      1.411944
     126A      1.423124   127A      1.450846   128A      1.486965
     129A      1.509119   130A      1.517011   131A      1.551901
     132A      1.599469   133A      1.621956   134A      1.638562
     135A      1.646818   136A      1.680767   137A      1.696439
     138A      1.730249   139A      1.739182   140A      1.743171
     141A      1.755321   142A      1.764483   143A      1.791197
     144A      1.808642   145A      1.823378   146A      1.848965
     147A      1.861320   148A      1.875512   149A      1.890490
     150A      1.894029   151A      1.903588   152A      1.905895
     153A      1.910070   154A      1.913369   155A      1.927771
     156A      1.942799   157A      1.944161   158A      1.953215
     159A      1.959827   160A      1.974936   161A      1.979773
     162A      1.994361   163A      2.010824   164A      2.019715
     165A      2.034723   166A      2.038113   167A      2.051805
     168A      2.069468   169A      2.075960   170A      2.105269
     171A      2.134747   172A      2.147048   173A      2.150556
     174A      2.157998   175A      2.160256   176A      2.161077
     177A      2.173406   178A      2.181879   179A      2.239850
     180A      2.248343   181A      2.275845   182A      2.289338
     183A      2.298450   184A      2.312854   185A      2.327946
     186A      2.330102   187A      2.356285   188A      2.447789
     189A      2.460050   190A      2.466196   191A      2.470468
     192A      2.503817   193A      2.526845   194A      2.535812
     195A      2.551732   196A      2.620419   197A      2.649218
     198A      2.694977   199A      2.732906   200A      2.749460
     201A      2.756968   202A      2.768060   203A      2.778282
     204A      2.795326   205A      2.806353   206A      2.810249
     207A      2.833948   208A      2.849371   209A      2.865480
     210A      2.911849   211A      2.946851   212A      2.960641
     213A      2.971971   214A      3.004392   215A      3.022107
     216A      3.060883   217A      3.151584   218A      3.189929
     219A      3.291097   220A      3.953520

    Final Occupation by Irrep:
              A
    DOCC [    38 ]

  @RHF Final Energy:  -388.00960145268402

   => Energetics <=

    Nuclear Repulsion Energy =            478.1066615057747526
    One-Electron Energy =               -1470.6011459547846698
    Two-Electron Energy =                 604.4848829963258368
    Total Energy =                       -388.0096014526840236

Computation Completed

Properties will be evaluated at   0.000000,   0.000000,   0.000000 [a0]

Properties computed using the SCF density matrix

  Nuclear Dipole Moment: [e a0]
     X:     8.4038      Y:    -3.2389      Z:   -10.8168

  Electronic Dipole Moment: [e a0]
     X:    -8.5630      Y:     3.1714      Z:    10.8118

  Dipole Moment: [e a0]
     X:    -0.1591      Y:    -0.0675      Z:    -0.0049     Total:     0.1729

  Dipole Moment: [D]
     X:    -0.4045      Y:    -0.1717      Z:    -0.0126     Total:     0.4396

*** tstop() called on ds3 at Sun Apr 26 22:20:52 2020
Module time:
	user time   =      98.78 seconds =       1.65 minutes
	system time =      43.12 seconds =       0.72 minutes
	total time  =        172 seconds =       2.87 minutes
Total time:
	user time   =      98.78 seconds =       1.65 minutes
	system time =      43.12 seconds =       0.72 minutes
	total time  =        172 seconds =       2.87 minutes
                                     G D M A

                                 by Anthony Stone

                           version 2.2.06, 22 June 2011

               Distributed Multipoles from Gaussian wavefunctions

Starting at 22:20:52 on 26 Apr 2020

Using SCF density matrix from file ./SSI/SSI-099PRO-164PHE-1-dimer.test.30959.fchk

                         Distributed Multipole Analysis

Standard DMA

Positions and radii in angstrom
Multipole moments in atomic units, ea_0^k for rank k

C          x =  2.192012  y = -0.153883  z = -2.075495 angstrom
           Maximum rank =  0   Radius =  0.650 angstrom
                   Q00  =  -0.077632

C          x =  3.553012  y =  0.514117  z = -2.126495 angstrom
           Maximum rank =  0   Radius =  0.650 angstrom
                   Q00  =  -0.236034

C          x =  2.382012  y = -1.309883  z = -3.024495 angstrom
           Maximum rank =  0   Radius =  0.650 angstrom
                   Q00  =  -0.213168

H          x =  1.401012  y =  0.517117  z = -2.409495 angstrom
           Maximum rank =  0   Radius =  0.325 angstrom
                   Q00  =   0.048987

H          x =  1.989012  y = -0.520883  z = -1.066495 angstrom
           Maximum rank =  0   Radius =  0.325 angstrom
                   Q00  =   0.060916

H          x =  3.634012  y =  1.160117  z = -2.999495 angstrom
           Maximum rank =  0   Radius =  0.325 angstrom
                   Q00  =   0.078552

H          x =  3.697012  y =  1.079117  z = -1.210495 angstrom
           Maximum rank =  0   Radius =  0.325 angstrom
                   Q00  =   0.075124

H          x =  2.364012  y = -0.968883  z = -4.060495 angstrom
           Maximum rank =  0   Radius =  0.325 angstrom
                   Q00  =   0.076722

H          x =  1.645012  y = -2.060883  z = -2.829495 angstrom
           Maximum rank =  0   Radius =  0.325 angstrom
                   Q00  =   0.080153

H          x =  4.239972  y = -0.341396  z = -2.205155 angstrom
           Maximum rank =  0   Radius =  0.325 angstrom
                   Q00  =   0.060087

H          x =  3.373232  y = -1.691178  z = -2.737985 angstrom
           Maximum rank =  0   Radius =  0.325 angstrom
                   Q00  =   0.045806

C          x = -3.302988  y = -1.016883  z =  0.358505 angstrom
           Maximum rank =  0   Radius =  0.650 angstrom
                   Q00  =  -0.199182

C          x = -0.178988  y =  1.157117  z =  0.427505 angstrom
           Maximum rank =  0   Radius =  0.650 angstrom
                   Q00  =  -0.075933

C          x = -1.326988  y =  0.498117  z = -0.022495 angstrom
           Maximum rank =  0   Radius =  0.650 angstrom
                   Q00  =  -0.023430

C          x =  0.221012  y =  1.036117  z =  1.757505 angstrom
           Maximum rank =  0   Radius =  0.650 angstrom
                   Q00  =  -0.082168

C          x = -2.081988  y = -0.286883  z =  0.852505 angstrom
           Maximum rank =  0   Radius =  0.650 angstrom
                   Q00  =  -0.099828

C          x = -0.530988  y =  0.255117  z =  2.638505 angstrom
           Maximum rank =  0   Radius =  0.650 angstrom
                   Q00  =  -0.078633

C          x = -1.678988  y = -0.402883  z =  2.183505 angstrom
           Maximum rank =  0   Radius =  0.650 angstrom
                   Q00  =  -0.052941

H          x =  0.403012  y =  1.757117  z = -0.256495 angstrom
           Maximum rank =  0   Radius =  0.325 angstrom
                   Q00  =   0.067273

H          x = -1.624988  y =  0.593117  z = -1.057495 angstrom
           Maximum rank =  0   Radius =  0.325 angstrom
                   Q00  =   0.056906

H          x =  1.107012  y =  1.549117  z =  2.108505 angstrom
           Maximum rank =  0   Radius =  0.325 angstrom
                   Q00  =   0.062284

H          x = -0.222988  y =  0.163117  z =  3.671505 angstrom
           Maximum rank =  0   Radius =  0.325 angstrom
                   Q00  =   0.066487

H          x = -3.533988  y = -1.845883  z =  1.025505 angstrom
           Maximum rank =  0   Radius =  0.325 angstrom
                   Q00  =   0.098443

H          x = -3.055988  y = -1.450883  z = -0.612495 angstrom
           Maximum rank =  0   Radius =  0.325 angstrom
                   Q00  =   0.096921

H          x = -2.256988  y = -1.010883  z =  2.862505 angstrom
           Maximum rank =  0   Radius =  0.325 angstrom
                   Q00  =   0.058955

H          x = -4.193988  y = -0.382916  z =  0.239322 angstrom
           Maximum rank =  0   Radius =  0.325 angstrom
                   Q00  =   0.105335

Total multipoles referred to origin at
           x =   0.000000,  y =    0.000000,  z =    0.000000 angstrom
                   Q00  =  -0.000000

Finished at 22:20:52 on 26 Apr 2020

  DMA results are available in the Python driver through the
	  variable('DMA DISTRIBUTED MULTIPOLES')
  and
	  variable('DMA TOTAL MULTIPOLES')
  commands.

    Psi4 stopped on: Sunday, 26 April 2020 10:20PM
    Psi4 wall time for execution: 0:02:52.62

*** Psi4 exiting successfully. Buy a developer a beer!
