                               Psi4 1.3.2 release

  ==> Input File <==

--------------------------------------------------------------------------
import numpy as np
set {scf_type pk
basis cc-pvdz
d_convergence 10
gdma_switch   0
gdma_limit    0
gdma_origin   [ 0.0,  0.0,  0.0 ]
}
molecule test {
    units Angstrom
    0 1
    --
    0 1
    C                0.592286621762587    -0.873986636515740    -1.590595305327745
    C                1.215286621762587     0.407013363484260    -2.113595305327745
    H                1.091286621762587    -1.169986636515741    -0.668595305327745
    H               -0.474713378237413    -0.737986636515740    -1.423595305327745
    H                0.726286621762587    -1.665986636515741    -2.329595305327745
    H                0.818286621762587     0.586013363484260    -3.110595305327746
    H                2.307886621762587     0.296093363484260    -2.176256305327746
    H                0.934486621762587     1.256643363484260    -1.473841305327745
    C               -0.313713378237414    -0.257986636515740     1.863404694672254
    C               -1.495713378237413     0.724013363484260     1.847404694672254
    H               -0.291713378237414    -0.833986636515740     0.949404694672255
    H                0.625286621762586     0.286013363484260     1.960404694672254
    H               -0.418713378237413    -0.955986636515740     2.690404694672254
    H               -1.361713378237413     1.377013363484260     0.991404694672255
    H               -2.470393378237413     0.221273363484260     1.762182694672255
    H               -1.464203378237414     1.352153363484260     2.749868694672255

}
e, wfn = energy('scf', return_wfn=True)
gdma(wfn)
dmavals = variable('DMA DISTRIBUTED MULTIPOLES')
charges = np.array(dmavals)
print(charges)
np.save('SSI-004LEU-180LEU-1-dimer.npy', np.array(charges))--------------------------------------------------------------------------

*** tstart() called on ds3
*** at Mon Apr 27 14:12:11 2020

   => Loading Basis Set <=

    Name: CC-PVDZ
    Role: ORBITAL
    Keyword: BASIS
    atoms 1-2, 9-10  entry C          line   138 file /theoryfs2/ds/metcalf/miniconda2/envs/tf2gpu/share/psi4/basis/cc-pvdz.gbs
    atoms 3-8, 11-16 entry H          line    22 file /theoryfs2/ds/metcalf/miniconda2/envs/tf2gpu/share/psi4/basis/cc-pvdz.gbs

         ---------------------------------------------------------
                                   SCF
               by Justin Turney, Rob Parrish, Andy Simmonett
                          and Daniel G. A. Smith
                              RHF Reference
                        1 Threads,    500 MiB Core
         ---------------------------------------------------------

  ==> Geometry <==

    Molecular point group: c1
    Full point group: C1

    Geometry (in Angstrom), charge = 0, multiplicity = 1:

       Center              X                  Y                   Z               Mass
    ------------   -----------------  -----------------  -----------------  -----------------
         C            0.592286621763    -0.873986636516    -1.590595305328    12.000000000000
         C            1.215286621763     0.407013363484    -2.113595305328    12.000000000000
         H            1.091286621763    -1.169986636516    -0.668595305328     1.007825032230
         H           -0.474713378237    -0.737986636516    -1.423595305328     1.007825032230
         H            0.726286621763    -1.665986636516    -2.329595305328     1.007825032230
         H            0.818286621763     0.586013363484    -3.110595305328     1.007825032230
         H            2.307886621763     0.296093363484    -2.176256305328     1.007825032230
         H            0.934486621763     1.256643363484    -1.473841305328     1.007825032230
         C           -0.313713378237    -0.257986636516     1.863404694672    12.000000000000
         C           -1.495713378237     0.724013363484     1.847404694672    12.000000000000
         H           -0.291713378237    -0.833986636516     0.949404694672     1.007825032230
         H            0.625286621763     0.286013363484     1.960404694672     1.007825032230
         H           -0.418713378237    -0.955986636516     2.690404694672     1.007825032230
         H           -1.361713378237     1.377013363484     0.991404694672     1.007825032230
         H           -2.470393378237     0.221273363484     1.762182694672     1.007825032230
         H           -1.464203378237     1.352153363484     2.749868694672     1.007825032230

  Running in c1 symmetry.

  Rotational constants: A =      0.38289  B =      0.05894  C =      0.05610 [cm^-1]
  Rotational constants: A =  11478.67133  B =   1766.94501  C =   1681.89635 [MHz]
  Nuclear repulsion =  125.126932243740526

  Charge       = 0
  Multiplicity = 1
  Electrons    = 36
  Nalpha       = 18
  Nbeta        = 18

  ==> Algorithm <==

  SCF Algorithm Type is PK.
  DIIS enabled.
  MOM disabled.
  Fractional occupation disabled.
  Guess Type is SAD.
  Energy threshold   = 1.00e-06
  Density threshold  = 1.00e-10
  Integral threshold = 0.00e+00

  ==> Primary Basis <==

  Basis Set: CC-PVDZ
    Blend: CC-PVDZ
    Number of shells: 60
    Number of basis function: 116
    Number of Cartesian functions: 120
    Spherical Harmonics?: true
    Max angular momentum: 2

  ==> Pre-Iterations <==

   -------------------------------------------------------
    Irrep   Nso     Nmo     Nalpha   Nbeta   Ndocc  Nsocc
   -------------------------------------------------------
     A        116     116       0       0       0       0
   -------------------------------------------------------
    Total     116     116      18      18      18       0
   -------------------------------------------------------

  ==> Integral Setup <==

  Using integral reordering PK algorithm.
  Sizing the integral batches needed.
  Building batch lookup table.
   Calculation information:
      Number of atoms:                  16
      Number of AO shells:              60
      Number of primitives:            148
      Number of atomic orbitals:       120
      Number of basis functions:       116

      Integral cutoff                 1.00e-12
      Number of threads:                 1

	Batch   1 pq = [       0,    6786] index = [             0,23028291] size =     23028291
  Task number: 3
  Buffer size: 11059200
  Buffer per thread: 2
  We computed 1533195 shell quartets total.
  Whereas there are 1675365 unique shell quartets.

  ==> DiskJK: Disk-Based J/K Matrices <==

    J tasked:                  Yes
    K tasked:                  Yes
    wK tasked:                  No
    Memory [MiB]:              375
    Schwarz Cutoff:          1E-12

    OpenMP threads:              1

  Minimum eigenvalue in the overlap matrix is 7.2190585808E-03.
  Using Symmetric Orthogonalization.

  SCF Guess: Superposition of Atomic Densities via on-the-fly atomic UHF.

  ==> Iterations <==

                        Total Energy        Delta E     RMS |[F,P]|

   @RHF iter SAD:  -157.38542988998495   -1.57385e+02   0.00000e+00
   @RHF iter   1:  -158.30465612001933   -9.19226e-01   4.22166e-03 DIIS
   @RHF iter   2:  -158.43850701531085   -1.33851e-01   1.79706e-03 DIIS
   @RHF iter   3:  -158.46194986111610   -2.34428e-02   3.51466e-04 DIIS
   @RHF iter   4:  -158.46379713064451   -1.84727e-03   3.95337e-05 DIIS
   @RHF iter   5:  -158.46382178613337   -2.46555e-05   7.04490e-06 DIIS
   @RHF iter   6:  -158.46382249303869   -7.06905e-07   1.41048e-06 DIIS
   @RHF iter   7:  -158.46382251186853   -1.88298e-08   3.33321e-07 DIIS
   @RHF iter   8:  -158.46382251294409   -1.07556e-09   4.35631e-08 DIIS
   @RHF iter   9:  -158.46382251297189   -2.77964e-11   1.05965e-08 DIIS
   @RHF iter  10:  -158.46382251297354   -1.64846e-12   2.88146e-09 DIIS
   @RHF iter  11:  -158.46382251297337    1.70530e-13   8.34379e-10 DIIS
   @RHF iter  12:  -158.46382251297308    2.84217e-13   1.92061e-10 DIIS
   @RHF iter  13:  -158.46382251297376   -6.82121e-13   2.54776e-11 DIIS
  Energy and wave function converged.

  ==> Post-Iterations <==

    Orbital Energies [Eh]
    ---------------------

    Doubly Occupied:

       1A    -11.218908     2A    -11.218799     3A    -11.215909
       4A    -11.213737     5A     -1.023229     6A     -1.015427
       7A     -0.840556     8A     -0.833680     9A     -0.606904
      10A     -0.603239    11A     -0.597678    12A     -0.588985
      13A     -0.504349    14A     -0.499081    15A     -0.491710
      16A     -0.488160    17A     -0.486066    18A     -0.472989

    Virtual:

      19A      0.164365    20A      0.204195    21A      0.225689
      22A      0.232412    23A      0.246217    24A      0.258326
      25A      0.261902    26A      0.273745    27A      0.279266
      28A      0.303528    29A      0.324389    30A      0.333157
      31A      0.390866    32A      0.405826    33A      0.565636
      34A      0.597492    35A      0.605777    36A      0.609628
      37A      0.617879    38A      0.636335    39A      0.669082
      40A      0.683062    41A      0.694694    42A      0.828104
      43A      0.837834    44A      0.851523    45A      0.879525
      46A      0.885930    47A      0.888679    48A      0.892039
      49A      0.900501    50A      0.907959    51A      0.925130
      52A      0.927857    53A      0.947931    54A      0.963173
      55A      0.968875    56A      0.997850    57A      1.121605
      58A      1.126770    59A      1.131532    60A      1.179644
      61A      1.238772    62A      1.284667    63A      1.463529
      64A      1.479262    65A      1.481352    66A      1.495937
      67A      1.533358    68A      1.605670    69A      1.675191
      70A      1.684238    71A      1.686656    72A      1.723705
      73A      1.852860    74A      1.858413    75A      1.877240
      76A      1.890879    77A      1.899342    78A      1.911036
      79A      1.933779    80A      1.937953    81A      1.944278
      82A      1.951942    83A      1.957573    84A      1.959781
      85A      1.972571    86A      1.979345    87A      1.986414
      88A      2.020238    89A      2.085504    90A      2.104984
      91A      2.136051    92A      2.144931    93A      2.292878
      94A      2.303759    95A      2.309107    96A      2.320876
      97A      2.438526    98A      2.454308    99A      2.476488
     100A      2.489204   101A      2.557536   102A      2.568088
     103A      2.585818   104A      2.595317   105A      2.763188
     106A      2.764963   107A      2.793800   108A      2.802633
     109A      2.834678   110A      2.853406   111A      2.859854
     112A      2.879252   113A      2.934301   114A      2.963187
     115A      2.975190   116A      2.998286

    Final Occupation by Irrep:
              A
    DOCC [    18 ]

  @RHF Final Energy:  -158.46382251297376

   => Energetics <=

    Nuclear Repulsion Energy =            125.1269322437405265
    One-Electron Energy =                -459.3427002128769914
    Two-Electron Energy =                 175.7519454561626731
    Total Energy =                       -158.4638225129737634

Computation Completed

Properties will be evaluated at   0.000000,   0.000000,   0.000000 [a0]

Properties computed using the SCF density matrix

  Nuclear Dipole Moment: [e a0]
     X:     0.0207      Y:     0.0106      Z:    -0.0739

  Electronic Dipole Moment: [e a0]
     X:    -0.0070      Y:    -0.0305      Z:     0.0330

  Dipole Moment: [e a0]
     X:     0.0137      Y:    -0.0199      Z:    -0.0409     Total:     0.0475

  Dipole Moment: [D]
     X:     0.0348      Y:    -0.0506      Z:    -0.1039     Total:     0.1207

*** tstop() called on ds3 at Mon Apr 27 14:12:22 2020
Module time:
	user time   =       8.41 seconds =       0.14 minutes
	system time =       3.03 seconds =       0.05 minutes
	total time  =         11 seconds =       0.18 minutes
Total time:
	user time   =       8.41 seconds =       0.14 minutes
	system time =       3.03 seconds =       0.05 minutes
	total time  =         11 seconds =       0.18 minutes
                                     G D M A

                                 by Anthony Stone

                           version 2.2.06, 22 June 2011

               Distributed Multipoles from Gaussian wavefunctions

Starting at 14:12:22 on 27 Apr 2020

Using SCF density matrix from file ./SSI/SSI-004LEU-180LEU-1-dimer.test.8975.fchk

                         Distributed Multipole Analysis

Standard DMA

Positions and radii in angstrom
Multipole moments in atomic units, ea_0^k for rank k

C          x =  0.592287  y = -0.873987  z = -1.590595 angstrom
           Maximum rank =  0   Radius =  0.650 angstrom
                   Q00  =  -0.241918

C          x =  1.215287  y =  0.407013  z = -2.113595 angstrom
           Maximum rank =  0   Radius =  0.650 angstrom
                   Q00  =  -0.221413

H          x =  1.091287  y = -1.169987  z = -0.668595 angstrom
           Maximum rank =  0   Radius =  0.325 angstrom
                   Q00  =   0.079131

H          x = -0.474713  y = -0.737987  z = -1.423595 angstrom
           Maximum rank =  0   Radius =  0.325 angstrom
                   Q00  =   0.077274

H          x =  0.726287  y = -1.665987  z = -2.329595 angstrom
           Maximum rank =  0   Radius =  0.325 angstrom
                   Q00  =   0.076046

H          x =  0.818287  y =  0.586013  z = -3.110595 angstrom
           Maximum rank =  0   Radius =  0.325 angstrom
                   Q00  =   0.075894

H          x =  2.307887  y =  0.296093  z = -2.176256 angstrom
           Maximum rank =  0   Radius =  0.325 angstrom
                   Q00  =   0.079028

H          x =  0.934487  y =  1.256643  z = -1.473841 angstrom
           Maximum rank =  0   Radius =  0.325 angstrom
                   Q00  =   0.077127

C          x = -0.313713  y = -0.257987  z =  1.863405 angstrom
           Maximum rank =  0   Radius =  0.650 angstrom
                   Q00  =  -0.243409

C          x = -1.495713  y =  0.724013  z =  1.847405 angstrom
           Maximum rank =  0   Radius =  0.650 angstrom
                   Q00  =  -0.241923

H          x = -0.291713  y = -0.833987  z =  0.949405 angstrom
           Maximum rank =  0   Radius =  0.325 angstrom
                   Q00  =   0.090447

H          x =  0.625287  y =  0.286013  z =  1.960405 angstrom
           Maximum rank =  0   Radius =  0.325 angstrom
                   Q00  =   0.078830

H          x = -0.418713  y = -0.955987  z =  2.690405 angstrom
           Maximum rank =  0   Radius =  0.325 angstrom
                   Q00  =   0.077817

H          x = -1.361713  y =  1.377013  z =  0.991405 angstrom
           Maximum rank =  0   Radius =  0.325 angstrom
                   Q00  =   0.075813

H          x = -2.470393  y =  0.221273  z =  1.762183 angstrom
           Maximum rank =  0   Radius =  0.325 angstrom
                   Q00  =   0.082459

H          x = -1.464203  y =  1.352153  z =  2.749869 angstrom
           Maximum rank =  0   Radius =  0.325 angstrom
                   Q00  =   0.078798

Total multipoles referred to origin at
           x =   0.000000,  y =    0.000000,  z =    0.000000 angstrom
                   Q00  =  -0.000000

Finished at 14:12:22 on 27 Apr 2020

  DMA results are available in the Python driver through the
	  variable('DMA DISTRIBUTED MULTIPOLES')
  and
	  variable('DMA TOTAL MULTIPOLES')
  commands.

    Psi4 stopped on: Monday, 27 April 2020 02:12PM
    Psi4 wall time for execution: 0:00:11.21

*** Psi4 exiting successfully. Buy a developer a beer!
