                               Psi4 1.3.2 release

  ==> Input File <==

--------------------------------------------------------------------------
import numpy as np
set {scf_type pk
basis cc-pvdz
d_convergence 10
gdma_switch   0
gdma_limit    0
gdma_origin   [ 0.0,  0.0,  0.0 ]
}
molecule test {
    units Angstrom
    0 1
    --
    0 1
    C                0.142748447564480    -0.397412588863729     2.669271448673525
    C                0.073748447564480    -1.034412588863729     0.248271448673525
    C                0.295748447564480    -1.403412588863729     1.581271448673525
    C                0.153748447564480    -1.972412588863729    -0.778728551326475
    C                0.467748447564480    -3.290412588863729    -0.450728551326475
    C                0.576748447564480    -2.724412588863729     1.893271448673525
    C                0.699748447564480    -3.672412588863729     0.873271448673525
    O                0.541748447564480    -4.249412588863730    -1.410728551326475
    H               -0.178251552435520    -0.012412588863729     0.017271448673525
    H               -0.028251552435520    -1.681412588863729    -1.803728551326475
    H                0.547748447564480     0.556587411136271     2.329271448673525
    H                0.717748447564480    -0.712412588863729     3.538271448673525
    H                0.594748447564480    -3.020412588863729     2.931271448673525
    H                0.363748447564480    -3.903412588863729    -2.290728551326475
    H                0.908748447564480    -4.707412588863729     1.103271448673525
    H               -0.914831552435520    -0.264410588863729     2.940991448673525
    C               -3.068251552435520     2.555587411136271     0.560271448673525
    C               -1.486251552435520     1.985587411136271    -1.331728551326475
    C               -1.684251552435520     2.442587411136271    -0.027728551326475
    C               -0.184251552435520     1.924587411136272    -1.860728551326475
    C                0.902748447564480     2.315587411136272    -1.049728551326475
    C               -0.584251552435520     2.807587411136271     0.743271448673525
    C                0.691748447564480     2.744587411136271     0.251271448673525
    O                2.186748447564481     2.217587411136271    -1.481728551326475
    H               -2.327251552435520     1.674587411136271    -1.929728551326475
    H               -0.021251552435520     1.568587411136271    -2.868728551326475
    H               -3.018251552435519     2.247587411136271     1.597271448673525
    H               -3.688251552435520     1.818587411136271     0.066271448673525
    H               -0.734251552435520     3.145587411136271     1.761271448673525
    H                2.203748447564480     1.787587411136271    -2.337728551326475
    H                1.530748447564480     3.029587411136271     0.857271448673525
    H               -3.509360552435520     3.557586411136271     0.453401448673525

}
e, wfn = energy('scf', return_wfn=True)
gdma(wfn)
dmavals = variable('DMA DISTRIBUTED MULTIPOLES')
charges = np.array(dmavals)
print(charges)
np.save('SSI-129TYR-136TYR-2-dimer.npy', np.array(charges))--------------------------------------------------------------------------

*** tstart() called on ds3
*** at Mon Apr 27 09:18:17 2020

   => Loading Basis Set <=

    Name: CC-PVDZ
    Role: ORBITAL
    Keyword: BASIS
    atoms 1-7, 17-23  entry C          line   138 file /theoryfs2/ds/metcalf/miniconda2/envs/tf2gpu/share/psi4/basis/cc-pvdz.gbs
    atoms 8, 24       entry O          line   198 file /theoryfs2/ds/metcalf/miniconda2/envs/tf2gpu/share/psi4/basis/cc-pvdz.gbs
    atoms 9-16, 25-32 entry H          line    22 file /theoryfs2/ds/metcalf/miniconda2/envs/tf2gpu/share/psi4/basis/cc-pvdz.gbs

         ---------------------------------------------------------
                                   SCF
               by Justin Turney, Rob Parrish, Andy Simmonett
                          and Daniel G. A. Smith
                              RHF Reference
                        1 Threads,    500 MiB Core
         ---------------------------------------------------------

  ==> Geometry <==

    Molecular point group: c1
    Full point group: C1

    Geometry (in Angstrom), charge = 0, multiplicity = 1:

       Center              X                  Y                   Z               Mass
    ------------   -----------------  -----------------  -----------------  -----------------
         C            0.142748447564    -0.397412588864     2.669271448674    12.000000000000
         C            0.073748447564    -1.034412588864     0.248271448674    12.000000000000
         C            0.295748447564    -1.403412588864     1.581271448674    12.000000000000
         C            0.153748447564    -1.972412588864    -0.778728551326    12.000000000000
         C            0.467748447564    -3.290412588864    -0.450728551326    12.000000000000
         C            0.576748447564    -2.724412588864     1.893271448674    12.000000000000
         C            0.699748447564    -3.672412588864     0.873271448674    12.000000000000
         O            0.541748447564    -4.249412588864    -1.410728551326    15.994914619570
         H           -0.178251552436    -0.012412588864     0.017271448674     1.007825032230
         H           -0.028251552436    -1.681412588864    -1.803728551326     1.007825032230
         H            0.547748447564     0.556587411136     2.329271448674     1.007825032230
         H            0.717748447564    -0.712412588864     3.538271448674     1.007825032230
         H            0.594748447564    -3.020412588864     2.931271448674     1.007825032230
         H            0.363748447564    -3.903412588864    -2.290728551326     1.007825032230
         H            0.908748447564    -4.707412588864     1.103271448674     1.007825032230
         H           -0.914831552436    -0.264410588864     2.940991448674     1.007825032230
         C           -3.068251552436     2.555587411136     0.560271448674    12.000000000000
         C           -1.486251552436     1.985587411136    -1.331728551326    12.000000000000
         C           -1.684251552436     2.442587411136    -0.027728551326    12.000000000000
         C           -0.184251552436     1.924587411136    -1.860728551326    12.000000000000
         C            0.902748447564     2.315587411136    -1.049728551326    12.000000000000
         C           -0.584251552436     2.807587411136     0.743271448674    12.000000000000
         C            0.691748447564     2.744587411136     0.251271448674    12.000000000000
         O            2.186748447564     2.217587411136    -1.481728551326    15.994914619570
         H           -2.327251552436     1.674587411136    -1.929728551326     1.007825032230
         H           -0.021251552436     1.568587411136    -2.868728551326     1.007825032230
         H           -3.018251552436     2.247587411136     1.597271448674     1.007825032230
         H           -3.688251552436     1.818587411136     0.066271448674     1.007825032230
         H           -0.734251552436     3.145587411136     1.761271448674     1.007825032230
         H            2.203748447564     1.787587411136    -2.337728551326     1.007825032230
         H            1.530748447564     3.029587411136     0.857271448674     1.007825032230
         H           -3.509360552436     3.557586411136     0.453401448674     1.007825032230

  Running in c1 symmetry.

  Rotational constants: A =      0.02454  B =      0.00970  C =      0.00884 [cm^-1]
  Rotational constants: A =    735.82181  B =    290.76952  C =    264.95056 [MHz]
  Nuclear repulsion = 1023.460102903463508

  Charge       = 0
  Multiplicity = 1
  Electrons    = 116
  Nalpha       = 58
  Nbeta        = 58

  ==> Algorithm <==

  SCF Algorithm Type is PK.
  DIIS enabled.
  MOM disabled.
  Fractional occupation disabled.
  Guess Type is SAD.
  Energy threshold   = 1.00e-06
  Density threshold  = 1.00e-10
  Integral threshold = 0.00e+00

  ==> Primary Basis <==

  Basis Set: CC-PVDZ
    Blend: CC-PVDZ
    Number of shells: 144
    Number of basis function: 304
    Number of Cartesian functions: 320
    Spherical Harmonics?: true
    Max angular momentum: 2

  ==> Pre-Iterations <==

   -------------------------------------------------------
    Irrep   Nso     Nmo     Nalpha   Nbeta   Ndocc  Nsocc
   -------------------------------------------------------
     A        304     304       0       0       0       0
   -------------------------------------------------------
    Total     304     304      58      58      58       0
   -------------------------------------------------------

  ==> Integral Setup <==

  Using integral reordering PK algorithm.
  Sizing the integral batches needed.
  Building batch lookup table.
   Calculation information:
      Number of atoms:                  32
      Number of AO shells:             144
      Number of primitives:            432
      Number of atomic orbitals:       320
      Number of basis functions:       304

      Integral cutoff                 1.00e-12
      Number of threads:                 1

	Batch   1 pq = [       0,    9405] index = [             0,44231715] size =     44231715
	Batch   2 pq = [    9405,   13301] index = [      44231715,88464951] size =     44233236
	Batch   3 pq = [   13301,   16290] index = [      88464951,132690195] size =     44225244
	Batch   4 pq = [   16290,   18810] index = [     132690195,176917455] size =     44227260
	Batch   5 pq = [   18810,   21030] index = [     176917455,221140965] size =     44223510
	Batch   6 pq = [   21030,   23037] index = [     221140965,265363203] size =     44222238
	Batch   7 pq = [   23037,   24883] index = [     265363203,309594286] size =     44231083
	Batch   8 pq = [   24883,   26601] index = [     309594286,353819901] size =     44225615
	Batch   9 pq = [   26601,   28214] index = [     353819901,398029005] size =     44209104
	Batch  10 pq = [   28214,   29740] index = [     398029005,442248670] size =     44219665
	Batch  11 pq = [   29740,   31191] index = [     442248670,486454836] size =     44206166
	Batch  12 pq = [   31191,   32578] index = [     486454836,530679331] size =     44224495
	Batch  13 pq = [   32578,   33908] index = [     530679331,574893186] size =     44213855
	Batch  14 pq = [   33908,   35188] index = [     574893186,619115266] size =     44222080
	Batch  15 pq = [   35188,   36423] index = [     619115266,663335676] size =     44220410
	Batch  16 pq = [   36423,   37617] index = [     663335676,707538153] size =     44202477
	Batch  17 pq = [   37617,   38775] index = [     707538153,751769700] size =     44231547
	Batch  18 pq = [   38775,   39899] index = [     751769700,795985050] size =     44215350
	Batch  19 pq = [   39899,   40992] index = [     795985050,840192528] size =     44207478
	Batch  20 pq = [   40992,   42057] index = [     840192528,884416653] size =     44224125
	Batch  21 pq = [   42057,   43095] index = [     884416653,928611060] size =     44194407
	Batch  22 pq = [   43095,   44109] index = [     928611060,972823995] size =     44212935
	Batch  23 pq = [   44109,   45100] index = [     972823995,1017027550] size =     44203555
	Batch  24 pq = [   45100,   46070] index = [    1017027550,1061245485] size =     44217935
	Batch  25 pq = [   46070,   46360] index = [    1061245485,1074647980] size =     13402495
  Task number: 98
  Buffer size: 11059200
  Buffer per thread: 2
  We computed 60480124 shell quartets total.
  Whereas there are 54502020 unique shell quartets.
    10.97 percent of shell quartets recomputed by reordering.

  ==> DiskJK: Disk-Based J/K Matrices <==

    J tasked:                  Yes
    K tasked:                  Yes
    wK tasked:                  No
    Memory [MiB]:              375
    Schwarz Cutoff:          1E-12

    OpenMP threads:              1

  Minimum eigenvalue in the overlap matrix is 3.0893964301E-04.
  Using Symmetric Orthogonalization.

  SCF Guess: Superposition of Atomic Densities via on-the-fly atomic UHF.

  ==> Iterations <==

                        Total Energy        Delta E     RMS |[F,P]|

   @RHF iter SAD:  -688.11498113762639   -6.88115e+02   0.00000e+00
   @RHF iter   1:  -688.88827990841412   -7.73299e-01   2.44169e-03 DIIS
   @RHF iter   2:  -689.18868127561598   -3.00401e-01   1.04324e-03 DIIS
   @RHF iter   3:  -689.23707714629313   -4.83959e-02   2.60587e-04 DIIS
   @RHF iter   4:  -689.24139390950370   -4.31676e-03   1.15608e-04 DIIS
   @RHF iter   5:  -689.24213188175827   -7.37972e-04   1.69468e-05 DIIS
   @RHF iter   6:  -689.24215932191021   -2.74402e-05   6.43385e-06 DIIS
   @RHF iter   7:  -689.24216301798708   -3.69608e-06   2.21029e-06 DIIS
   @RHF iter   8:  -689.24216367696113   -6.58974e-07   8.28203e-07 DIIS
   @RHF iter   9:  -689.24216380715075   -1.30190e-07   3.94352e-07 DIIS
   @RHF iter  10:  -689.24216383820658   -3.10558e-08   1.78700e-07 DIIS
   @RHF iter  11:  -689.24216384807505   -9.86847e-09   5.85504e-08 DIIS
   @RHF iter  12:  -689.24216384881368   -7.38623e-10   2.42721e-08 DIIS
   @RHF iter  13:  -689.24216384889155   -7.78755e-11   7.50708e-09 DIIS
   @RHF iter  14:  -689.24216384889860   -7.04858e-12   2.34893e-09 DIIS
   @RHF iter  15:  -689.24216384890542   -6.82121e-12   8.75144e-10 DIIS
   @RHF iter  16:  -689.24216384889428    1.11413e-11   3.85723e-10 DIIS
   @RHF iter  17:  -689.24216384889542   -1.13687e-12   1.97398e-10 DIIS
   @RHF iter  18:  -689.24216384890008   -4.66116e-12   8.34156e-11 DIIS
  Energy and wave function converged.

  ==> Post-Iterations <==

    Orbital Energies [Eh]
    ---------------------

    Doubly Occupied:

       1A    -20.589123     2A    -20.577427     3A    -11.306914
       4A    -11.293395     5A    -11.248284     6A    -11.244186
       7A    -11.241091     8A    -11.238270     9A    -11.231811
      10A    -11.229820    11A    -11.229782    12A    -11.227707
      13A    -11.226529    14A    -11.222920    15A    -11.221113
      16A    -11.217143    17A     -1.409442    18A     -1.396066
      19A     -1.158539    20A     -1.142304    21A     -1.042969
      22A     -1.031606    23A     -1.026415    24A     -1.009834
      25A     -0.930948    26A     -0.917261    27A     -0.851652
      28A     -0.837918    29A     -0.808505    30A     -0.794015
      31A     -0.736684    32A     -0.725782    33A     -0.673563
      34A     -0.659939    35A     -0.648308    36A     -0.635018
      37A     -0.613692    38A     -0.602077    39A     -0.596599
      40A     -0.593688    41A     -0.582092    42A     -0.580651
      43A     -0.577994    44A     -0.572746    45A     -0.565474
      46A     -0.561441    47A     -0.529481    48A     -0.517957
      49A     -0.501835    50A     -0.491703    51A     -0.490518
      52A     -0.486355    53A     -0.463370    54A     -0.457060
      55A     -0.348171    56A     -0.331641    57A     -0.306382
      58A     -0.291458

    Virtual:

      59A      0.121850    60A      0.136092    61A      0.145733
      62A      0.160875    63A      0.167565    64A      0.176844
      65A      0.187564    66A      0.203982    67A      0.208337
      68A      0.210882    69A      0.238967    70A      0.243065
      71A      0.248860    72A      0.265340    73A      0.269151
      74A      0.281896    75A      0.288622    76A      0.297659
      77A      0.311477    78A      0.328911    79A      0.364968
      80A      0.366791    81A      0.379551    82A      0.385266
      83A      0.424092    84A      0.435231    85A      0.448858
      86A      0.460925    87A      0.472830    88A      0.484826
      89A      0.496947    90A      0.500910    91A      0.506493
      92A      0.516196    93A      0.598906    94A      0.604075
      95A      0.623062    96A      0.636845    97A      0.646403
      98A      0.651563    99A      0.662178   100A      0.666872
     101A      0.677973   102A      0.684317   103A      0.690879
     104A      0.697090   105A      0.711838   106A      0.719177
     107A      0.726054   108A      0.728447   109A      0.737346
     110A      0.745317   111A      0.756792   112A      0.762591
     113A      0.771776   114A      0.775119   115A      0.783294
     116A      0.791942   117A      0.804174   118A      0.811386
     119A      0.821783   120A      0.838621   121A      0.844522
     122A      0.849240   123A      0.857817   124A      0.864293
     125A      0.867194   126A      0.873364   127A      0.880511
     128A      0.881152   129A      0.890127   130A      0.893481
     131A      0.899067   132A      0.910559   133A      0.915046
     134A      0.921903   135A      0.929308   136A      0.936447
     137A      0.946809   138A      0.951988   139A      0.969821
     140A      0.973436   141A      0.987126   142A      0.996057
     143A      1.012657   144A      1.021346   145A      1.026920
     146A      1.053515   147A      1.081246   148A      1.111439
     149A      1.119895   150A      1.136551   151A      1.143979
     152A      1.144644   153A      1.152842   154A      1.158805
     155A      1.195579   156A      1.200463   157A      1.215663
     158A      1.227113   159A      1.231942   160A      1.255838
     161A      1.259181   162A      1.269251   163A      1.274227
     164A      1.279822   165A      1.286001   166A      1.293732
     167A      1.299800   168A      1.303593   169A      1.307428
     170A      1.333575   171A      1.341944   172A      1.357265
     173A      1.361997   174A      1.368906   175A      1.374702
     176A      1.376425   177A      1.404130   178A      1.467173
     179A      1.484084   180A      1.488680   181A      1.508630
     182A      1.526341   183A      1.538372   184A      1.553366
     185A      1.567824   186A      1.589750   187A      1.606777
     188A      1.611787   189A      1.623878   190A      1.647150
     191A      1.683790   192A      1.693680   193A      1.703042
     194A      1.711969   195A      1.728909   196A      1.740252
     197A      1.749302   198A      1.758064   199A      1.785909
     200A      1.790991   201A      1.799954   202A      1.808948
     203A      1.823073   204A      1.837527   205A      1.867353
     206A      1.872964   207A      1.887009   208A      1.892265
     209A      1.894526   210A      1.900102   211A      1.905849
     212A      1.911027   213A      1.918016   214A      1.925402
     215A      1.931284   216A      1.938896   217A      1.948901
     218A      1.954814   219A      1.968149   220A      1.975240
     221A      1.989948   222A      1.995031   223A      1.995849
     224A      2.006093   225A      2.030258   226A      2.043628
     227A      2.047498   228A      2.053387   229A      2.059026
     230A      2.069021   231A      2.074074   232A      2.083549
     233A      2.089722   234A      2.100594   235A      2.134303
     236A      2.139451   237A      2.150145   238A      2.156737
     239A      2.163670   240A      2.180805   241A      2.207323
     242A      2.228129   243A      2.231134   244A      2.243424
     245A      2.259271   246A      2.272858   247A      2.277201
     248A      2.293478   249A      2.304584   250A      2.320325
     251A      2.327787   252A      2.342730   253A      2.372447
     254A      2.385898   255A      2.430451   256A      2.442833
     257A      2.458490   258A      2.460902   259A      2.475892
     260A      2.485741   261A      2.497737   262A      2.517102
     263A      2.528943   264A      2.541939   265A      2.562116
     266A      2.574097   267A      2.607344   268A      2.627318
     269A      2.644079   270A      2.649122   271A      2.759626
     272A      2.766918   273A      2.785065   274A      2.794174
     275A      2.796809   276A      2.800195   277A      2.812764
     278A      2.843060   279A      2.866150   280A      2.873918
     281A      2.906430   282A      2.924997   283A      2.962558
     284A      2.973987   285A      3.002100   286A      3.013485
     287A      3.083259   288A      3.102956   289A      3.105527
     290A      3.131882   291A      3.252144   292A      3.261954
     293A      3.276087   294A      3.297412   295A      3.340744
     296A      3.356536   297A      3.576322   298A      3.583506
     299A      3.688128   300A      3.702486   301A      3.934868
     302A      3.973622   303A      4.201186   304A      4.203125

    Final Occupation by Irrep:
              A
    DOCC [    58 ]

  @RHF Final Energy:  -689.24216384890008

   => Energetics <=

    Nuclear Repulsion Energy =           1023.4601029034635076
    One-Electron Energy =               -2969.3151998637040379
    Two-Electron Energy =                1256.6129331113406806
    Total Energy =                       -689.2421638488999633

Computation Completed

Properties will be evaluated at   0.000000,   0.000000,   0.000000 [a0]

Properties computed using the SCF density matrix

  Nuclear Dipole Moment: [e a0]
     X:    -7.0673      Y:     4.7567      Z:     5.9533

  Electronic Dipole Moment: [e a0]
     X:     6.5107      Y:    -4.2975      Z:    -6.5889

  Dipole Moment: [e a0]
     X:    -0.5566      Y:     0.4592      Z:    -0.6356     Total:     0.9616

  Dipole Moment: [D]
     X:    -1.4148      Y:     1.1673      Z:    -1.6156     Total:     2.4443

*** tstop() called on ds3 at Mon Apr 27 09:57:37 2020
Module time:
	user time   =     523.00 seconds =       8.72 minutes
	system time =     179.85 seconds =       3.00 minutes
	total time  =       2360 seconds =      39.33 minutes
Total time:
	user time   =     523.00 seconds =       8.72 minutes
	system time =     179.85 seconds =       3.00 minutes
	total time  =       2360 seconds =      39.33 minutes
                                     G D M A

                                 by Anthony Stone

                           version 2.2.06, 22 June 2011

               Distributed Multipoles from Gaussian wavefunctions

Starting at 9:57:38 on 27 Apr 2020

Using SCF density matrix from file ./SSI/SSI-129TYR-136TYR-2-dimer.test.1616.fchk

                         Distributed Multipole Analysis

Standard DMA

Positions and radii in angstrom
Multipole moments in atomic units, ea_0^k for rank k

C          x =  0.142748  y = -0.397413  z =  2.669271 angstrom
           Maximum rank =  0   Radius =  0.650 angstrom
                   Q00  =  -0.190470

C          x =  0.073748  y = -1.034413  z =  0.248271 angstrom
           Maximum rank =  0   Radius =  0.650 angstrom
                   Q00  =   0.041863

C          x =  0.295748  y = -1.403413  z =  1.581271 angstrom
           Maximum rank =  0   Radius =  0.650 angstrom
                   Q00  =  -0.136045

C          x =  0.153748  y = -1.972413  z = -0.778729 angstrom
           Maximum rank =  0   Radius =  0.650 angstrom
                   Q00  =  -0.206783

C          x =  0.467748  y = -3.290413  z = -0.450729 angstrom
           Maximum rank =  0   Radius =  0.650 angstrom
                   Q00  =   0.350929

C          x =  0.576748  y = -2.724413  z =  1.893271 angstrom
           Maximum rank =  0   Radius =  0.650 angstrom
                   Q00  =  -0.048308

C          x =  0.699748  y = -3.672413  z =  0.873271 angstrom
           Maximum rank =  0   Radius =  0.650 angstrom
                   Q00  =  -0.130408

O          x =  0.541748  y = -4.249413  z = -1.410729 angstrom
           Maximum rank =  0   Radius =  0.650 angstrom
                   Q00  =  -0.662862

H          x = -0.178252  y = -0.012413  z =  0.017271 angstrom
           Maximum rank =  0   Radius =  0.325 angstrom
                   Q00  =   0.072366

H          x = -0.028252  y = -1.681413  z = -1.803729 angstrom
           Maximum rank =  0   Radius =  0.325 angstrom
                   Q00  =   0.061878

H          x =  0.547748  y =  0.556587  z =  2.329271 angstrom
           Maximum rank =  0   Radius =  0.325 angstrom
                   Q00  =   0.102936

H          x =  0.717748  y = -0.712413  z =  3.538271 angstrom
           Maximum rank =  0   Radius =  0.325 angstrom
                   Q00  =   0.092984

H          x =  0.594748  y = -3.020413  z =  2.931271 angstrom
           Maximum rank =  0   Radius =  0.325 angstrom
                   Q00  =   0.063827

H          x =  0.363748  y = -3.903413  z = -2.290729 angstrom
           Maximum rank =  0   Radius =  0.325 angstrom
                   Q00  =   0.401510

H          x =  0.908748  y = -4.707413  z =  1.103271 angstrom
           Maximum rank =  0   Radius =  0.325 angstrom
                   Q00  =   0.079821

H          x = -0.914832  y = -0.264411  z =  2.940991 angstrom
           Maximum rank =  0   Radius =  0.325 angstrom
                   Q00  =   0.092251

C          x = -3.068252  y =  2.555587  z =  0.560271 angstrom
           Maximum rank =  0   Radius =  0.650 angstrom
                   Q00  =  -0.189738

C          x = -1.486252  y =  1.985587  z = -1.331729 angstrom
           Maximum rank =  0   Radius =  0.650 angstrom
                   Q00  =  -0.059359

C          x = -1.684252  y =  2.442587  z = -0.027729 angstrom
           Maximum rank =  0   Radius =  0.650 angstrom
                   Q00  =  -0.154735

C          x = -0.184252  y =  1.924587  z = -1.860729 angstrom
           Maximum rank =  0   Radius =  0.650 angstrom
                   Q00  =  -0.210320

C          x =  0.902748  y =  2.315587  z = -1.049729 angstrom
           Maximum rank =  0   Radius =  0.650 angstrom
                   Q00  =   0.354414

C          x = -0.584252  y =  2.807587  z =  0.743271 angstrom
           Maximum rank =  0   Radius =  0.650 angstrom
                   Q00  =   0.041993

C          x =  0.691748  y =  2.744587  z =  0.251271 angstrom
           Maximum rank =  0   Radius =  0.650 angstrom
                   Q00  =  -0.108980

O          x =  2.186748  y =  2.217587  z = -1.481729 angstrom
           Maximum rank =  0   Radius =  0.650 angstrom
                   Q00  =  -0.650797

H          x = -2.327252  y =  1.674587  z = -1.929729 angstrom
           Maximum rank =  0   Radius =  0.325 angstrom
                   Q00  =   0.074297

H          x = -0.021252  y =  1.568587  z = -2.868729 angstrom
           Maximum rank =  0   Radius =  0.325 angstrom
                   Q00  =   0.076390

H          x = -3.018252  y =  2.247587  z =  1.597271 angstrom
           Maximum rank =  0   Radius =  0.325 angstrom
                   Q00  =   0.097742

H          x = -3.688252  y =  1.818587  z =  0.066271 angstrom
           Maximum rank =  0   Radius =  0.325 angstrom
                   Q00  =   0.096364

H          x = -0.734252  y =  3.145587  z =  1.761271 angstrom
           Maximum rank =  0   Radius =  0.325 angstrom
                   Q00  =   0.061383

H          x =  2.203748  y =  1.787587  z = -2.337729 angstrom
           Maximum rank =  0   Radius =  0.325 angstrom
                   Q00  =   0.402239

H          x =  1.530748  y =  3.029587  z =  0.857271 angstrom
           Maximum rank =  0   Radius =  0.325 angstrom
                   Q00  =   0.081135

H          x = -3.509361  y =  3.557586  z =  0.453401 angstrom
           Maximum rank =  0   Radius =  0.325 angstrom
                   Q00  =   0.102484

Total multipoles referred to origin at
           x =   0.000000,  y =    0.000000,  z =    0.000000 angstrom
                   Q00  =  -0.000000

Finished at 9:57:38 on 27 Apr 2020

  DMA results are available in the Python driver through the
	  variable('DMA DISTRIBUTED MULTIPOLES')
  and
	  variable('DMA TOTAL MULTIPOLES')
  commands.

    Psi4 stopped on: Monday, 27 April 2020 09:57AM
    Psi4 wall time for execution: 0:39:21.03

*** Psi4 exiting successfully. Buy a developer a beer!
