                               Psi4 1.3.2 release

  ==> Input File <==

--------------------------------------------------------------------------
import numpy as np
set {scf_type pk
basis cc-pvdz
d_convergence 10
gdma_switch   0
gdma_limit    0
gdma_origin   [ 0.0,  0.0,  0.0 ]
}
molecule test {
    units Angstrom
    0 1
    --
    0 1
    C                1.172320991152997     1.312203978449065    -2.291727208950915
    C                0.845320991152997     0.505203978449065     1.404272791049085
    C                0.975320991152996    -0.882796021550936     1.402272791049085
    C                0.920320991152996     1.211203978449065     0.205272791049085
    C                1.126320991152997     0.544203978449065    -1.001727208950915
    C                1.184320991152997    -1.559796021550935     0.200272791049085
    C                1.262320991152997    -0.848796021550935    -0.997727208950915
    H                0.681320991152996     1.034203978449065     2.327272791049085
    H                0.912320991152996    -1.434796021550935     2.331272791049085
    H                0.801320991152996     2.283203978449065     0.205272791049085
    H                1.287320991152996    -2.635796021550935     0.198272791049085
    H                2.219320991152996     1.403203978449065    -2.584727208950915
    H                0.772320991152996     2.312203978449065    -2.123727208950914
    H                1.458320991152997    -1.399796021550935    -1.903727208950915
    H                0.607010991152997     0.833923978449065    -3.105167208950915
    C               -2.549679008847004    -0.089796021550935     0.761272791049085
    C               -4.018679008847004    -0.298796021550935     0.412272791049085
    H               -1.899679008847003    -0.373796021550935    -0.060727208950915
    H               -2.372679008847004     0.961203978449065     0.985272791049085
    H               -2.282679008847003    -0.687796021550935     1.632272791049085
    H               -4.270679008847003     0.354203978449065    -0.423727208950915
    H               -4.191599008847004    -1.347036021550935     0.127172791049085
    H               -4.651089008847003    -0.027146021550935     1.270332791049085

}
e, wfn = energy('scf', return_wfn=True)
gdma(wfn)
dmavals = variable('DMA DISTRIBUTED MULTIPOLES')
charges = np.array(dmavals)
print(charges)
np.save('SSI-146PHE-150VAL-1-dimer.npy', np.array(charges))--------------------------------------------------------------------------

*** tstart() called on ds3
*** at Tue Apr 28 16:40:20 2020

   => Loading Basis Set <=

    Name: CC-PVDZ
    Role: ORBITAL
    Keyword: BASIS
    atoms 1-7, 16-17  entry C          line   138 file /theoryfs2/ds/metcalf/miniconda2/envs/tf2gpu/share/psi4/basis/cc-pvdz.gbs
    atoms 8-15, 18-23 entry H          line    22 file /theoryfs2/ds/metcalf/miniconda2/envs/tf2gpu/share/psi4/basis/cc-pvdz.gbs

         ---------------------------------------------------------
                                   SCF
               by Justin Turney, Rob Parrish, Andy Simmonett
                          and Daniel G. A. Smith
                              RHF Reference
                        1 Threads,    500 MiB Core
         ---------------------------------------------------------

  ==> Geometry <==

    Molecular point group: c1
    Full point group: C1

    Geometry (in Angstrom), charge = 0, multiplicity = 1:

       Center              X                  Y                   Z               Mass
    ------------   -----------------  -----------------  -----------------  -----------------
         C            1.172320991153     1.312203978449    -2.291727208951    12.000000000000
         C            0.845320991153     0.505203978449     1.404272791049    12.000000000000
         C            0.975320991153    -0.882796021551     1.402272791049    12.000000000000
         C            0.920320991153     1.211203978449     0.205272791049    12.000000000000
         C            1.126320991153     0.544203978449    -1.001727208951    12.000000000000
         C            1.184320991153    -1.559796021551     0.200272791049    12.000000000000
         C            1.262320991153    -0.848796021551    -0.997727208951    12.000000000000
         H            0.681320991153     1.034203978449     2.327272791049     1.007825032230
         H            0.912320991153    -1.434796021551     2.331272791049     1.007825032230
         H            0.801320991153     2.283203978449     0.205272791049     1.007825032230
         H            1.287320991153    -2.635796021551     0.198272791049     1.007825032230
         H            2.219320991153     1.403203978449    -2.584727208951     1.007825032230
         H            0.772320991153     2.312203978449    -2.123727208951     1.007825032230
         H            1.458320991153    -1.399796021551    -1.903727208951     1.007825032230
         H            0.607010991153     0.833923978449    -3.105167208951     1.007825032230
         C           -2.549679008847    -0.089796021551     0.761272791049    12.000000000000
         C           -4.018679008847    -0.298796021551     0.412272791049    12.000000000000
         H           -1.899679008847    -0.373796021551    -0.060727208951     1.007825032230
         H           -2.372679008847     0.961203978449     0.985272791049     1.007825032230
         H           -2.282679008847    -0.687796021551     1.632272791049     1.007825032230
         H           -4.270679008847     0.354203978449    -0.423727208951     1.007825032230
         H           -4.191599008847    -1.347036021551     0.127172791049     1.007825032230
         H           -4.651089008847    -0.027146021551     1.270332791049     1.007825032230

  Running in c1 symmetry.

  Rotational constants: A =      0.06056  B =      0.02936  C =      0.02515 [cm^-1]
  Rotational constants: A =   1815.42262  B =    880.16321  C =    754.03433 [MHz]
  Nuclear repulsion =  414.191029166503824

  Charge       = 0
  Multiplicity = 1
  Electrons    = 68
  Nalpha       = 34
  Nbeta        = 34

  ==> Algorithm <==

  SCF Algorithm Type is PK.
  DIIS enabled.
  MOM disabled.
  Fractional occupation disabled.
  Guess Type is SAD.
  Energy threshold   = 1.00e-06
  Density threshold  = 1.00e-10
  Integral threshold = 0.00e+00

  ==> Primary Basis <==

  Basis Set: CC-PVDZ
    Blend: CC-PVDZ
    Number of shells: 96
    Number of basis function: 196
    Number of Cartesian functions: 205
    Spherical Harmonics?: true
    Max angular momentum: 2

  ==> Pre-Iterations <==

   -------------------------------------------------------
    Irrep   Nso     Nmo     Nalpha   Nbeta   Ndocc  Nsocc
   -------------------------------------------------------
     A        196     196       0       0       0       0
   -------------------------------------------------------
    Total     196     196      34      34      34       0
   -------------------------------------------------------

  ==> Integral Setup <==

  Using integral reordering PK algorithm.
  Sizing the integral batches needed.
  Building batch lookup table.
   Calculation information:
      Number of atoms:                  23
      Number of AO shells:              96
      Number of primitives:            268
      Number of atomic orbitals:       205
      Number of basis functions:       196

      Integral cutoff                 1.00e-12
      Number of threads:                 1

	Batch   1 pq = [       0,    9405] index = [             0,44231715] size =     44231715
	Batch   2 pq = [    9405,   13301] index = [      44231715,88464951] size =     44233236
	Batch   3 pq = [   13301,   16290] index = [      88464951,132690195] size =     44225244
	Batch   4 pq = [   16290,   18810] index = [     132690195,176917455] size =     44227260
	Batch   5 pq = [   18810,   19306] index = [     176917455,186370471] size =      9453016
  Task number: 17
  Buffer size: 11059200
  Buffer per thread: 2
  We computed 9992078 shell quartets total.
  Whereas there are 10841496 unique shell quartets.

  ==> DiskJK: Disk-Based J/K Matrices <==

    J tasked:                  Yes
    K tasked:                  Yes
    wK tasked:                  No
    Memory [MiB]:              375
    Schwarz Cutoff:          1E-12

    OpenMP threads:              1

  Minimum eigenvalue in the overlap matrix is 3.1746731858E-04.
  Using Symmetric Orthogonalization.

  SCF Guess: Superposition of Atomic Densities via on-the-fly atomic UHF.

  ==> Iterations <==

                        Total Energy        Delta E     RMS |[F,P]|

   @RHF iter SAD:  -347.85659260193398   -3.47857e+02   0.00000e+00
   @RHF iter   1:  -348.76687402787098   -9.10281e-01   2.89656e-03 DIIS
   @RHF iter   2:  -348.95981558039063   -1.92942e-01   1.19591e-03 DIIS
   @RHF iter   3:  -348.98973839150017   -2.99228e-02   2.57187e-04 DIIS
   @RHF iter   4:  -348.99219184711723   -2.45346e-03   5.34040e-05 DIIS
   @RHF iter   5:  -348.99226587916189   -7.40320e-05   1.81393e-05 DIIS
   @RHF iter   6:  -348.99227392554110   -8.04638e-06   4.86474e-06 DIIS
   @RHF iter   7:  -348.99227459856087   -6.73020e-07   1.25052e-06 DIIS
   @RHF iter   8:  -348.99227464983375   -5.12729e-08   3.06042e-07 DIIS
   @RHF iter   9:  -348.99227465586836   -6.03461e-09   1.24954e-07 DIIS
   @RHF iter  10:  -348.99227465719724   -1.32889e-09   5.92466e-08 DIIS
   @RHF iter  11:  -348.99227465765239   -4.55145e-10   2.21111e-08 DIIS
   @RHF iter  12:  -348.99227465772321   -7.08269e-11   9.76235e-09 DIIS
   @RHF iter  13:  -348.99227465772890   -5.68434e-12   3.85089e-09 DIIS
   @RHF iter  14:  -348.99227465772958   -6.82121e-13   1.01456e-09 DIIS
   @RHF iter  15:  -348.99227465773038   -7.95808e-13   3.19023e-10 DIIS
   @RHF iter  16:  -348.99227465773140   -1.02318e-12   7.75641e-11 DIIS
  Energy and wave function converged.

  ==> Post-Iterations <==

    Orbital Energies [Eh]
    ---------------------

    Doubly Occupied:

       1A    -11.241595     2A    -11.236022     3A    -11.235073
       4A    -11.231126     5A    -11.230980     6A    -11.229941
       7A    -11.229571     8A    -11.211456     9A    -11.203650
      10A     -1.151076    11A     -1.043960    12A     -1.011502
      13A     -1.009546    14A     -0.930622    15A     -0.827081
      16A     -0.823945    17A     -0.795189    18A     -0.689820
      19A     -0.632567    20A     -0.628998    21A     -0.590413
      22A     -0.588339    23A     -0.583172    24A     -0.577583
      25A     -0.561689    26A     -0.536074    27A     -0.499499
      28A     -0.485451    29A     -0.482435    30A     -0.478372
      31A     -0.476481    32A     -0.472832    33A     -0.331621
      34A     -0.320118

    Virtual:

      35A      0.135309    36A      0.141447    37A      0.177280
      38A      0.199082    39A      0.200935    40A      0.213716
      41A      0.238077    42A      0.250330    43A      0.260471
      44A      0.263707    45A      0.266461    46A      0.269964
      47A      0.276604    48A      0.293514    49A      0.302271
      50A      0.304695    51A      0.365047    52A      0.375769
      53A      0.402617    54A      0.451793    55A      0.461363
      56A      0.474469    57A      0.497824    58A      0.564411
      59A      0.568417    60A      0.602314    61A      0.605091
      62A      0.608057    63A      0.631542    64A      0.663617
      65A      0.670637    66A      0.684296    67A      0.700205
      68A      0.705955    69A      0.737427    70A      0.740164
      71A      0.747473    72A      0.756930    73A      0.768211
      74A      0.793225    75A      0.801521    76A      0.812995
      77A      0.837365    78A      0.854588    79A      0.858646
      80A      0.866382    81A      0.884594    82A      0.896059
      83A      0.897592    84A      0.899850    85A      0.901604
      86A      0.913267    87A      0.922071    88A      0.925977
      89A      0.929113    90A      0.940577    91A      0.957719
      92A      0.972039    93A      0.990896    94A      0.997398
      95A      1.032177    96A      1.082243    97A      1.120067
      98A      1.129561    99A      1.140740   100A      1.145302
     101A      1.151774   102A      1.155189   103A      1.190121
     104A      1.222755   105A      1.232277   106A      1.244653
     107A      1.262559   108A      1.286315   109A      1.300509
     110A      1.310518   111A      1.328709   112A      1.340447
     113A      1.412318   114A      1.482634   115A      1.489372
     116A      1.504877   117A      1.525077   118A      1.565817
     119A      1.595187   120A      1.601908   121A      1.671581
     122A      1.685871   123A      1.694168   124A      1.708963
     125A      1.731322   126A      1.746078   127A      1.761101
     128A      1.790744   129A      1.823935   130A      1.854760
     131A      1.868810   132A      1.879684   133A      1.889854
     134A      1.890817   135A      1.911186   136A      1.914677
     137A      1.927796   138A      1.934499   139A      1.938157
     140A      1.953328   141A      1.955733   142A      1.958571
     143A      1.968584   144A      1.970561   145A      1.976396
     146A      1.985961   147A      2.000126   148A      2.033300
     149A      2.034864   150A      2.082288   151A      2.093324
     152A      2.103036   153A      2.118787   154A      2.125376
     155A      2.133309   156A      2.156455   157A      2.164802
     158A      2.181300   159A      2.191949   160A      2.257568
     161A      2.266316   162A      2.285685   163A      2.294965
     164A      2.314387   165A      2.320139   166A      2.345954
     167A      2.378949   168A      2.447698   169A      2.463966
     170A      2.474125   171A      2.478788   172A      2.494797
     173A      2.545332   174A      2.569956   175A      2.582865
     176A      2.633847   177A      2.732172   178A      2.747960
     179A      2.767701   180A      2.771158   181A      2.785789
     182A      2.802834   183A      2.811164   184A      2.844107
     185A      2.860939   186A      2.863675   187A      2.868473
     188A      2.958098   189A      2.975231   190A      2.989120
     191A      3.022422   192A      3.027440   193A      3.161505
     194A      3.199488   195A      3.297531   196A      3.962760

    Final Occupation by Irrep:
              A
    DOCC [    34 ]

  @RHF Final Energy:  -348.99227465773140

   => Energetics <=

    Nuclear Repulsion Energy =            414.1910291665038244
    One-Electron Energy =               -1291.2110083534225851
    Two-Electron Energy =                 528.0277045291874174
    Total Energy =                       -348.9922746577314001

Computation Completed

Properties will be evaluated at   0.000000,   0.000000,   0.000000 [a0]

Properties computed using the SCF density matrix

  Nuclear Dipole Moment: [e a0]
     X:   -10.2457      Y:     1.1962      Z:    -1.0543

  Electronic Dipole Moment: [e a0]
     X:    10.3516      Y:    -1.1313      Z:     0.9320

  Dipole Moment: [e a0]
     X:     0.1059      Y:     0.0649      Z:    -0.1224     Total:     0.1744

  Dipole Moment: [D]
     X:     0.2692      Y:     0.1650      Z:    -0.3111     Total:     0.4432

*** tstop() called on ds3 at Tue Apr 28 16:41:48 2020
Module time:
	user time   =      66.49 seconds =       1.11 minutes
	system time =      25.16 seconds =       0.42 minutes
	total time  =         88 seconds =       1.47 minutes
Total time:
	user time   =      66.49 seconds =       1.11 minutes
	system time =      25.16 seconds =       0.42 minutes
	total time  =         88 seconds =       1.47 minutes
                                     G D M A

                                 by Anthony Stone

                           version 2.2.06, 22 June 2011

               Distributed Multipoles from Gaussian wavefunctions

Starting at 16:41:49 on 28 Apr 2020

Using SCF density matrix from file ./SSI/SSI-146PHE-150VAL-1-dimer.test.16969.fchk

                         Distributed Multipole Analysis

Standard DMA

Positions and radii in angstrom
Multipole moments in atomic units, ea_0^k for rank k

C          x =  1.172321  y =  1.312204  z = -2.291727 angstrom
           Maximum rank =  0   Radius =  0.650 angstrom
                   Q00  =  -0.202276

C          x =  0.845321  y =  0.505204  z =  1.404273 angstrom
           Maximum rank =  0   Radius =  0.650 angstrom
                   Q00  =  -0.071932

C          x =  0.975321  y = -0.882796  z =  1.402273 angstrom
           Maximum rank =  0   Radius =  0.650 angstrom
                   Q00  =  -0.087602

C          x =  0.920321  y =  1.211204  z =  0.205273 angstrom
           Maximum rank =  0   Radius =  0.650 angstrom
                   Q00  =   0.012734

C          x =  1.126321  y =  0.544204  z = -1.001727 angstrom
           Maximum rank =  0   Radius =  0.650 angstrom
                   Q00  =  -0.096175

C          x =  1.184321  y = -1.559796  z =  0.200273 angstrom
           Maximum rank =  0   Radius =  0.650 angstrom
                   Q00  =  -0.062028

C          x =  1.262321  y = -0.848796  z = -0.997727 angstrom
           Maximum rank =  0   Radius =  0.650 angstrom
                   Q00  =  -0.097003

H          x =  0.681321  y =  1.034204  z =  2.327273 angstrom
           Maximum rank =  0   Radius =  0.325 angstrom
                   Q00  =   0.065470

H          x =  0.912321  y = -1.434796  z =  2.331273 angstrom
           Maximum rank =  0   Radius =  0.325 angstrom
                   Q00  =   0.061357

H          x =  0.801321  y =  2.283204  z =  0.205273 angstrom
           Maximum rank =  0   Radius =  0.325 angstrom
                   Q00  =   0.057453

H          x =  1.287321  y = -2.635796  z =  0.198273 angstrom
           Maximum rank =  0   Radius =  0.325 angstrom
                   Q00  =   0.065253

H          x =  2.219321  y =  1.403204  z = -2.584727 angstrom
           Maximum rank =  0   Radius =  0.325 angstrom
                   Q00  =   0.103118

H          x =  0.772321  y =  2.312204  z = -2.123727 angstrom
           Maximum rank =  0   Radius =  0.325 angstrom
                   Q00  =   0.097041

H          x =  1.458321  y = -1.399796  z = -1.903727 angstrom
           Maximum rank =  0   Radius =  0.325 angstrom
                   Q00  =   0.056384

H          x =  0.607011  y =  0.833924  z = -3.105167 angstrom
           Maximum rank =  0   Radius =  0.325 angstrom
                   Q00  =   0.100959

C          x = -2.549679  y = -0.089796  z =  0.761273 angstrom
           Maximum rank =  0   Radius =  0.650 angstrom
                   Q00  =  -0.230854

C          x = -4.018679  y = -0.298796  z =  0.412273 angstrom
           Maximum rank =  0   Radius =  0.650 angstrom
                   Q00  =  -0.230334

H          x = -1.899679  y = -0.373796  z = -0.060727 angstrom
           Maximum rank =  0   Radius =  0.325 angstrom
                   Q00  =   0.087796

H          x = -2.372679  y =  0.961204  z =  0.985273 angstrom
           Maximum rank =  0   Radius =  0.325 angstrom
                   Q00  =   0.071244

H          x = -2.282679  y = -0.687796  z =  1.632273 angstrom
           Maximum rank =  0   Radius =  0.325 angstrom
                   Q00  =   0.073020

H          x = -4.270679  y =  0.354204  z = -0.423727 angstrom
           Maximum rank =  0   Radius =  0.325 angstrom
                   Q00  =   0.075030

H          x = -4.191599  y = -1.347036  z =  0.127173 angstrom
           Maximum rank =  0   Radius =  0.325 angstrom
                   Q00  =   0.076566

H          x = -4.651089  y = -0.027146  z =  1.270333 angstrom
           Maximum rank =  0   Radius =  0.325 angstrom
                   Q00  =   0.074781

Total multipoles referred to origin at
           x =   0.000000,  y =    0.000000,  z =    0.000000 angstrom
                   Q00  =  -0.000000

Finished at 16:41:49 on 28 Apr 2020

  DMA results are available in the Python driver through the
	  variable('DMA DISTRIBUTED MULTIPOLES')
  and
	  variable('DMA TOTAL MULTIPOLES')
  commands.

    Psi4 stopped on: Tuesday, 28 April 2020 04:41PM
    Psi4 wall time for execution: 0:01:28.61

*** Psi4 exiting successfully. Buy a developer a beer!
